Title
81356
    1CHL1    C3    1   2.838   5.237  10.335 -0.0208  0.6074  0.2373
    1CHL1    H3    2   2.943   5.200  10.337 -0.2672 -0.0813  1.6577
    1CHL1    O3    3   2.797   5.253  10.463  0.4073  0.0455 -0.1426
    1CHL1   H3'    4   2.761   5.342  10.469  0.7204  0.0673  2.9097
    1CHL1    C4    5   2.840   5.376  10.276 -0.5098 -0.1654 -0.3002
    1CHL1   H4A    6   2.745   5.431  10.287  0.2188  1.6094 -2.1799
    1CHL1   H4B    7   2.898   5.450  10.335 -3.2139  1.2004  0.7794
    1CHL1    C5    8   2.881   5.370  10.131  0.1616  0.5261  0.4935
    1CHL1    C6    9   2.993   5.441  10.089  0.3533 -0.1109 -1.3946
    1CHL1    H6   10   3.048   5.503  10.161  0.3964 -1.1188 -0.5316
    1CHL1    C7   11   3.037   5.443   9.950 -0.2771 -0.2873 -0.1478
    1CHL1   H7A   12   3.064   5.546   9.919 -1.2333  0.7203  2.1036
    1CHL1   H7B   13   3.131   5.384   9.940  1.5121  2.3601  0.0817
    1CHL1    C8   14   2.931   5.387   9.851  0.5852 -0.7182 -0.4512
    1CHL1    H8   15   2.841   5.451   9.847  1.2322  0.2798  0.3525
    1CHL1   C14   16   2.993   5.353   9.713 -0.2024 -0.4517 -0.1512
    1CHL1   H14   17   3.075   5.279   9.729  2.0845  1.5904 -1.7538
    1CHL1   C15   18   3.061   5.469   9.639 -0.5685 -0.0503 -0.2007
    1CHL1  H15A   19   3.002   5.563   9.641  0.9245  0.9975  3.6742
    1CHL1  H15B   20   3.157   5.502   9.684 -1.2574  0.3000  1.0578
    1CHL1   C16   21   3.075   5.418   9.491 -0.0371  0.3112 -0.1366
    1CHL1  H16A   22   3.032   5.493   9.422  0.2462  1.8287  1.2784
    1CHL1  H16B   23   3.185   5.402   9.484  0.3155  2.4947 -0.2765
    1CHL1   C17   24   3.004   5.276   9.485  0.0905  0.3530 -0.3957
    1CHL1   H17   25   3.082   5.205   9.519 -0.5440  0.1691  0.7306
    1CHL1   C13   26   2.908   5.282   9.603  0.1034  0.4975  0.1986
    1CHL1   C18   27   2.799   5.378   9.555 -0.0164 -0.1371 -0.0884
    1CHL1  H18A   28   2.730   5.399   9.639 -0.2881 -0.2009 -0.2948
    1CHL1  H18B   29   2.832   5.470   9.503 -2.3676  1.6177  1.3167
    1CHL1  H18C   30   2.743   5.315   9.483  2.1468 -2.1592 -0.1198
    1CHL1   C12   31   2.847   5.157   9.668 -0.2411  0.4656 -0.4030
    1CHL1  H12A   32   2.767   5.122   9.599  0.1554  0.6683 -0.9721
    1CHL1  H12B   33   2.930   5.084   9.678  0.6354  1.3062 -1.3050
    1CHL1   C11   34   2.784   5.181   9.804  0.2676  0.7561  0.7041
    1CHL1  H11A   35   2.688   5.237   9.794  0.8073  1.7836  1.1779
    1CHL1  H11B   36   2.777   5.076   9.841  0.7644  0.2527 -0.5536
    1CHL1    C9   37   2.869   5.261   9.908 -0.4559 -0.0267  0.3132
    1CHL1    H9   38   2.959   5.198   9.925 -1.1236 -1.7147 -1.8743
    1CHL1   C10   39   2.797   5.279  10.043 -0.5002 -0.2784 -0.0261
    1CHL1   C19   40   2.649   5.341  10.029 -0.4083 -0.6275 -0.2108
    1CHL1  H19A   41   2.610   5.382  10.125  0.7086 -1.5843  0.6912
    1CHL1  H19B   42   2.652   5.422   9.953  4.4618 -0.6268 -0.3323
    1CHL1  H19C   43   2.574   5.264  10.002 -1.0753 -0.3057  0.6709
    1CHL1    C1   44   2.794   5.144  10.119  0.1735 -0.2767  0.5326
    1CHL1   H1A   45   2.726   5.073  10.068  1.2832 -0.1648 -1.2118
    1CHL1   H1B   46   2.897   5.101  10.124  0.3393  0.0712  0.1354
    1CHL1    C2   47   2.747   5.138  10.262  0.0385  0.5775 -0.2555
    1CHL1   H2A   48   2.746   5.036  10.306 -1.8074  1.0250  0.8692
    1CHL1   H2B   49   2.640   5.168  10.270 -1.0492 -2.4371 -1.9544
    1CHL1   C20   50   2.956   5.236   9.348 -0.2289 -0.1590  0.1173
    1CHL1   H20   51   2.859   5.283   9.319 -0.5612  0.5774  2.2791
    1CHL1   C21   52   2.921   5.084   9.336 -0.4897  0.0461  0.0319
    1CHL1  H21A   53   3.005   5.012   9.346  0.3333  0.9210 -0.3797
    1CHL1  H21B   54   2.889   5.064   9.231  1.3703 -0.8033 -0.4110
    1CHL1  H21C   55   2.845   5.056   9.412  0.2709 -2.4379 -0.0264
    1CHL1   C22   56   3.055   5.279   9.235 -0.3100  0.4831  0.2554
    1CHL1  H22A   57   3.016   5.248   9.136  2.8460  0.6072 -1.1167
    1CHL1  H22B   58   3.071   5.388   9.240  0.9824  0.2581  2.2687
    1CHL1   C23   59   3.192   5.222   9.226 -0.4315  0.3188 -0.1614
    1CHL1  H23A   60   3.251   5.246   9.317  0.8167 -1.3686 -0.4604
    1CHL1  H23B   61   3.184   5.112   9.238 -0.5323  0.5292  1.9837
    1CHL1   C24   62   3.275   5.254   9.094  0.2657 -0.1258 -0.4129
    1CHL1  H24A   63   3.377   5.213   9.108  0.6511  0.8532 -0.2158
    1CHL1  H24B   64   3.225   5.192   9.017 -1.6555 -0.9257  1.4049
    1CHL1   C25   65   3.291   5.401   9.057 -0.0455 -0.4412  0.2658
    1CHL1   H25   66   3.202   5.461   9.085  1.5452  1.0771  2.3167
    1CHL1   C26   67   3.407   5.461   9.141 -0.0043  0.1456  0.8324
    1CHL1  H26A   68   3.422   5.557   9.086 -0.6803 -0.5159 -0.5464
    1CHL1  H26B   69   3.379   5.462   9.248  0.8645 -1.1298  1.0917
    1CHL1  H26C   70   3.503   5.406   9.128  1.8506  3.4881 -1.1130
    1CHL1   C27   71   3.321   5.418   8.911 -0.0695 -0.0595  0.0028
    1CHL1  H27A   72   3.254   5.356   8.849 -0.4333  0.9640 -0.6562
    1CHL1  H27B   73   3.305   5.524   8.882 -1.6385 -0.5661 -1.1265
    1CHL1  H27C   74   3.428   5.387   8.904  0.4349  1.2332  1.4502
    2CHL1    C3   75   4.882   4.750   9.899  0.6522 -0.0577 -0.1494
    2CHL1    H3   76   4.832   4.654   9.872 -0.1996  0.0269  1.0142
    2CHL1    O3   77   4.904   4.754  10.040  0.0769 -0.2743  0.1342
    2CHL1   H3'   78   4.823   4.789  10.077  0.4392  0.6647  0.0610
    2CHL1    C4   79   5.017   4.759   9.835 -0.5639 -0.2366  0.5708
    2CHL1   H4A   80   5.091   4.833   9.872 -2.8564  2.4108  0.1602
    2CHL1   H4B   81   5.063   4.658   9.848  0.0118  0.2243  2.3441
    2CHL1    C5   82   4.998   4.784   9.689  0.0015 -0.4980 -0.2640
    2CHL1    C6   83   5.022   4.699   9.592 -0.2232 -0.2315 -0.1411
    2CHL1    H6   84   5.058   4.599   9.620  0.2629  0.5314  2.1575
    2CHL1    C7   85   4.999   4.717   9.449 -0.2722  0.1341  0.3946
    2CHL1   H7A   86   5.075   4.669   9.383 -1.8646 -2.8577  0.5892
    2CHL1   H7B   87   4.902   4.669   9.425  0.0905  0.0049 -0.9045
    2CHL1    C8   88   4.983   4.865   9.399 -0.3934  0.2749 -0.0098
    2CHL1    H8   89   5.081   4.917   9.400 -1.3066  2.0492  0.3865
    2CHL1   C14   90   4.934   4.879   9.255 -0.1965 -0.8913 -0.1496
    2CHL1   H14   91   4.835   4.830   9.249 -1.1105  0.9424 -0.6590
    2CHL1   C15   92   5.012   4.811   9.139  0.1615 -0.9772  0.8884
    2CHL1  H15A   93   5.123   4.823   9.143  0.4390 -2.8923  0.0182
    2CHL1  H15B   94   4.988   4.703   9.136 -2.8608 -0.3526 -1.2928
    2CHL1   C16   95   4.953   4.880   9.019  0.5373 -0.4950 -0.2605
    2CHL1  H16A   96   5.031   4.924   8.953 -2.6673  1.8548 -2.7712
    2CHL1  H16B   97   4.887   4.813   8.959  3.1488  0.0118 -4.0337
    2CHL1   C17   98   4.876   5.009   9.064 -0.4735 -0.3180 -0.1395
    2CHL1   H17   99   4.772   4.971   9.054 -0.7069  0.0516  0.7972
    2CHL1   C13  100   4.914   5.030   9.207  0.6261 -0.0794 -0.6835
    2CHL1   C18  101   5.044   5.115   9.226  0.2625 -1.1303  0.7280
    2CHL1  H18A  102   5.081   5.121   9.330 -0.7556  0.9005  1.0099
    2CHL1  H18B  103   5.125   5.073   9.163  1.7552  0.2445  1.6500
    2CHL1  H18C  104   5.020   5.221   9.203 -1.3030 -1.2116  1.8236
    2CHL1   C12  105   4.804   5.086   9.300  0.4779  0.1499  0.5015
    2CHL1  H12A  106   4.791   5.192   9.270  1.9284 -0.0332 -0.8869
    2CHL1  H12B  107   4.719   5.017   9.276 -1.1890  2.1691  0.3134
    2CHL1   C11  108   4.833   5.072   9.447 -0.0247  0.1885 -0.4263
    2CHL1  H11A  109   4.916   5.145   9.461  1.1148 -1.2995  0.9616
    2CHL1  H11B  110   4.751   5.106   9.514 -0.2397 -2.3486  0.6877
    2CHL1    C9  111   4.886   4.929   9.496  0.4401 -0.8775  0.7928
    2CHL1    H9  112   4.794   4.868   9.482 -1.3441  1.7393  0.3455
    2CHL1   C10  113   4.917   4.910   9.649 -0.1596  0.5246 -0.4034
    2CHL1   C19  114   5.002   5.028   9.703 -0.1058 -0.1165  0.0730
    2CHL1  H19A  115   5.029   5.022   9.810  1.9093  1.0803 -0.3215
    2CHL1  H19B  116   5.093   5.042   9.642 -0.2463  0.2207 -0.0602
    2CHL1  H19C  117   4.955   5.128   9.687  0.7467  0.1421 -0.9597
    2CHL1    C1  118   4.783   4.908   9.729  0.7463  0.2356  0.0782
    2CHL1   H1A  119   4.730   5.004   9.710 -0.1520  0.1302  1.8906
    2CHL1   H1B  120   4.724   4.828   9.680 -0.5407  0.3679  1.3475
    2CHL1    C2  121   4.797   4.876   9.874  0.0253 -0.0713 -0.1689
    2CHL1   H2A  122   4.696   4.861   9.918 -0.4589  0.5207 -1.0656
    2CHL1   H2B  123   4.842   4.965   9.922 -0.0645 -0.5480  0.8246
    2CHL1   C20  124   4.892   5.127   8.967  0.7025 -0.3266  0.1511
    2CHL1   H20  125   5.000   5.152   8.963  0.3443  1.1006 -1.2019
    2CHL1   C21  126   4.804   5.248   9.013  0.2252  0.2294  0.2217
    2CHL1  H21A  127   4.704   5.224   9.054 -0.5188  1.1084 -1.0141
    2CHL1  H21B  128   4.797   5.327   8.935 -3.5304 -0.4063 -0.2745
    2CHL1  H21C  129   4.868   5.299   9.088  2.6805  1.0191 -2.2086
    2CHL1   C22  130   4.853   5.097   8.823  0.4279  0.4464 -0.0177
    2CHL1  H22A  131   4.876   5.189   8.765  5.1439  0.8809  2.0075
    2CHL1  H22B  132   4.922   5.016   8.791 -1.2322 -2.1173  2.4111
    2CHL1   C23  133   4.710   5.042   8.797 -0.3478  0.0732  0.5597
    2CHL1  H23A  134   4.685   4.964   8.873 -0.5295 -1.2438 -0.7998
    2CHL1  H23B  135   4.627   5.115   8.800 -0.8680 -0.3038 -1.9450
    2CHL1   C24  136   4.701   4.971   8.658 -0.7126  0.5814 -0.3249
    2CHL1  H24A  137   4.727   5.040   8.575 -0.1035 -2.0791 -2.4889
    2CHL1  H24B  138   4.775   4.889   8.666 -0.5445  0.8740  1.7303
    2CHL1   C25  139   4.565   4.911   8.630 -0.2218  0.0087 -0.1904
    2CHL1   H25  140   4.521   4.863   8.720 -1.1529  0.2303 -0.5239
    2CHL1   C26  141   4.468   5.027   8.592  0.1518 -0.1439  0.1506
    2CHL1  H26A  142   4.513   5.074   8.502 -0.4435  1.6545  0.7407
    2CHL1  H26B  143   4.373   4.980   8.559 -1.1304  1.9776  0.6491
    2CHL1  H26C  144   4.448   5.103   8.670 -2.7505  1.7123 -2.1830
    2CHL1   C27  145   4.570   4.807   8.515  0.1729 -0.4963 -0.1950
    2CHL1  H27A  146   4.627   4.864   8.438 -3.0083 -0.4750 -2.7689
    2CHL1  H27B  147   4.610   4.706   8.536  0.1104 -0.5559 -0.3600
    2CHL1  H27C  148   4.462   4.791   8.495  0.3086 -0.1147 -1.3063
    3CHL1    C3  149   4.868   3.693  10.000 -0.0289 -0.4908  0.3315
    3CHL1    H3  150   4.811   3.786   9.980  0.6511  0.0034  0.6506
    3CHL1    O3  151   4.888   3.671  10.138 -0.1625  0.1727 -0.4924
    3CHL1   H3'  152   4.814   3.613  10.159  0.5846 -0.5925  0.0614
    3CHL1    C4  153   4.791   3.575   9.947  0.2297 -0.6389  0.5002
    3CHL1   H4A  154   4.850   3.484   9.972 -0.1078 -0.2517  3.0535
    3CHL1   H4B  155   4.700   3.559  10.009 -0.0246 -1.3471 -0.0379
    3CHL1    C5  156   4.773   3.570   9.796  0.3411  0.2949 -0.1528
    3CHL1    C6  157   4.648   3.555   9.748  0.0902  0.1408 -0.1703
    3CHL1    H6  158   4.568   3.546   9.823 -0.8993  0.5196 -1.1707
    3CHL1    C7  159   4.619   3.555   9.598  0.0954  0.0748  0.3614
    3CHL1   H7A  160   4.550   3.469   9.581 -2.6519  2.0661  0.7747
    3CHL1   H7B  161   4.578   3.652   9.564  1.0927 -0.0742 -1.3754
    3CHL1    C8  162   4.742   3.535   9.513 -0.3988  0.7555  0.0544
    3CHL1    H8  163   4.760   3.426   9.506  0.5847  0.9553 -0.6797
    3CHL1   C14  164   4.712   3.589   9.371 -0.4517 -0.0441 -0.0577
    3CHL1   H14  165   4.702   3.699   9.362  1.6826  0.1861 -0.1403
    3CHL1   C15  166   4.592   3.533   9.293  0.1568  0.1295 -0.3974
    3CHL1  H15A  167   4.574   3.424   9.305 -0.7319  0.1755 -1.2677
    3CHL1  H15B  168   4.499   3.587   9.318 -0.0768  0.3152 -1.6110
    3CHL1   C16  169   4.624   3.569   9.143  0.0375 -0.0967  0.2159
    3CHL1  H16A  170   4.615   3.481   9.076 -3.4399  0.3504 -0.1033
    3CHL1  H16B  171   4.547   3.631   9.092  2.1589  0.0955 -2.9768
    3CHL1   C17  172   4.771   3.627   9.135  0.7237  0.2048 -0.7592
    3CHL1   H17  173   4.754   3.737   9.145 -0.6061  0.0103 -0.6414
    3CHL1   C13  174   4.835   3.576   9.269  0.6875  0.0275 -0.2054
    3CHL1   C18  175   4.870   3.425   9.249 -0.1394 -0.2400  0.0198
    3CHL1  H18A  176   4.896   3.388   9.350  1.8637  1.3832  0.1767
    3CHL1  H18B  177   4.788   3.361   9.211 -0.1787  0.4509 -1.1058
    3CHL1  H18C  178   4.959   3.406   9.184  0.3218  1.8672 -0.0377
    3CHL1   C12  179   4.955   3.655   9.328  0.3362  0.0550 -0.4837
    3CHL1  H12A  180   5.040   3.626   9.264 -0.1197  0.5700 -1.3397
    3CHL1  H12B  181   4.943   3.765   9.311 -0.1757  0.2256  0.8035
    3CHL1   C11  182   4.986   3.614   9.475  0.2747 -0.6074  0.3138
    3CHL1  H11A  183   5.023   3.510   9.470 -1.4969 -1.3940  2.4022
    3CHL1  H11B  184   5.071   3.673   9.516 -0.1607 -0.9619  1.7990
    3CHL1    C9  185   4.857   3.620   9.570  0.6277 -0.0426  0.4558
    3CHL1    H9  186   4.819   3.725   9.572  1.8579  0.4566 -0.6040
    3CHL1   C10  187   4.894   3.592   9.713 -0.4191  1.0925 -0.1325
    3CHL1   C19  188   4.975   3.469   9.712 -0.7817  0.1582 -0.1646
    3CHL1  H19A  189   4.937   3.386   9.648  0.2436 -0.3901 -0.0864
    3CHL1  H19B  190   5.075   3.488   9.666  0.0105  0.0815  1.4716
    3CHL1  H19C  191   5.002   3.416   9.806  3.3561 -0.2303 -1.3484
    3CHL1    C1  192   4.981   3.702   9.766  0.2196 -0.8882 -0.1185
    3CHL1   H1A  193   5.077   3.712   9.712 -0.7042  0.6098 -1.5550
    3CHL1   H1B  194   4.941   3.801   9.739  1.2973 -0.4309 -0.0943
    3CHL1    C2  195   5.000   3.697   9.922 -0.0963  0.5536 -0.8789
    3CHL1   H2A  196   5.063   3.784   9.950  2.1526 -0.8172 -1.3932
    3CHL1   H2B  197   5.064   3.610   9.951  0.0364 -0.4806 -3.8958
    3CHL1   C20  198   4.842   3.602   9.002 -0.3456  0.1955 -0.4531
    3CHL1   H20  199   4.871   3.495   9.005 -0.8330  0.0651 -0.3401
    3CHL1   C21  200   4.963   3.699   8.991 -0.0803 -0.0580  0.1303
    3CHL1  H21A  201   5.043   3.650   9.050 -1.2738 -1.6038  0.5605
    3CHL1  H21B  202   4.955   3.807   9.012  1.6571  0.0537  0.3449
    3CHL1  H21C  203   4.995   3.705   8.885 -1.8656 -0.0539 -0.4524
    3CHL1   C22  204   4.763   3.616   8.876  0.1267 -0.8345  0.6122
    3CHL1  H22A  205   4.671   3.554   8.879 -2.2363  2.2819 -1.1155
    3CHL1  H22B  206   4.727   3.721   8.864 -0.2179 -1.1439 -1.5224
    3CHL1   C23  207   4.827   3.567   8.744  0.1172  1.2682  0.0206
    3CHL1  H23A  208   4.915   3.628   8.714 -0.3932  2.0136  0.0218
    3CHL1  H23B  209   4.865   3.465   8.769 -1.9890  1.0042  2.5159
    3CHL1   C24  210   4.719   3.568   8.633 -0.5507 -0.1405  0.7628
    3CHL1  H24A  211   4.621   3.527   8.668  0.1526 -3.3595 -0.6512
    3CHL1  H24B  212   4.704   3.672   8.597 -3.1400 -0.3888  0.9075
    3CHL1   C25  213   4.750   3.475   8.521 -0.4265 -0.5292  0.7376
    3CHL1   H25  214   4.852   3.505   8.490 -0.9490 -1.2026 -1.8911
    3CHL1   C26  215   4.756   3.326   8.558 -0.1428  0.0475  0.1015
    3CHL1  H26A  216   4.834   3.296   8.630 -1.1919 -0.3112  1.1280
    3CHL1  H26B  217   4.659   3.292   8.601 -1.4344  0.0569 -2.5701
    3CHL1  H26C  218   4.786   3.267   8.469 -2.4573  0.1696 -0.8374
    3CHL1   C27  219   4.645   3.480   8.406 -0.4421 -0.8863 -0.3934
    3CHL1  H27A  220   4.638   3.588   8.381  0.0589 -0.8729 -0.4734
    3CHL1  H27B  221   4.676   3.420   8.317 -1.7557 -0.1529 -1.3909
    3CHL1  H27C  222   4.550   3.446   8.453  0.0063 -0.1622  1.0636
    4CHL1    C3  223   3.944   0.903  10.300 -0.4642 -0.1049 -0.5767
    4CHL1    H3  224   3.844   0.855  10.311 -0.2607 -0.1195  1.9436
    4CHL1    O3  225   4.005   0.918  10.435 -0.0695  0.2321  0.0740
    4CHL1   H3'  226   4.057   0.999  10.432  1.5595 -0.7481  0.6030
    4CHL1    C4  227   4.043   0.831  10.208 -0.0048  0.7312 -0.2066
    4CHL1   H4A  228   4.146   0.862  10.235  0.6121 -0.8829 -0.6308
    4CHL1   H4B  229   4.055   0.730  10.251  2.0743  0.0405 -2.2505
    4CHL1    C5  230   4.022   0.828  10.061  0.4277  0.2131 -0.4769
    4CHL1    C6  231   4.005   0.710   9.991  0.2296  0.0092  0.4908
    4CHL1    H6  232   4.014   0.610  10.035 -0.9686 -0.5047 -0.3741
    4CHL1    C7  233   3.992   0.714   9.849  0.0921 -0.0104  0.2770
    4CHL1   H7A  234   4.074   0.641   9.827  0.7245  0.5196  0.8636
    4CHL1   H7B  235   3.892   0.677   9.820  0.4032  0.9028 -2.2561
    4CHL1    C8  236   4.022   0.847   9.775  0.3503 -0.5871 -0.2458
    4CHL1    H8  237   4.131   0.863   9.785  0.1409 -0.2770  2.6720
    4CHL1   C14  238   3.984   0.852   9.631  0.7725 -0.1427  0.7015
    4CHL1   H14  239   3.876   0.827   9.635  0.8011 -0.1734  1.4321
    4CHL1   C15  240   4.045   0.742   9.547 -0.3279  0.1013 -0.0005
    4CHL1  H15A  241   4.144   0.703   9.581 -0.9081 -3.7727 -2.1416
    4CHL1  H15B  242   3.989   0.648   9.529  2.9614 -2.4160  1.7566
    4CHL1   C16  243   4.066   0.807   9.402 -0.1513  0.5299 -0.7504
    4CHL1  H16A  244   4.176   0.821   9.391  0.1028  0.2721  1.2227
    4CHL1  H16B  245   4.023   0.747   9.319 -3.1899  1.4859  0.0093
    4CHL1   C17  246   3.992   0.938   9.411  0.2345 -0.2999 -0.6379
    4CHL1   H17  247   3.885   0.910   9.397 -0.0570 -0.0860  0.9796
    4CHL1   C13  248   4.008   0.985   9.561 -0.2873 -0.0242 -0.3120
    4CHL1   C18  249   4.158   1.036   9.579  0.6230 -0.0494  0.9001
    4CHL1  H18A  250   4.190   1.053   9.684  0.2167  0.0965  0.9986
    4CHL1  H18B  251   4.226   0.961   9.533 -1.2536 -0.6096 -1.1208
    4CHL1  H18C  252   4.169   1.132   9.523 -1.6864 -1.0286 -1.4408
    4CHL1   C12  253   3.917   1.087   9.633 -0.4577 -0.3480 -0.3995
    4CHL1  H12A  254   3.933   1.189   9.592  2.7957 -1.3330 -1.9305
    4CHL1  H12B  255   3.813   1.055   9.614 -0.6046 -1.2638  1.7153
    4CHL1   C11  256   3.936   1.092   9.785  0.5353 -0.3813  0.0814
    4CHL1  H11A  257   4.030   1.150   9.796 -0.6005  1.4796  0.2973
    4CHL1  H11B  258   3.850   1.152   9.822  1.8345  2.1607 -0.7563
    4CHL1    C9  259   3.947   0.954   9.854  0.1720  0.4476  0.5440
    4CHL1    H9  260   3.843   0.916   9.859  0.0530  0.8476  1.3494
    4CHL1   C10  261   3.992   0.959  10.004 -0.7333  0.4802 -0.1676
    4CHL1   C19  262   4.133   1.038  10.003 -0.0483 -0.4230 -0.5334
    4CHL1  H19A  263   4.197   0.977   9.935 -0.2438 -0.8530 -0.3354
    4CHL1  H19B  264   4.119   1.144   9.974 -1.2924 -0.3167  0.3944
    4CHL1  H19C  265   4.167   1.045  10.109 -1.2518  0.8776 -0.2018
    4CHL1    C1  266   3.893   1.040  10.092  0.9870  0.7324  0.4519
    4CHL1   H1A  267   3.882   1.145  10.061 -0.6011  0.8794  1.4469
    4CHL1   H1B  268   3.796   0.989  10.077  1.1210  0.5524  0.1824
    4CHL1    C2  269   3.926   1.041  10.244  0.2787 -0.4390 -0.1120
    4CHL1   H2A  270   3.843   1.096  10.293 -0.3213  1.1567 -2.7240
    4CHL1   H2B  271   4.020   1.099  10.254  1.4508 -2.1055 -1.0672
    4CHL1   C20  272   4.025   1.040   9.301  0.0253 -0.5524 -0.0430
    4CHL1   H20  273   4.114   1.103   9.323 -0.4612  0.2773 -0.3896
    4CHL1   C21  274   3.912   1.150   9.284  0.1591 -0.6702  0.0538
    4CHL1  H21A  275   3.815   1.099   9.272 -0.9167  1.1549  0.5721
    4CHL1  H21B  276   3.938   1.219   9.200  1.9070 -2.6663 -1.1370
    4CHL1  H21C  277   3.906   1.208   9.379 -1.1962  1.2848 -1.1563
    4CHL1   C22  278   4.040   0.971   9.164 -0.6073  0.1304 -0.2960
    4CHL1  H22A  279   4.118   0.892   9.171  1.0361  1.7861  1.3417
    4CHL1  H22B  280   3.948   0.916   9.137 -0.2520 -1.0407  0.8188
    4CHL1   C23  281   4.091   1.066   9.049  0.3583 -0.2271  0.5368
    4CHL1  H23A  282   4.005   1.125   9.010  1.8901  1.1207 -0.9774
    4CHL1  H23B  283   4.177   1.128   9.084  0.2612  0.3570 -0.2269
    4CHL1   C24  284   4.140   0.989   8.924 -0.6016 -0.3018  0.1833
    4CHL1  H24A  285   4.225   0.923   8.953  0.4306  0.0055 -2.0014
    4CHL1  H24B  286   4.063   0.917   8.888 -2.7534  2.0300 -0.1582
    4CHL1   C25  287   4.209   1.074   8.816 -0.1454 -0.4644 -0.3044
    4CHL1   H25  288   4.311   1.104   8.849 -0.9259  0.3202  1.5479
    4CHL1   C26  289   4.220   0.994   8.682  0.1613 -0.2029 -0.0965
    4CHL1  H26A  290   4.275   1.060   8.612  1.0186  1.8776  2.3701
    4CHL1  H26B  291   4.275   0.899   8.698 -1.9688 -1.7244 -1.2810
    4CHL1  H26C  292   4.116   0.982   8.646  0.2330  1.1184 -0.8385
    4CHL1   C27  293   4.123   1.198   8.789  0.8928 -0.6115 -0.4588
    4CHL1  H27A  294   4.172   1.278   8.730 -0.7173  1.8897  1.3524
    4CHL1  H27B  295   4.028   1.180   8.734 -0.1735  0.8119  0.8447
    4CHL1  H27C  296   4.099   1.254   8.882 -0.7083  0.0608 -1.2317
    5CHL1    C3  297   5.596   2.849   9.897  0.2704  0.0747  0.1550
    5CHL1    H3  298   5.696   2.897   9.898 -0.2048  1.3771 -3.0516
    5CHL1    O3  299   5.541   2.833  10.026  0.0230 -0.3754 -0.3316
    5CHL1   H3'  300   5.487   2.911  10.042 -2.5058 -2.0109 -0.3312
    5CHL1    C4  301   5.496   2.945   9.826 -0.2521  0.3131 -0.3277
    5CHL1   H4A  302   5.390   2.923   9.846 -1.3353  3.5856 -1.6747
    5CHL1   H4B  303   5.515   3.044   9.874  1.5733 -0.6167  0.9878
    5CHL1    C5  304   5.523   2.957   9.677 -0.0860 -0.2002  0.2946
    5CHL1    C6  305   5.558   3.072   9.622 -0.7527 -0.5606 -0.1022
    5CHL1    H6  306   5.554   3.169   9.674  0.9882 -0.8865  0.6864
    5CHL1    C7  307   5.571   3.096   9.468 -0.1589  0.1944 -0.4268
    5CHL1   H7A  308   5.522   3.190   9.436 -1.8531 -0.7438 -0.7311
    5CHL1   H7B  309   5.678   3.106   9.442  0.0728  1.4162  0.8888
    5CHL1    C8  310   5.520   2.975   9.384  0.1138  0.1790 -0.0685
    5CHL1    H8  311   5.409   2.972   9.389  0.1045  1.2594  0.9319
    5CHL1   C14  312   5.571   2.989   9.238  0.1569 -0.8059 -0.2762
    5CHL1   H14  313   5.681   2.989   9.252  0.0603 -1.9820  0.7255
    5CHL1   C15  314   5.547   3.123   9.163  0.1053  0.2790  0.2511
    5CHL1  H15A  315   5.437   3.141   9.169  0.3737  2.3047  0.0084
    5CHL1  H15B  316   5.607   3.209   9.198  0.8808  0.0149 -0.3912
    5CHL1   C16  317   5.577   3.079   9.015  0.5975  0.2814 -0.1583
    5CHL1  H16A  318   5.489   3.091   8.949  0.0332 -1.2908  0.2589
    5CHL1  H16B  319   5.664   3.133   8.972  0.0121  0.5197 -1.0742
    5CHL1   C17  320   5.606   2.918   9.020 -0.5804 -0.5779 -0.4322
    5CHL1   H17  321   5.715   2.910   9.038 -0.8646 -2.1424  0.8392
    5CHL1   C13  322   5.540   2.868   9.144 -0.5070  0.3017 -0.6858
    5CHL1   C18  323   5.390   2.845   9.127 -0.0551 -0.6995 -0.7967
    5CHL1  H18A  324   5.343   2.834   9.227  0.3552  0.7410 -0.4292
    5CHL1  H18B  325   5.344   2.936   9.081 -0.3426 -0.0664  0.6855
    5CHL1  H18C  326   5.361   2.758   9.063 -0.2433 -0.0295 -1.6498
    5CHL1   C12  327   5.605   2.745   9.208  0.4756 -0.2845 -0.2452
    5CHL1  H12A  328   5.591   2.664   9.134 -0.2076 -0.7222  0.3455
    5CHL1  H12B  329   5.715   2.752   9.223  0.2610  2.5811  0.4719
    5CHL1   C11  330   5.553   2.713   9.349  0.2675 -0.3667  0.1828
    5CHL1  H11A  331   5.446   2.687   9.336 -0.0469  1.2689 -0.7744
    5CHL1  H11B  332   5.615   2.629   9.386  0.3375 -0.0226  0.8588
    5CHL1    C9  333   5.573   2.841   9.441 -0.0438 -0.2931 -0.0364
    5CHL1    H9  334   5.681   2.865   9.445  0.0687 -0.9005  1.3442
    5CHL1   C10  335   5.532   2.824   9.592 -0.3789  0.0848  0.9896
    5CHL1   C19  336   5.393   2.759   9.589  0.8454  0.0174 -0.1304
    5CHL1  H19A  337   5.388   2.658   9.543 -1.1044  0.3925 -0.8541
    5CHL1  H19B  338   5.342   2.764   9.687  2.3205  0.9176  0.6192
    5CHL1  H19C  339   5.332   2.822   9.520 -0.5156  0.7851  1.7066
    5CHL1    C1  340   5.636   2.737   9.673 -0.0527 -0.6690  0.4189
    5CHL1   H1A  341   5.639   2.636   9.627  2.5881 -1.1703  1.4813
    5CHL1   H1B  342   5.733   2.787   9.649 -0.6430  0.7654  0.9290
    5CHL1    C2  343   5.602   2.715   9.817 -0.0072 -0.0205 -0.9269
    5CHL1   H2A  344   5.684   2.658   9.865  0.6413 -1.4156 -3.5069
    5CHL1   H2B  345   5.507   2.657   9.820  0.6265 -1.0441 -0.5235
    5CHL1   C20  346   5.575   2.845   8.887  0.4418  0.4229  0.0376
    5CHL1   H20  347   5.534   2.745   8.912  0.2225  0.1269 -1.4021
    5CHL1   C21  348   5.712   2.807   8.826  0.1624 -0.2889 -0.4768
    5CHL1  H21A  349   5.756   2.755   8.914 -2.2960 -2.9906 -0.7063
    5CHL1  H21B  350   5.773   2.896   8.798  0.1763 -0.6311 -1.5819
    5CHL1  H21C  351   5.694   2.741   8.739 -2.3489 -0.5922  0.2043
    5CHL1   C22  352   5.486   2.922   8.782  0.2635  0.4280 -0.4195
    5CHL1  H22A  353   5.387   2.956   8.821  1.7347  1.6504  2.5571
    5CHL1  H22B  354   5.545   3.013   8.757  1.6831 -0.3263  0.0550
    5CHL1   C23  355   5.468   2.841   8.656 -0.1699  0.0210 -0.0321
    5CHL1  H23A  356   5.567   2.828   8.608 -0.5638  0.4690 -0.9818
    5CHL1  H23B  357   5.424   2.742   8.679 -0.6632  0.4538  0.9446
    5CHL1   C24  358   5.394   2.932   8.559 -0.3727 -0.5754  0.9193
    5CHL1  H24A  359   5.298   2.961   8.606 -1.3943 -0.9414 -0.8565
    5CHL1  H24B  360   5.442   3.030   8.536 -2.5010  0.9187  2.4580
    5CHL1   C25  361   5.363   2.863   8.426  0.2517 -0.0810  0.0691
    5CHL1   H25  362   5.296   2.932   8.371  0.9539 -0.0250 -0.7416
    5CHL1   C26  363   5.483   2.832   8.342 -0.5416  0.2629 -0.1115
    5CHL1  H26A  364   5.544   2.758   8.399 -1.6244 -1.8556 -1.5337
    5CHL1  H26B  365   5.463   2.778   8.246 -2.1395 -0.9697  0.8628
    5CHL1  H26C  366   5.541   2.926   8.327 -0.1216  0.0547  0.1873
    5CHL1   C27  367   5.286   2.736   8.443  0.4323 -0.1349  0.1299
    5CHL1  H27A  368   5.343   2.643   8.465  0.6296  0.4439  2.2821
    5CHL1  H27B  369   5.219   2.746   8.531  0.4378 -0.9214  0.2353
    5CHL1  H27C  370   5.217   2.723   8.357 -0.4220  1.9246  0.4424
    6CHL1    C3  371   2.691   0.520  10.367 -0.5299  0.0756  0.0232
    6CHL1    H3  372   2.609   0.508  10.293 -0.2001  0.0429 -0.3420
    6CHL1    O3  373   2.658   0.488  10.501 -0.4661  0.2567  0.3956
    6CHL1   H3'  374   2.734   0.442  10.536  0.4211 -0.8370 -2.6399
    6CHL1    C4  375   2.813   0.421  10.322  0.9395  0.1410 -0.8584
    6CHL1   H4A  376   2.891   0.424  10.401  1.3328 -1.1903 -1.1697
    6CHL1   H4B  377   2.777   0.316  10.332 -0.1836  0.6108  0.3240
    6CHL1    C5  378   2.874   0.452  10.191 -0.1169  0.2789  0.4228
    6CHL1    C6  379   2.880   0.359  10.088  0.0264  0.1320 -0.0107
    6CHL1    H6  380   2.843   0.257  10.104  1.0771 -0.1156  0.9368
    6CHL1    C7  381   2.940   0.383   9.952 -0.1925  0.2014  0.1604
    6CHL1   H7A  382   2.999   0.297   9.914  1.4000  0.6772  1.4513
    6CHL1   H7B  383   2.858   0.392   9.878  1.0385  1.8406 -1.0875
    6CHL1    C8  384   2.997   0.518   9.940  0.2996 -0.0163  0.1194
    6CHL1    H8  385   3.101   0.522   9.980  0.9460  1.7937 -1.5740
    6CHL1   C14  386   2.999   0.563   9.791 -0.3046  1.0384 -0.5263
    6CHL1   H14  387   2.894   0.568   9.757 -0.0544  0.9533 -1.3224
    6CHL1   C15  388   3.069   0.464   9.693 -0.4732  0.3512  0.3743
    6CHL1  H15A  389   3.171   0.446   9.735 -0.6791 -0.9734  0.3600
    6CHL1  H15B  390   3.027   0.364   9.672 -1.7546  0.9283  0.1128
    6CHL1   C16  391   3.101   0.552   9.572 -0.9588 -0.1840  0.6425
    6CHL1  H16A  392   3.208   0.545   9.542 -1.4281  0.5425 -1.3419
    6CHL1  H16B  393   3.044   0.532   9.478 -0.6796 -0.0575  0.4426
    6CHL1   C17  394   3.057   0.701   9.608 -0.1845 -0.3407 -0.6350
    6CHL1   H17  395   2.949   0.708   9.584 -0.3919 -2.1057 -0.3732
    6CHL1   C13  396   3.063   0.703   9.765  0.6086 -0.7414  0.1305
    6CHL1   C18  397   3.209   0.710   9.809  0.1574  0.2912 -0.2720
    6CHL1  H18A  398   3.277   0.648   9.747  0.0433 -0.1516  0.0404
    6CHL1  H18B  399   3.240   0.816   9.806  1.9924  0.0616  3.5840
    6CHL1  H18C  400   3.203   0.669   9.912 -1.2251 -2.4527 -1.3482
    6CHL1   C12  401   2.971   0.797   9.835 -1.3215  0.7618 -0.2096
    6CHL1  H12A  402   3.013   0.899   9.823  0.2146  0.2590  0.5871
    6CHL1  H12B  403   2.867   0.802   9.797 -0.6797  3.8090 -1.8922
    6CHL1   C11  404   2.974   0.773   9.986 -0.3766  0.0274 -0.3114
    6CHL1  H11A  405   3.079   0.791  10.020 -0.1457  1.7818 -1.8096
    6CHL1  H11B  406   2.913   0.851  10.036  1.1521  0.8401  0.3579
    6CHL1    C9  407   2.914   0.628  10.023  0.3250 -0.5447  0.7676
    6CHL1    H9  408   2.812   0.623   9.979  0.3179 -0.7027  0.8012
    6CHL1   C10  409   2.896   0.601  10.169 -0.3424 -0.1116 -0.8063
    6CHL1   C19  410   3.037   0.629  10.245  0.1219 -0.0759 -0.2537
    6CHL1  H19A  411   3.118   0.576  10.190  0.8135  1.0990 -0.3948
    6CHL1  H19B  412   3.050   0.738  10.235 -0.2823  0.1748  1.5834
    6CHL1  H19C  413   3.039   0.599  10.352 -0.5627 -2.8143 -0.9044
    6CHL1    C1  414   2.794   0.704  10.235 -0.5953  0.1463  0.6233
    6CHL1   H1A  415   2.827   0.810  10.237 -2.0443  0.6317  0.4896
    6CHL1   H1B  416   2.702   0.700  10.172  2.1464  1.4152 -3.8995
    6CHL1    C2  417   2.742   0.665  10.375  0.0194 -0.0817 -0.2522
    6CHL1   H2A  418   2.671   0.743  10.409  1.2333 -0.3807  3.3918
    6CHL1   H2B  419   2.827   0.674  10.445  0.8099 -1.7649 -0.9176
    6CHL1   C20  420   3.136   0.808   9.525  0.4000 -0.0042 -0.0173
    6CHL1   H20  421   3.239   0.795   9.565  0.1028  0.2621  0.8673
    6CHL1   C21  422   3.081   0.941   9.555 -0.3299 -0.5869  0.1727
    6CHL1  H21A  423   2.973   0.948   9.526 -0.2107  3.3344  0.1565
    6CHL1  H21B  424   3.133   1.022   9.500  0.7217  0.4071  2.5064
    6CHL1  H21C  425   3.088   0.977   9.659  0.5172 -0.1710 -0.0247
    6CHL1   C22  426   3.133   0.792   9.369  0.5823  0.4533  0.3136
    6CHL1  H22A  427   3.168   0.688   9.352  0.0186  0.4068 -0.5674
    6CHL1  H22B  428   3.026   0.793   9.339  0.9514  0.8038 -1.0407
    6CHL1   C23  429   3.218   0.876   9.279  0.0664 -0.0406 -0.2972
    6CHL1  H23A  430   3.194   0.985   9.284  2.1325  0.5182 -1.3179
    6CHL1  H23B  431   3.320   0.861   9.322  0.1112 -0.6353 -0.6131
    6CHL1   C24  432   3.208   0.830   9.129  0.2148 -0.9474  0.3696
    6CHL1  H24A  433   3.264   0.734   9.137  2.3633  0.3386  2.5799
    6CHL1  H24B  434   3.103   0.799   9.115 -0.3917  1.4648 -0.8225
    6CHL1   C25  435   3.266   0.913   9.018  0.5220 -0.5372  0.9880
    6CHL1   H25  436   3.360   0.960   9.054  0.1155  0.8514  0.3039
    6CHL1   C26  437   3.298   0.828   8.896 -0.2225  0.3579 -0.0445
    6CHL1  H26A  438   3.343   0.885   8.812 -0.6352 -1.1321 -1.2997
    6CHL1  H26B  439   3.377   0.753   8.915  0.1088  0.7892  0.3278
    6CHL1  H26C  440   3.208   0.779   8.853  0.9399 -2.0867  0.1497
    6CHL1   C27  441   3.174   1.024   8.970  0.0803 -0.3420 -0.1045
    6CHL1  H27A  442   3.232   1.091   8.903  0.1052 -2.0053 -1.8375
    6CHL1  H27B  443   3.095   0.975   8.908  2.4685 -4.3669 -0.3824
    6CHL1  H27C  444   3.140   1.084   9.056 -2.0020 -2.8845  0.9982
    7CHL1    C3  445   6.561   3.909  10.326  0.5255  0.2480 -0.2813
    7CHL1    H3  446   6.484   3.834  10.298  0.2407  0.1103  0.8118
    7CHL1    O3  447   6.578   3.912  10.467 -0.6629 -0.9878 -0.0116
    7CHL1   H3'  448   6.498   3.921  10.520  0.6017  2.3884  1.5887
    7CHL1    C4  449   6.691   3.881  10.250 -0.3293 -0.2721 -0.8734
    7CHL1   H4A  450   6.762   3.960  10.283  0.5345 -1.0918 -0.7277
    7CHL1   H4B  451   6.742   3.787  10.279  0.7398  0.2632 -0.9712
    7CHL1    C5  452   6.681   3.894  10.108  0.7603 -0.1058  0.0166
    7CHL1    C6  453   6.712   3.801  10.024 -0.4196 -0.1258  0.1528
    7CHL1    H6  454   6.753   3.706  10.062 -0.2675 -0.8772 -1.7952
    7CHL1    C7  455   6.693   3.802   9.874 -0.6945  0.1619 -0.4824
    7CHL1   H7A  456   6.780   3.768   9.814  1.0951  0.9426  1.5691
    7CHL1   H7B  457   6.618   3.725   9.844  1.5503 -2.0410 -0.7218
    7CHL1    C8  458   6.657   3.940   9.811  0.3017  1.0959  0.4456
    7CHL1    H8  459   6.751   3.996   9.793  0.4520  0.5735 -0.4358
    7CHL1   C14  460   6.581   3.917   9.681 -0.2381  0.2551  0.3486
    7CHL1   H14  461   6.487   3.865   9.709 -0.9141  0.4671 -1.4072
    7CHL1   C15  462   6.654   3.828   9.577 -0.7083 -0.4608 -0.2799
    7CHL1  H15A  463   6.763   3.849   9.574 -0.7339 -0.3599 -0.5085
    7CHL1  H15B  464   6.653   3.720   9.604  1.6532  0.0738  2.3628
    7CHL1   C16  465   6.588   3.865   9.451 -0.0867 -0.4314 -0.1318
    7CHL1  H16A  466   6.663   3.890   9.373 -1.5978  2.7460 -0.7381
    7CHL1  H16B  467   6.524   3.779   9.423 -0.9633  0.1458  0.0622
    7CHL1   C17  468   6.502   3.997   9.472 -0.3869  0.7739  0.1256
    7CHL1   H17  469   6.398   3.962   9.490  0.3823 -0.8282  1.8275
    7CHL1   C13  470   6.549   4.047   9.604  0.1406  0.2199 -0.1151
    7CHL1   C18  471   6.674   4.134   9.569 -0.3288  0.3256 -0.3516
    7CHL1  H18A  472   6.638   4.233   9.536 -1.9369 -0.5211 -1.2722
    7CHL1  H18B  473   6.736   4.150   9.660  0.8278 -3.1644 -0.3657
    7CHL1  H18C  474   6.746   4.078   9.506 -0.6642 -1.0266  0.4210
    7CHL1   C12  475   6.454   4.132   9.696 -0.1674 -0.0948 -0.8011
    7CHL1  H12A  476   6.420   4.235   9.671 -1.1462  0.1790  1.4072
    7CHL1  H12B  477   6.360   4.075   9.710 -1.2600  1.8070 -0.0424
    7CHL1   C11  478   6.526   4.153   9.836  1.0931 -0.2760  0.5960
    7CHL1  H11A  479   6.611   4.222   9.820 -1.8716  3.3323 -1.0089
    7CHL1  H11B  480   6.454   4.203   9.904 -0.3596 -0.8354 -0.4861
    7CHL1    C9  481   6.561   4.022   9.904 -0.3697 -0.2880  0.1134
    7CHL1    H9  482   6.467   3.963   9.914 -1.6226  1.4622 -0.9668
    7CHL1   C10  483   6.616   4.033  10.053 -0.3583  0.2044  0.1889
    7CHL1   C19  484   6.719   4.144  10.058 -0.5323 -0.4128 -0.2684
    7CHL1  H19A  485   6.753   4.168  10.161 -0.5311  0.0329 -0.3703
    7CHL1  H19B  486   6.809   4.115   9.999 -1.5181 -1.8237 -1.1274
    7CHL1  H19C  487   6.685   4.242  10.019  2.2013  1.6923  2.1553
    7CHL1    C1  488   6.492   4.070  10.136  0.2169  0.0998 -0.2851
    7CHL1   H1A  489   6.459   4.175  10.121  0.6874  0.2839 -0.0463
    7CHL1   H1B  490   6.411   3.999  10.110  0.3734 -0.0755 -0.2929
    7CHL1    C2  491   6.510   4.051  10.288  0.2903 -0.0116 -0.2178
    7CHL1   H2A  492   6.415   4.072  10.343  0.1258  0.7804 -0.7891
    7CHL1   H2B  493   6.580   4.129  10.322 -0.2231 -0.3004  1.5969
    7CHL1   C20  494   6.503   4.082   9.345 -0.0618 -0.0181  0.7253
    7CHL1   H20  495   6.609   4.108   9.325 -0.2078  0.5940  0.7539
    7CHL1   C21  496   6.413   4.204   9.363  0.1131  0.4891  0.0585
    7CHL1  H21A  497   6.304   4.185   9.375  0.3622 -2.7438 -1.6040
    7CHL1  H21B  498   6.425   4.259   9.268  0.1882 -0.9117 -0.7572
    7CHL1  H21C  499   6.452   4.262   9.450  0.0585  0.2736  0.2287
    7CHL1   C22  500   6.459   4.000   9.220  0.4207 -0.3584  0.3257
    7CHL1  H22A  501   6.520   3.908   9.219  1.0692  0.0634  0.0218
    7CHL1  H22B  502   6.350   3.977   9.231 -0.1122  2.5728  2.4538
    7CHL1   C23  503   6.474   4.079   9.085  0.0069 -0.1055 -0.4196
    7CHL1  H23A  504   6.412   4.025   9.010  0.7455 -1.5534 -0.0278
    7CHL1  H23B  505   6.440   4.184   9.088  0.9531  0.1906  0.1838
    7CHL1   C24  506   6.621   4.073   9.040  0.0578  0.0132  0.7745
    7CHL1  H24A  507   6.687   4.101   9.125  2.5535  1.6795 -1.5228
    7CHL1  H24B  508   6.656   3.971   9.013  0.0948 -0.7722  3.4678
    7CHL1   C25  509   6.644   4.185   8.940 -0.4818 -0.1168  0.2101
    7CHL1   H25  510   6.596   4.269   8.994 -0.3129 -0.0228  0.2170
    7CHL1   C26  511   6.791   4.218   8.929 -0.7107 -0.1718 -0.1380
    7CHL1  H26A  512   6.796   4.320   8.884  0.4960 -0.6876 -1.2308
    7CHL1  H26B  513   6.831   4.232   9.031 -2.0274  1.0782  0.2420
    7CHL1  H26C  514   6.856   4.153   8.867 -0.6915  1.4767 -1.9685
    7CHL1   C27  515   6.588   4.151   8.797 -0.7061 -0.0535 -0.2094
    7CHL1  H27A  516   6.600   4.233   8.723 -0.7943 -0.6977 -0.9451
    7CHL1  H27B  517   6.641   4.066   8.748  0.7879  1.2522 -0.9702
    7CHL1  H27C  518   6.480   4.130   8.808 -1.4464  3.0255 -0.6181
    8CHL1    C3  519   5.944   0.656  10.321 -0.2935 -0.0241 -0.4574
    8CHL1    H3  520   5.835   0.676  10.334 -0.2381 -0.0171  0.0107
    8CHL1    O3  521   6.010   0.628  10.451  0.1348 -0.2880  0.3738
    8CHL1   H3'  522   6.098   0.594  10.433 -0.9332 -2.1775 -1.7396
    8CHL1    C4  523   5.965   0.532  10.231  0.2093  0.3051  1.0086
    8CHL1   H4A  524   6.075   0.519  10.220 -0.0117 -0.4631 -0.6778
    8CHL1   H4B  525   5.906   0.443  10.263 -0.0501  0.3396  0.6297
    8CHL1    C5  526   5.912   0.572  10.093  0.5035 -0.4147 -0.1699
    8CHL1    C6  527   5.815   0.496  10.037 -0.6884  0.8813  0.5973
    8CHL1    H6  528   5.767   0.410  10.085 -2.5903  1.7699  0.3535
    8CHL1    C7  529   5.779   0.508   9.895  0.2529 -0.1591 -0.3549
    8CHL1   H7A  530   5.793   0.407   9.851  1.8166 -0.3287  0.4760
    8CHL1   H7B  531   5.673   0.540   9.885  0.0054 -0.0779  2.0754
    8CHL1    C8  532   5.872   0.606   9.816 -0.4343 -0.1383 -0.2660
    8CHL1    H8  533   5.970   0.555   9.804 -0.3674 -1.2012  3.4595
    8CHL1   C14  534   5.814   0.643   9.682 -0.1481  0.2091  0.4486
    8CHL1   H14  535   5.712   0.684   9.697 -0.7457 -0.2836 -1.9201
    8CHL1   C15  536   5.783   0.525   9.588  0.2457  0.3269 -0.3885
    8CHL1  H15A  537   5.862   0.447   9.590 -0.6031 -0.5411  0.5254
    8CHL1  H15B  538   5.691   0.478   9.627 -0.1153  0.5683 -0.9371
    8CHL1   C16  539   5.763   0.590   9.450  0.8783  0.4473 -1.0639
    8CHL1  H16A  540   5.828   0.540   9.374 -1.2052 -1.3163 -1.7987
    8CHL1  H16B  541   5.663   0.548   9.428  0.1528  2.0018 -0.8197
    8CHL1   C17  542   5.777   0.742   9.466 -0.3352  0.1919 -0.4136
    8CHL1   H17  543   5.681   0.787   9.500  0.1173  0.8997 -0.0484
    8CHL1   C13  544   5.869   0.747   9.597  0.7519 -0.6486 -0.2958
    8CHL1   C18  545   6.016   0.720   9.546  0.5751 -0.3610  0.1184
    8CHL1  H18A  546   6.078   0.811   9.530  2.9405 -1.5457  1.8539
    8CHL1  H18B  547   6.080   0.675   9.626 -0.5260  0.3690  1.4621
    8CHL1  H18C  548   6.020   0.655   9.456  0.2633 -1.4127  0.8402
    8CHL1   C12  549   5.867   0.876   9.680 -0.0119 -0.0035 -0.1282
    8CHL1  H12A  550   5.907   0.961   9.621  2.2915 -0.7106  0.3105
    8CHL1  H12B  551   5.768   0.912   9.716  0.8980  0.5511  1.9340
    8CHL1   C11  552   5.950   0.850   9.807  0.7179  0.2569  0.6372
    8CHL1  H11A  553   6.055   0.844   9.770  0.6857 -1.5643  0.7660
    8CHL1  H11B  554   5.938   0.942   9.868  1.7766  0.6594  0.2630
    8CHL1    C9  555   5.895   0.742   9.893  0.1379  0.7300 -0.4980
    8CHL1    H9  556   5.796   0.787   9.915 -0.0854  1.1208 -2.1194
    8CHL1   C10  557   5.972   0.702  10.025 -0.2353 -0.1387  0.0155
    8CHL1   C19  558   6.123   0.684   9.991 -0.3900 -0.3024  0.5554
    8CHL1  H19A  559   6.183   0.654  10.080 -1.2985  0.3133  1.4091
    8CHL1  H19B  560   6.134   0.609   9.910 -0.3435 -0.7486  0.9695
    8CHL1  H19C  561   6.167   0.776   9.947 -2.3535 -0.0910 -1.0809
    8CHL1    C1  562   5.957   0.816  10.129 -0.1907  0.6630 -0.4556
    8CHL1   H1A  563   6.011   0.897  10.076  1.4060 -1.0459 -1.5585
    8CHL1   H1B  564   5.854   0.856  10.140 -0.2752  0.5712 -0.9083
    8CHL1    C2  565   6.012   0.781  10.265 -0.4406  0.5974  0.3209
    8CHL1   H2A  566   6.007   0.865  10.337  1.1877  0.7185  0.3175
    8CHL1   H2B  567   6.122   0.770  10.265 -0.4245  0.7163 -0.3748
    8CHL1   C20  568   5.818   0.811   9.329 -0.0079 -0.0813  0.1656
    8CHL1   H20  569   5.922   0.771   9.317 -0.1401 -0.0995 -0.9886
    8CHL1   C21  570   5.832   0.960   9.362  0.0611 -0.5806 -0.1630
    8CHL1  H21A  571   5.910   0.983   9.437 -0.8060 -0.8891  0.8498
    8CHL1  H21B  572   5.736   1.010   9.389 -1.0579 -2.8228  0.2037
    8CHL1  H21C  573   5.864   1.014   9.270 -0.9723  1.8843  0.8407
    8CHL1   C22  574   5.734   0.777   9.203  0.6904  0.2669 -0.0725
    8CHL1  H22A  575   5.737   0.666   9.195  0.2917  0.1468  1.2002
    8CHL1  H22B  576   5.626   0.799   9.219 -0.2714 -3.3872 -0.5837
    8CHL1   C23  577   5.771   0.850   9.075 -0.5770 -0.2834  0.5453
    8CHL1  H23A  578   5.709   0.941   9.068  0.8841  0.6661 -0.7213
    8CHL1  H23B  579   5.877   0.884   9.084 -1.7038  3.5345  1.0003
    8CHL1   C24  580   5.753   0.763   8.952 -0.0291  0.1926 -0.1164
    8CHL1  H24A  581   5.795   0.662   8.972 -1.4920 -0.9962 -2.6350
    8CHL1  H24B  582   5.644   0.750   8.935  0.1152  1.2661 -2.1375
    8CHL1   C25  583   5.803   0.814   8.819  0.0090 -0.4999  0.9888
    8CHL1   H25  584   5.914   0.812   8.830  0.5090 -2.7509 -2.7484
    8CHL1   C26  585   5.763   0.712   8.705 -0.9562  0.4463 -0.1159
    8CHL1  H26A  586   5.654   0.715   8.682 -1.0407  0.1342  0.2452
    8CHL1  H26B  587   5.819   0.736   8.612 -0.4116 -2.7322 -0.7058
    8CHL1  H26C  588   5.800   0.614   8.741 -2.3166  0.7602  2.3380
    8CHL1   C27  589   5.752   0.953   8.789  0.4860 -0.0773  0.0349
    8CHL1  H27A  590   5.644   0.956   8.814 -0.4429 -0.8842 -3.3671
    8CHL1  H27B  591   5.799   1.035   8.847 -1.2919 -0.4163  2.0961
    8CHL1  H27C  592   5.764   0.983   8.683  0.6692 -0.2003  0.0200
    9CHL1    C3  593   2.434   2.901   9.924 -0.6873 -0.2288  0.1832
    9CHL1    H3  594   2.355   2.975   9.899 -0.3905  0.3037  0.7939
    9CHL1    O3  595   2.433   2.869  10.063 -0.2675 -0.4782  0.3310
    9CHL1   H3'  596   2.454   2.775  10.062  0.4897 -0.3683  1.8805
    9CHL1    C4  597   2.420   2.774   9.834 -0.4729 -0.0014 -0.3514
    9CHL1   H4A  598   2.504   2.710   9.869 -0.4201  0.4022  0.2744
    9CHL1   H4B  599   2.326   2.720   9.861 -0.5447 -0.4834 -1.5293
    9CHL1    C5  600   2.429   2.806   9.687  0.1495 -0.4060 -0.0894
    9CHL1    C6  601   2.320   2.774   9.613  0.5680 -0.1143 -0.5465
    9CHL1    H6  602   2.234   2.717   9.653  0.2383  2.4606  2.9044
    9CHL1    C7  603   2.304   2.820   9.471 -0.1248  0.5392  0.6351
    9CHL1   H7A  604   2.273   2.736   9.405 -2.1197  1.7144  0.0022
    9CHL1   H7B  605   2.231   2.904   9.464  1.7698  2.1431 -1.4393
    9CHL1    C8  606   2.434   2.879   9.414  0.2421 -0.2361 -1.2213
    9CHL1    H8  607   2.487   2.785   9.387 -2.5813 -1.5324 -2.6798
    9CHL1   C14  608   2.422   2.952   9.286 -1.0284 -0.5126 -0.5127
    9CHL1   H14  609   2.371   3.049   9.302  0.2160  0.2013 -0.7987
    9CHL1   C15  610   2.333   2.883   9.175  0.3987 -0.3908 -0.2542
    9CHL1  H15A  611   2.372   2.779   9.166  1.0399 -0.1008 -0.8819
    9CHL1  H15B  612   2.230   2.893   9.217  0.7121  1.3866  0.1578
    9CHL1   C16  613   2.359   2.971   9.055  1.1364 -0.3401 -0.1074
    9CHL1  H16A  614   2.394   2.911   8.968  2.2460  1.7765 -1.2124
    9CHL1  H16B  615   2.279   3.046   9.037 -0.9703 -1.4482  3.7127
    9CHL1   C17  616   2.484   3.061   9.088 -0.1627  0.8442  0.4576
    9CHL1   H17  617   2.446   3.162   9.113  0.5150  1.4730 -0.9370
    9CHL1   C13  618   2.548   2.997   9.216 -0.2622  0.1018  0.2036
    9CHL1   C18  619   2.642   2.879   9.170  0.1386  0.5333 -0.1638
    9CHL1  H18A  620   2.586   2.836   9.085 -0.2926  0.7023  0.0292
    9CHL1  H18B  621   2.743   2.913   9.137  0.2371 -1.6130 -2.3527
    9CHL1  H18C  622   2.647   2.795   9.242 -4.6121  0.8718  0.9153
    9CHL1   C12  623   2.622   3.095   9.310 -0.0930 -0.6542  0.4924
    9CHL1  H12A  624   2.717   3.131   9.265 -0.5245  0.4844  0.4711
    9CHL1  H12B  625   2.561   3.187   9.323 -1.2121 -1.3439  0.2472
    9CHL1   C11  626   2.645   3.024   9.447 -0.4494 -0.2117  0.2689
    9CHL1  H11A  627   2.719   2.943   9.432 -1.6730 -1.0654 -1.4336
    9CHL1  H11B  628   2.695   3.091   9.520 -1.6977  0.1192  0.8561
    9CHL1    C9  629   2.513   2.965   9.515 -0.0265  0.2928  0.9314
    9CHL1    H9  630   2.447   3.053   9.526 -0.7244 -0.2468  1.1295
    9CHL1   C10  631   2.545   2.897   9.645  0.0030  0.1965  0.2695
    9CHL1   C19  632   2.671   2.813   9.634  0.0262  0.0532 -0.3541
    9CHL1  H19A  633   2.679   2.757   9.729 -1.9984  0.5998  0.2014
    9CHL1  H19B  634   2.660   2.741   9.550 -2.2045  0.6333 -0.6373
    9CHL1  H19C  635   2.764   2.873   9.632  0.8652 -1.2102  0.2029
    9CHL1    C1  636   2.578   3.005   9.759 -0.2971  0.8552 -0.0411
    9CHL1   H1A  637   2.674   3.054   9.733  0.8538 -2.4529 -2.7692
    9CHL1   H1B  638   2.501   3.084   9.753 -2.7070 -1.4049 -0.9129
    9CHL1    C2  639   2.580   2.947   9.897 -0.0438  0.1216 -0.3348
    9CHL1   H2A  640   2.614   3.036   9.954 -0.3517  1.4977 -2.1936
    9CHL1   H2B  641   2.656   2.866   9.902 -1.4651 -1.2599  0.0540
    9CHL1   C20  642   2.574   3.078   8.956 -0.0983 -0.4621 -0.7806
    9CHL1   H20  643   2.629   2.983   8.938  2.1422  0.8641 -1.3347
    9CHL1   C21  644   2.685   3.182   8.979 -0.4193 -0.1502  0.1148
    9CHL1  H21A  645   2.749   3.183   8.888 -0.7523 -0.3204 -0.1236
    9CHL1  H21B  646   2.735   3.166   9.077 -1.1729  1.5373  0.8191
    9CHL1  H21C  647   2.636   3.281   8.995 -2.1697 -0.9604  0.0947
    9CHL1   C22  648   2.497   3.113   8.821  0.5311  0.1172  0.0167
    9CHL1  H22A  649   2.555   3.135   8.729 -1.7310 -0.0296 -1.5143
    9CHL1  H22B  650   2.439   3.020   8.803  0.9810 -0.0054 -0.8496
    9CHL1   C23  651   2.394   3.226   8.834  0.6420 -0.4414 -0.8449
    9CHL1  H23A  652   2.305   3.191   8.890  1.8666  0.8509  2.0975
    9CHL1  H23B  653   2.447   3.308   8.887 -2.2112  0.5004  0.7652
    9CHL1   C24  654   2.344   3.291   8.699 -1.0481  0.5361  0.1607
    9CHL1  H24A  655   2.437   3.295   8.638  0.1571 -1.1381  1.7634
    9CHL1  H24B  656   2.289   3.216   8.639  1.5334 -1.4754  0.1213
    9CHL1   C25  657   2.267   3.430   8.703 -0.4178 -0.4016  0.3912
    9CHL1   H25  658   2.315   3.499   8.775 -1.1461  0.8066 -0.2608
    9CHL1   C26  659   2.266   3.502   8.565 -0.5850 -0.5027 -0.2885
    9CHL1  H26A  660   2.370   3.516   8.529 -0.1415 -1.1191  0.6894
    9CHL1  H26B  661   2.216   3.443   8.486  1.0596 -1.5311 -0.6124
    9CHL1  H26C  662   2.216   3.600   8.554  0.1681 -0.1138 -0.3243
    9CHL1   C27  663   2.123   3.411   8.760  0.2298  0.6819  0.6791
    9CHL1  H27A  664   2.130   3.360   8.859 -0.4680  1.7451  1.2865
    9CHL1  H27B  665   2.061   3.500   8.779  3.1113  2.2311  3.8338
    9CHL1  H27C  666   2.064   3.346   8.692  0.3102 -0.4844  1.6786
   10CHL1    C3  667   1.081   0.154   9.948 -0.7101  0.1163  0.1924
   10CHL1    H3  668   1.035   0.054   9.928  2.7955 -1.1025 -3.0608
   10CHL1    O3  669   1.096   0.182  10.089  0.1997 -0.0519  0.3799
   10CHL1   H3'  670   1.104   0.276  10.102 -1.2102  0.0206  0.8103
   10CHL1    C4  671   1.225   0.156   9.878  0.2106 -0.1538  0.3414
   10CHL1   H4A  672   1.271   0.256   9.893 -0.2146  0.2156 -0.7658
   10CHL1   H4B  673   1.283   0.078   9.931  0.5630 -1.6828 -2.1394
   10CHL1    C5  674   1.230   0.137   9.728  0.7517 -0.1237  1.2359
   10CHL1    C6  675   1.303   0.051   9.666  0.1590  0.0091  0.3019
   10CHL1    H6  676   1.378  -0.005   9.724  2.1735 -0.1139 -2.2514
   10CHL1    C7  677   1.309   0.024   9.513 -0.3752 -0.0556 -0.1580
   10CHL1   H7A  678   1.413   0.033   9.476 -0.6333 -0.8833 -1.1270
   10CHL1   H7B  679   1.268  -0.079   9.504  1.6424 -1.0816  1.5369
   10CHL1    C8  680   1.221   0.132   9.438 -0.7923 -0.4208 -0.0996
   10CHL1    H8  681   1.292   0.217   9.428 -0.7437 -0.5848 -1.2801
   10CHL1   C14  682   1.193   0.085   9.298  0.4679  0.5195  0.1759
   10CHL1   H14  683   1.118   0.004   9.307 -0.1362  0.9995 -0.4147
   10CHL1   C15  684   1.304   0.023   9.214 -0.0243 -0.4485 -0.4537
   10CHL1  H15A  685   1.401   0.077   9.213 -0.7244  0.8620 -0.0478
   10CHL1  H15B  686   1.326  -0.083   9.241  0.0019  0.4138  3.5611
   10CHL1   C16  687   1.255   0.036   9.065 -0.1862  0.9560  0.3516
   10CHL1  H16A  688   1.328   0.095   9.005  0.4154 -0.5548 -0.4616
   10CHL1  H16B  689   1.252  -0.059   9.009 -2.1224  2.0263 -1.5217
   10CHL1   C17  690   1.111   0.101   9.074 -0.0903  0.6263  0.3366
   10CHL1   H17  691   1.057   0.007   9.099  1.4459 -0.6925 -1.0360
   10CHL1   C13  692   1.112   0.183   9.206 -0.1251  0.5791 -0.3461
   10CHL1   C18  693   1.186   0.316   9.184 -0.2684 -0.2373  0.7677
   10CHL1  H18A  694   1.114   0.377   9.125 -2.3698 -0.2973  3.0989
   10CHL1  H18B  695   1.199   0.366   9.282  1.6489  3.2864 -1.1131
   10CHL1  H18C  696   1.287   0.307   9.141  0.9500 -0.5177  3.4957
   10CHL1   C12  697   0.973   0.214   9.280  0.6507 -0.4131  0.0381
   10CHL1  H12A  698   0.918   0.295   9.227  0.6556 -0.7693 -0.5197
   10CHL1  H12B  699   0.911   0.122   9.277  1.5358 -1.0258 -0.0410
   10CHL1   C11  700   0.992   0.266   9.426 -0.3688  0.1713  0.4258
   10CHL1  H11A  701   1.033   0.369   9.422  0.7992 -0.2800 -3.5812
   10CHL1  H11B  702   0.892   0.261   9.475  0.3621 -0.2153  1.9347
   10CHL1    C9  703   1.088   0.171   9.511  0.6468  0.9834 -0.4580
   10CHL1    H9  704   1.037   0.073   9.511  1.8715  0.3276 -0.3722
   10CHL1   C10  705   1.117   0.215   9.658  0.2015  0.1990 -0.1947
   10CHL1   C19  706   1.165   0.370   9.643  0.4157  0.1080 -0.9597
   10CHL1  H19A  707   1.201   0.407   9.742  2.0023  0.3570 -1.6071
   10CHL1  H19B  708   1.243   0.391   9.568 -0.6909  1.3005 -1.8194
   10CHL1  H19C  709   1.079   0.437   9.621  0.4317  1.0858  1.5971
   10CHL1    C1  710   0.983   0.211   9.740 -0.4602  0.1217  0.2699
   10CHL1   H1A  711   0.917   0.293   9.704  0.0855 -0.0435 -1.1936
   10CHL1   H1B  712   0.933   0.112   9.740 -1.0007  0.3885  0.5048
   10CHL1    C2  713   0.996   0.249   9.889  0.3247  0.5904 -0.0502
   10CHL1   H2A  714   0.895   0.247   9.936  0.5113 -1.1655  0.3616
   10CHL1   H2B  715   1.045   0.348   9.891  0.8226  0.3324  0.5309
   10CHL1   C20  716   1.074   0.169   8.940  0.3648  0.0957 -0.8448
   10CHL1   H20  717   1.148   0.250   8.921  0.6258  0.0659  0.0045
   10CHL1   C21  718   0.928   0.232   8.962 -0.6563  0.8089 -0.2004
   10CHL1  H21A  719   0.875   0.261   8.868 -1.6409  1.0629  0.4197
   10CHL1  H21B  720   0.944   0.327   9.017 -0.6121  0.9825 -0.5071
   10CHL1  H21C  721   0.860   0.164   9.018  0.0012  2.1578  2.3965
   10CHL1   C22  722   1.063   0.070   8.822 -0.1171 -0.6892  0.4252
   10CHL1  H22A  723   1.170   0.042   8.805  0.8303  0.4782  3.6880
   10CHL1  H22B  724   0.996  -0.014   8.850 -2.2189  0.5627 -0.6177
   10CHL1   C23  725   1.006   0.127   8.693 -0.2493 -1.0668  0.8087
   10CHL1  H23A  726   0.898   0.148   8.708 -0.4024  1.0014 -2.3604
   10CHL1  H23B  727   1.047   0.228   8.671 -3.8624 -0.1049 -2.7402
   10CHL1   C24  728   1.018   0.030   8.579 -0.4089 -0.3302  0.0297
   10CHL1  H24A  729   1.127   0.014   8.564  0.1904  2.3848  0.8722
   10CHL1  H24B  730   0.968  -0.067   8.600 -0.3497 -1.0302 -2.6592
   10CHL1   C25  731   0.967   0.080   8.438  0.5667 -0.6632  0.6525
   10CHL1   H25  732   1.013   0.177   8.412 -0.7129  0.3551  2.0508
   10CHL1   C26  733   1.010  -0.026   8.327  0.0514 -0.2161 -0.4324
   10CHL1  H26A  734   0.944  -0.114   8.340 -0.5979  0.5293  1.6642
   10CHL1  H26B  735   0.983   0.010   8.225 -1.3169 -1.7081 -0.6299
   10CHL1  H26C  736   1.118  -0.048   8.342 -0.3723 -0.4859  2.9146
   10CHL1   C27  737   0.815   0.108   8.433 -0.1388  0.1694  0.1774
   10CHL1  H27A  738   0.781   0.123   8.328 -0.5468 -2.0439 -0.0525
   10CHL1  H27B  739   0.763   0.015   8.462 -0.8743  1.0709  1.9033
   10CHL1  H27C  740   0.780   0.177   8.513  0.6832  0.4505  0.3077
   11CHL1    C3  741   3.729   2.564  10.137  0.5951  0.2724 -0.3616
   11CHL1    H3  742   3.751   2.456  10.129  2.4106  0.6531 -0.9156
   11CHL1    O3  743   3.752   2.603  10.274  1.2634 -0.0067 -0.3037
   11CHL1   H3'  744   3.714   2.691  10.273 -0.9500 -0.8738 -1.7772
   11CHL1    C4  745   3.841   2.635  10.055  1.1353 -0.1844  0.1384
   11CHL1   H4A  746   3.849   2.739  10.093 -0.7087 -0.6604  2.0728
   11CHL1   H4B  747   3.936   2.587  10.087  0.9838 -0.6020 -0.0336
   11CHL1    C5  748   3.819   2.612   9.904  0.2796 -0.1050 -0.0077
   11CHL1    C6  749   3.914   2.561   9.827  0.7738 -0.4205  0.0612
   11CHL1    H6  750   4.014   2.562   9.873  0.1841  1.5540  1.4726
   11CHL1    C7  751   3.897   2.551   9.681 -1.0636 -0.8330 -0.4653
   11CHL1   H7A  752   3.983   2.591   9.624 -0.9595  0.3622  0.4857
   11CHL1   H7B  753   3.897   2.444   9.653  0.0282 -0.4707 -1.9736
   11CHL1    C8  754   3.770   2.627   9.629 -0.1860 -0.2512  0.4128
   11CHL1    H8  755   3.784   2.737   9.622  0.2484 -0.2917  0.6504
   11CHL1   C14  756   3.729   2.580   9.491  0.0329  0.3552  0.4476
   11CHL1   H14  757   3.694   2.475   9.494 -1.5201  0.8589  3.4393
   11CHL1   C15  758   3.846   2.580   9.392  0.1301 -0.9661 -0.5415
   11CHL1  H15A  759   3.922   2.657   9.420 -1.4695  0.4938 -0.0259
   11CHL1  H15B  760   3.894   2.481   9.407  0.6880 -0.5858  0.2561
   11CHL1   C16  761   3.783   2.604   9.253 -0.5002 -0.0460 -0.2919
   11CHL1  H16A  762   3.810   2.700   9.205 -1.0208  1.8399  2.9195
   11CHL1  H16B  763   3.803   2.516   9.188  1.5983 -1.1474  1.7022
   11CHL1   C17  764   3.630   2.604   9.273 -0.0806 -0.1697  0.5322
   11CHL1   H17  765   3.594   2.499   9.263  0.7523 -0.2968 -1.6078
   11CHL1   C13  766   3.622   2.655   9.418  0.1786 -0.3169 -0.6730
   11CHL1   C18  767   3.659   2.808   9.428  0.2813 -0.0456  0.3526
   11CHL1  H18A  768   3.765   2.820   9.396  0.5251  0.6872  1.3820
   11CHL1  H18B  769   3.595   2.871   9.362  0.0034  2.1984  2.6084
   11CHL1  H18C  770   3.648   2.840   9.534 -2.1142 -1.0183  0.4486
   11CHL1   C12  771   3.497   2.619   9.504  0.6621 -0.4796 -0.4163
   11CHL1  H12A  772   3.412   2.680   9.469  0.4676 -1.1760 -1.1818
   11CHL1  H12B  773   3.457   2.516   9.496 -2.7727  0.4721  2.1545
   11CHL1   C11  774   3.508   2.644   9.655 -0.7954 -0.1131  0.0653
   11CHL1  H11A  775   3.502   2.754   9.653 -3.6351 -0.2091 -0.6436
   11CHL1  H11B  776   3.419   2.608   9.712 -0.6450  0.3303  0.5887
   11CHL1    C9  777   3.646   2.597   9.717 -0.2161 -0.3081 -0.4352
   11CHL1    H9  778   3.644   2.486   9.723 -0.2405 -0.2732  0.2686
   11CHL1   C10  779   3.671   2.646   9.862 -0.3341  0.3168  0.0784
   11CHL1   C19  780   3.646   2.803   9.868 -0.0033 -0.2814  0.0111
   11CHL1  H19A  781   3.676   2.836   9.970  0.5774  0.2018 -0.3047
   11CHL1  H19B  782   3.719   2.828   9.788 -0.7516  0.6394 -0.4114
   11CHL1  H19C  783   3.539   2.823   9.848 -0.3112 -1.1668  0.7204
   11CHL1    C1  784   3.569   2.573   9.958  0.6866 -0.1459  0.2225
   11CHL1   H1A  785   3.464   2.593   9.929  0.8669 -1.1733 -1.2007
   11CHL1   H1B  786   3.583   2.465   9.938  2.3830 -0.2620  1.7344
   11CHL1    C2  787   3.579   2.605  10.104 -0.0006  0.4181 -0.3517
   11CHL1   H2A  788   3.512   2.552  10.174  0.5762  0.3228  0.1274
   11CHL1   H2B  789   3.567   2.715  10.119  2.1918  0.4241  1.8999
   11CHL1   C20  790   3.547   2.684   9.167 -0.3816  0.5916 -0.6024
   11CHL1   H20  791   3.599   2.782   9.157  1.0950  0.0830  1.3163
   11CHL1   C21  792   3.402   2.708   9.205  0.6957  0.0150  0.0140
   11CHL1  H21A  793   3.329   2.749   9.131  0.6128 -0.4125 -0.1418
   11CHL1  H21B  794   3.395   2.786   9.284  0.0734  0.5133 -0.5175
   11CHL1  H21C  795   3.356   2.609   9.224  0.0145 -0.1060 -1.9685
   11CHL1   C22  796   3.560   2.614   9.027  0.2583  0.4050  0.8820
   11CHL1  H22A  797   3.665   2.590   9.002  0.4863 -1.2863  3.1476
   11CHL1  H22B  798   3.497   2.523   9.035  1.0023 -0.0005  2.5642
   11CHL1   C23  799   3.517   2.697   8.905 -0.2636  0.1083  0.1570
   11CHL1  H23A  800   3.411   2.715   8.934 -0.2093  0.5130  0.1154
   11CHL1  H23B  801   3.581   2.787   8.914 -0.8031  0.3450  2.0657
   11CHL1   C24  802   3.520   2.606   8.777 -0.2127 -0.0003  0.7756
   11CHL1  H24A  803   3.611   2.544   8.788 -1.5242 -2.7186 -2.2016
   11CHL1  H24B  804   3.431   2.541   8.762 -0.9527  0.9369  0.9330
   11CHL1   C25  805   3.547   2.681   8.639  0.5664 -0.3812 -0.2959
   11CHL1   H25  806   3.647   2.726   8.657  0.8343 -1.2666  0.5136
   11CHL1   C26  807   3.548   2.593   8.517 -0.2585  0.1524  0.3686
   11CHL1  H26A  808   3.649   2.550   8.507  0.0974  0.4825  2.1746
   11CHL1  H26B  809   3.474   2.510   8.524  1.4992 -1.3672  2.1726
   11CHL1  H26C  810   3.533   2.658   8.428 -0.6117 -0.3479  0.0561
   11CHL1   C27  811   3.446   2.787   8.627 -0.0194 -0.3057  0.5020
   11CHL1  H27A  812   3.456   2.874   8.694  0.8762  3.1816 -3.7256
   11CHL1  H27B  813   3.447   2.830   8.524  0.1100 -1.9452 -0.2240
   11CHL1  H27C  814   3.343   2.744   8.633 -1.4725  2.9798  1.3396
   12CHL1    C3  815   5.588   0.003  10.389  0.0064  0.1194  0.4910
   12CHL1    H3  816   5.481  -0.017  10.364  0.6997 -0.8487 -2.0293
   12CHL1    O3  817   5.599   0.020  10.527 -0.5303 -0.3576 -0.7131
   12CHL1   H3'  818   5.585  -0.067  10.565 -1.1506 -0.4839 -1.2154
   12CHL1    C4  819   5.654  -0.128  10.358 -0.7961  0.2604 -1.4162
   12CHL1   H4A  820   5.764  -0.121  10.375 -0.9464 -1.6064  0.7295
   12CHL1   H4B  821   5.614  -0.205  10.427  2.8498  0.6021  1.3949
   12CHL1    C5  822   5.623  -0.160  10.215 -0.5605  0.7992 -0.7509
   12CHL1    C6  823   5.538  -0.260  10.170 -0.0865 -0.5278  0.1225
   12CHL1    H6  824   5.477  -0.317  10.242  0.6142  0.0243  1.1872
   12CHL1    C7  825   5.510  -0.294  10.028 -0.4816  0.6186  0.0051
   12CHL1   H7A  826   5.546  -0.398  10.012  2.4680  1.6861 -1.0315
   12CHL1   H7B  827   5.401  -0.295  10.008 -0.6801 -0.9614  1.0128
   12CHL1    C8  828   5.598  -0.223   9.925  0.6988  0.2796  0.4121
   12CHL1    H8  829   5.700  -0.268   9.927  1.3521  1.7254  1.8170
   12CHL1   C14  830   5.526  -0.213   9.793  0.3283 -0.2758  0.0059
   12CHL1   H14  831   5.430  -0.159   9.808  1.0854  0.2414  3.9895
   12CHL1   C15  832   5.479  -0.351   9.742  0.0869 -0.2007  0.3192
   12CHL1  H15A  833   5.545  -0.437   9.768  0.1892  0.3134  1.8553
   12CHL1  H15B  834   5.385  -0.378   9.795 -0.1972  2.0379  1.0592
   12CHL1   C16  835   5.472  -0.324   9.591 -0.4635  0.4434 -0.4419
   12CHL1  H16A  836   5.533  -0.403   9.541 -1.6978 -1.6072  1.1165
   12CHL1  H16B  837   5.372  -0.336   9.544  0.1678 -2.8655 -1.2543
   12CHL1   C17  838   5.508  -0.174   9.562  0.0651 -0.7875 -0.2599
   12CHL1   H17  839   5.414  -0.115   9.573  0.7241 -0.0594  1.9820
   12CHL1   C13  840   5.589  -0.135   9.682 -0.2818 -0.6982 -0.0957
   12CHL1   C18  841   5.740  -0.192   9.670  0.4418  0.0718 -0.0632
   12CHL1  H18A  842   5.807  -0.143   9.596  3.1899 -1.8300  0.9983
   12CHL1  H18B  843   5.793  -0.174   9.766  1.5227  0.2985 -0.6847
   12CHL1  H18C  844   5.733  -0.302   9.654  1.7446 -0.0566  0.1228
   12CHL1   C12  845   5.597   0.016   9.724  0.2812  1.1158  0.1327
   12CHL1  H12A  846   5.654   0.061   9.641  2.3733 -0.4481  0.6359
   12CHL1  H12B  847   5.493   0.053   9.733  0.5573  1.5100  2.5111
   12CHL1   C11  848   5.679   0.024   9.859  0.3748 -0.1891 -0.1320
   12CHL1  H11A  849   5.789   0.019   9.843  0.3420 -1.5936 -0.0095
   12CHL1  H11B  850   5.644   0.125   9.890 -1.9796 -0.5136 -1.4964
   12CHL1    C9  851   5.624  -0.073   9.970  0.5202  0.6460 -0.2732
   12CHL1    H9  852   5.518  -0.041   9.978  0.1201 -0.9825  1.8533
   12CHL1   C10  853   5.675  -0.051  10.114  0.1964 -0.1416 -0.0680
   12CHL1   C19  854   5.830  -0.082  10.101  0.1583 -0.2225  0.3286
   12CHL1  H19A  855   5.855  -0.170  10.037 -0.8758 -0.6406  0.4815
   12CHL1  H19B  856   5.879  -0.004  10.040 -3.6756 -0.5204 -3.5776
   12CHL1  H19C  857   5.893  -0.102  10.191 -0.0445 -3.3360 -0.0846
   12CHL1    C1  858   5.644   0.093  10.156 -0.0436  0.1535 -0.3777
   12CHL1   H1A  859   5.737   0.140  10.117  1.0297 -1.2089  0.4021
   12CHL1   H1B  860   5.544   0.135  10.136 -0.6371 -0.7158  0.6579
   12CHL1    C2  861   5.649   0.117  10.309  0.3140 -0.3863  0.0243
   12CHL1   H2A  862   5.592   0.210  10.329 -0.9220 -1.3364  1.1299
   12CHL1   H2B  863   5.751   0.145  10.343 -0.5226  2.5913  0.3858
   12CHL1   C20  864   5.561  -0.144   9.425 -1.1144 -0.5906  0.2489
   12CHL1   H20  865   5.670  -0.162   9.430 -1.2430 -1.7419 -0.6881
   12CHL1   C21  866   5.522   0.007   9.398 -0.1799 -0.4831  0.2530
   12CHL1  H21A  867   5.545   0.038   9.294 -2.3464  1.6465  0.2942
   12CHL1  H21B  868   5.582   0.069   9.468 -1.3459  0.4994  0.4200
   12CHL1  H21C  869   5.414   0.027   9.419  0.1830 -0.1305  1.9928
   12CHL1   C22  870   5.515  -0.238   9.313  0.1880 -0.2792  0.0540
   12CHL1  H22A  871   5.556  -0.341   9.318 -1.8550 -1.1084  1.0691
   12CHL1  H22B  872   5.405  -0.248   9.324  0.0507 -0.7519 -1.5572
   12CHL1   C23  873   5.544  -0.182   9.175 -0.7047 -0.6600  0.2947
   12CHL1  H23A  874   5.485  -0.090   9.158 -0.8132 -0.9674 -1.0610
   12CHL1  H23B  875   5.649  -0.149   9.162 -0.6511 -1.1010 -0.4359
   12CHL1   C24  876   5.520  -0.286   9.068 -0.5506  1.6842  0.2587
   12CHL1  H24A  877   5.590  -0.373   9.075 -0.6191  1.6735  0.8014
   12CHL1  H24B  878   5.421  -0.334   9.075  0.7803 -1.3439  0.0405
   12CHL1   C25  879   5.528  -0.225   8.926 -0.6856 -0.6291  0.1569
   12CHL1   H25  880   5.441  -0.156   8.922 -1.0919 -0.9888  1.8824
   12CHL1   C26  881   5.651  -0.132   8.908 -0.8341 -0.3033  0.9233
   12CHL1  H26A  882   5.622  -0.030   8.944 -0.4346 -0.7516  2.5916
   12CHL1  H26B  883   5.736  -0.164   8.971  0.0550  0.3775  0.0972
   12CHL1  H26C  884   5.678  -0.135   8.800 -0.8489 -2.6531  0.9526
   12CHL1   C27  885   5.530  -0.330   8.808 -0.0116 -0.3790  0.0479
   12CHL1  H27A  886   5.430  -0.379   8.810 -0.7492  1.0573  0.1373
   12CHL1  H27B  887   5.529  -0.273   8.713 -2.8645  0.9080  0.7331
   12CHL1  H27C  888   5.622  -0.392   8.807  1.5277  1.7778 -0.2394
   13CHL1    C3  889   0.410   1.056   9.974 -0.6571 -0.7900  0.5198
   13CHL1    H3  890   0.326   0.987   9.952 -1.8908 -0.3410  3.4321
   13CHL1    O3  891   0.448   1.034  10.109  0.0246 -0.2600 -0.1458
   13CHL1   H3'  892   0.526   1.085  10.133 -1.0169  0.8510  1.0045
   13CHL1    C4  893   0.541   1.045   9.897  0.6424 -0.3881 -0.3144
   13CHL1   H4A  894   0.606   1.129   9.931 -0.1343 -0.5777  1.7960
   13CHL1   H4B  895   0.590   0.948   9.920 -0.3339 -0.8390 -0.0902
   13CHL1    C5  896   0.508   1.062   9.751 -0.2341 -0.0741 -0.5993
   13CHL1    C6  897   0.529   0.964   9.659  0.1812 -0.8187 -0.2054
   13CHL1    H6  898   0.589   0.877   9.690  0.7569 -0.6524 -0.8260
   13CHL1    C7  899   0.505   0.975   9.509  0.2692 -0.0604  0.1653
   13CHL1   H7A  900   0.595   0.936   9.457  2.4399 -0.5998  3.8974
   13CHL1   H7B  901   0.406   0.936   9.479  1.2815 -2.0496 -0.7623
   13CHL1    C8  902   0.499   1.125   9.469 -0.1753 -0.5856 -0.1372
   13CHL1    H8  903   0.599   1.172   9.484 -1.0359  0.7589  1.6243
   13CHL1   C14  904   0.459   1.130   9.325  0.5621 -0.0353 -0.6034
   13CHL1   H14  905   0.358   1.085   9.315 -0.4454  1.9395 -0.0225
   13CHL1   C15  906   0.538   1.058   9.218 -0.4998  0.4898 -0.5444
   13CHL1  H15A  907   0.645   1.065   9.247 -0.1346 -1.1273 -1.3452
   13CHL1  H15B  908   0.512   0.950   9.210 -1.9475  0.8929 -1.7353
   13CHL1   C16  909   0.505   1.116   9.087  1.7141  0.1111  0.3410
   13CHL1  H16A  910   0.598   1.155   9.042  0.3869  0.9788 -1.7817
   13CHL1  H16B  911   0.465   1.040   9.015 -0.7493  2.4506 -0.9505
   13CHL1   C17  912   0.402   1.234   9.119  0.0197 -0.7562  0.4589
   13CHL1   H17  913   0.300   1.190   9.122 -1.5463  2.5313  0.5913
   13CHL1   C13  914   0.434   1.271   9.267 -0.4025  0.4790  0.1162
   13CHL1   C18  915   0.571   1.350   9.272  0.5356  0.1433 -0.6854
   13CHL1  H18A  916   0.590   1.365   9.380 -1.0321  1.1190 -0.5147
   13CHL1  H18B  917   0.651   1.296   9.217 -0.2248  0.1469 -1.8375
   13CHL1  H18C  918   0.553   1.446   9.218  0.3848 -0.8031 -2.4062
   13CHL1   C12  919   0.327   1.344   9.352  0.1153 -0.4291  0.2784
   13CHL1  H12A  920   0.318   1.451   9.322 -0.8436 -0.5687  0.0131
   13CHL1  H12B  921   0.226   1.299   9.343 -0.8307  1.3815  1.1986
   13CHL1   C11  922   0.363   1.344   9.504  0.0905  1.0447  0.2751
   13CHL1  H11A  923   0.449   1.413   9.518  0.7340  0.1173  1.0619
   13CHL1  H11B  924   0.277   1.391   9.557 -0.8002 -1.4126  1.1485
   13CHL1    C9  925   0.404   1.203   9.570  0.2630  0.6264 -0.4081
   13CHL1    H9  926   0.308   1.147   9.564 -0.1250  1.2236  0.0729
   13CHL1   C10  927   0.456   1.199   9.711  0.0875  0.2716  0.6293
   13CHL1   C19  928   0.575   1.304   9.734  0.2579 -0.6503 -0.7026
   13CHL1  H19A  929   0.546   1.408   9.707 -1.9490 -0.9967  0.0889
   13CHL1  H19B  930   0.593   1.330   9.841  0.0059  3.3961 -1.4925
   13CHL1  H19C  931   0.664   1.281   9.673  2.6067  2.1169  1.3931
   13CHL1    C1  932   0.339   1.227   9.809  0.5856  0.1464 -0.4659
   13CHL1   H1A  933   0.289   1.324   9.790  0.3301 -0.3218 -2.3515
   13CHL1   H1B  934   0.266   1.148   9.780 -0.2792  1.1200 -0.9816
   13CHL1    C2  935   0.355   1.195   9.959 -0.5964  0.0690 -0.1469
   13CHL1   H2A  936   0.254   1.208  10.005 -1.2107 -0.9182 -1.1792
   13CHL1   H2B  937   0.429   1.269   9.997 -1.1102  0.2876  0.4466
   13CHL1   C20  938   0.410   1.339   9.012 -0.5512 -0.4571 -0.0149
   13CHL1   H20  939   0.515   1.376   9.006  0.1599 -2.3916 -0.1704
   13CHL1   C21  940   0.328   1.469   9.053  0.3003 -0.2182 -0.1470
   13CHL1  H21A  941   0.222   1.438   9.060 -0.2544  1.0018 -2.1500
   13CHL1  H21B  942   0.330   1.553   8.979 -0.1876  2.0812  2.2995
   13CHL1  H21C  943   0.378   1.498   9.148 -0.8914 -1.6203  0.9373
   13CHL1   C22  944   0.364   1.280   8.877  0.2276 -0.2732  0.9386
   13CHL1  H22A  945   0.404   1.179   8.855  2.8098  0.4646  1.9026
   13CHL1  H22B  946   0.253   1.275   8.889  0.0068  3.0956  1.1587
   13CHL1   C23  947   0.392   1.365   8.752  0.1001 -0.0201 -0.2762
   13CHL1  H23A  948   0.357   1.465   8.786  1.9931  0.8205 -0.6866
   13CHL1  H23B  949   0.500   1.376   8.729  0.7787 -0.1749  2.5484
   13CHL1   C24  950   0.317   1.325   8.625 -0.9974  0.2891 -0.2300
   13CHL1  H24A  951   0.303   1.215   8.618  0.0270  0.0374  1.2661
   13CHL1  H24B  952   0.213   1.364   8.628 -0.1027  3.2899 -2.6359
   13CHL1   C25  953   0.393   1.379   8.503 -1.3218  0.5273 -0.6753
   13CHL1   H25  954   0.499   1.361   8.531 -1.7650  0.5590  1.1604
   13CHL1   C26  955   0.346   1.297   8.377 -0.4646 -0.0951 -0.5039
   13CHL1  H26A  956   0.381   1.195   8.403 -0.5699 -0.0082 -0.0100
   13CHL1  H26B  957   0.235   1.291   8.377 -0.4689 -0.7692 -2.8282
   13CHL1  H26C  958   0.380   1.338   8.280 -2.0964  1.4842 -0.4763
   13CHL1   C27  959   0.369   1.533   8.499 -0.0833  0.5065  0.3533
   13CHL1  H27A  960   0.259   1.551   8.498 -0.2256 -0.2219 -1.5413
   13CHL1  H27B  961   0.416   1.588   8.583  1.4979  0.7109 -0.6443
   13CHL1  H27C  962   0.408   1.577   8.405 -0.6345  0.3974  0.0649
   14CHL1    C3  963   5.911   4.183  10.304  0.2545 -0.7130  0.0311
   14CHL1    H3  964   5.970   4.095  10.271  1.6849  0.1082  0.3469
   14CHL1    O3  965   5.923   4.197  10.441 -0.0546  0.0779  0.0286
   14CHL1   H3'  966   5.919   4.107  10.474 -4.6897 -0.0882 -0.4351
   14CHL1    C4  967   5.963   4.311  10.234  0.6864 -0.6031  0.1842
   14CHL1   H4A  968   5.908   4.399  10.273  2.4529  1.6164 -2.0310
   14CHL1   H4B  969   6.062   4.327  10.281 -0.4309  0.8762  2.1905
   14CHL1    C5  970   5.949   4.296  10.080  0.6391  0.5759 -0.0423
   14CHL1    C6  971   6.062   4.300  10.002  0.7292 -0.9942  0.0332
   14CHL1    H6  972   6.150   4.316  10.065  1.2296  0.0687 -0.8920
   14CHL1    C7  973   6.076   4.283   9.852  0.2499 -0.3501 -0.3048
   14CHL1   H7A  974   6.106   4.378   9.804  1.3341 -0.4789  0.0758
   14CHL1   H7B  975   6.155   4.211   9.820 -0.7483 -1.4475 -0.3753
   14CHL1    C8  976   5.931   4.264   9.798  0.1400  0.7567  0.2490
   14CHL1    H8  977   5.884   4.363   9.783 -2.5991 -0.5389 -0.3693
   14CHL1   C14  978   5.948   4.200   9.661 -0.1117 -0.3468 -0.5311
   14CHL1   H14  979   5.974   4.096   9.689 -0.0605  0.0902  1.1308
   14CHL1   C15  980   6.059   4.250   9.569  0.0647  0.2388  0.2013
   14CHL1  H15A  981   6.075   4.359   9.579  0.4945  0.1496  0.4908
   14CHL1  H15B  982   6.149   4.192   9.598 -1.3094 -2.6732 -0.9061
   14CHL1   C16  983   6.006   4.215   9.432  0.0488  0.4742  0.2471
   14CHL1  H16A  984   5.982   4.310   9.380 -0.9297 -0.7308 -1.6137
   14CHL1  H16B  985   6.082   4.162   9.371 -1.5269 -1.0662 -0.4775
   14CHL1   C17  986   5.872   4.135   9.451 -0.6526 -0.3350  0.2683
   14CHL1   H17  987   5.910   4.032   9.468  0.6077 -0.1014 -0.9546
   14CHL1   C13  988   5.816   4.185   9.584 -0.1387 -0.1842  0.0256
   14CHL1   C18  989   5.740   4.319   9.561  0.2807  0.5595  0.1521
   14CHL1  H18A  990   5.658   4.307   9.487  1.2537  0.6467 -0.9682
   14CHL1  H18B  991   5.698   4.354   9.658 -0.5264  0.7718 -0.2651
   14CHL1  H18C  992   5.803   4.400   9.518 -2.7418  3.0503  0.0350
   14CHL1   C12  993   5.729   4.091   9.668 -0.8636  0.4253 -0.1476
   14CHL1  H12A  994   5.628   4.075   9.626 -1.2762 -0.3163  1.0491
   14CHL1  H12B  995   5.779   3.992   9.678  0.0349  0.8218 -0.5710
   14CHL1   C11  996   5.705   4.142   9.816  0.0637  0.1176  1.1706
   14CHL1  H11A  997   5.643   4.232   9.795  1.3077  0.3166 -2.3485
   14CHL1  H11B  998   5.658   4.060   9.873 -1.1982 -0.9396 -1.2468
   14CHL1    C9  999   5.839   4.184   9.891  0.5431  1.3747 -0.2112
   14CHL1    H9 1000   5.901   4.094   9.913  1.7413  1.8395 -1.5129
   14CHL1   C10 1001   5.808   4.249  10.027 -0.2297  0.3910  0.2544
   14CHL1   C19 1002   5.719   4.368  10.016 -0.1988 -0.3431 -0.3992
   14CHL1  H19A 1003   5.761   4.439   9.942 -0.6143  0.0686 -0.2407
   14CHL1  H19B 1004   5.621   4.324   9.988 -0.9935  1.6244 -0.8793
   14CHL1  H19C 1005   5.709   4.420  10.113  2.1815 -1.4859  0.5502
   14CHL1    C1 1006   5.753   4.137  10.122 -0.2207  0.2378  0.1465
   14CHL1   H1A 1007   5.653   4.100  10.092  0.6037  0.2539 -2.9210
   14CHL1   H1B 1008   5.817   4.050  10.098  0.5003  0.7011  0.3632
   14CHL1    C2 1009   5.763   4.175  10.265  0.1096 -0.0673 -0.2469
   14CHL1   H2A 1010   5.708   4.097  10.323 -2.6902  3.0877  1.7183
   14CHL1   H2B 1011   5.709   4.268  10.292  0.1186 -1.0316  3.7035
   14CHL1   C20 1012   5.785   4.137   9.327 -0.0214  0.2501  0.3112
   14CHL1   H20 1013   5.745   4.240   9.309 -1.2249 -0.1187  0.7390
   14CHL1   C21 1014   5.657   4.052   9.352 -0.0558 -0.8375  0.5405
   14CHL1  H21A 1015   5.598   4.056   9.258  0.7441 -0.3827  0.0497
   14CHL1  H21B 1016   5.592   4.110   9.421 -0.3085  1.3793 -1.4314
   14CHL1  H21C 1017   5.670   3.949   9.391  1.5691 -0.3305  1.4537
   14CHL1   C22 1018   5.848   4.082   9.202  0.0632 -0.1303  0.4249
   14CHL1  H22A 1019   5.956   4.111   9.199  0.3944 -1.1687  1.4775
   14CHL1  H22B 1020   5.834   3.972   9.207 -1.9912  0.1388  1.8100
   14CHL1   C23 1021   5.790   4.139   9.066  0.0363 -0.2973  0.5153
   14CHL1  H23A 1022   5.679   4.127   9.061 -0.0402  0.0224  1.2794
   14CHL1  H23B 1023   5.800   4.249   9.072 -2.4283 -0.0385  1.1472
   14CHL1   C24 1024   5.862   4.096   8.938 -0.4869 -0.2470 -0.0105
   14CHL1  H24A 1025   5.970   4.090   8.962 -0.3455  3.2184  0.6961
   14CHL1  H24B 1026   5.816   3.997   8.918 -2.0878  0.9679 -3.0382
   14CHL1   C25 1027   5.844   4.196   8.823 -0.1660  0.3039 -0.1943
   14CHL1   H25 1028   5.892   4.291   8.853  2.0916 -0.2607 -1.7633
   14CHL1   C26 1029   5.922   4.131   8.706 -0.2219 -0.4845 -0.1927
   14CHL1  H26A 1030   6.032   4.125   8.723 -0.2155  0.3215  0.1169
   14CHL1  H26B 1031   5.885   4.027   8.694 -2.9255  0.1297  1.7931
   14CHL1  H26C 1032   5.911   4.180   8.607  0.4062 -0.1577 -0.1087
   14CHL1   C27 1033   5.695   4.213   8.801  0.1279 -0.4558  0.8125
   14CHL1  H27A 1034   5.679   4.279   8.712  0.6176  0.1076  1.1372
   14CHL1  H27B 1035   5.646   4.114   8.785 -1.0319  0.1133  0.6902
   14CHL1  H27C 1036   5.639   4.268   8.879  0.0854 -1.8502  1.7947
   15CHL1    C3 1037   0.717   2.201  10.044 -0.2063  0.0162 -0.4683
   15CHL1    H3 1038   0.821   2.203  10.006 -0.5295 -0.1732 -1.3959
   15CHL1    O3 1039   0.715   2.179  10.185 -0.2778  0.0054 -0.5791
   15CHL1   H3' 1040   0.753   2.257  10.227  1.2930 -1.0761  0.1178
   15CHL1    C4 1041   0.649   2.327  10.001 -0.0192 -0.2924 -0.1459
   15CHL1   H4A 1042   0.543   2.314  10.030 -0.7838  1.8668 -1.6756
   15CHL1   H4B 1043   0.685   2.414  10.061 -0.4213  0.1631 -0.5523
   15CHL1    C5 1044   0.666   2.353   9.853  0.3652  0.1824 -0.4339
   15CHL1    C6 1045   0.730   2.455   9.800 -0.4869  0.3606  0.9041
   15CHL1    H6 1046   0.764   2.532   9.871  0.3787 -0.6065  1.5677
   15CHL1    C7 1047   0.747   2.484   9.651  0.0479 -0.1513 -0.1918
   15CHL1   H7A 1048   0.717   2.589   9.633  0.9681  0.1470 -0.0530
   15CHL1   H7B 1049   0.852   2.474   9.618  0.7327  1.7995  1.1912
   15CHL1    C8 1050   0.645   2.404   9.567 -0.4315 -0.2785 -0.0601
   15CHL1    H8 1051   0.546   2.452   9.583 -0.0171  1.4619 -2.2720
   15CHL1   C14 1052   0.692   2.402   9.417  0.0519  0.2177 -0.3396
   15CHL1   H14 1053   0.785   2.341   9.411  0.5113  0.7465  1.1541
   15CHL1   C15 1054   0.722   2.533   9.352 -0.5260 -0.0339  0.2106
   15CHL1  H15A 1055   0.646   2.607   9.384  0.8855  2.0058 -0.9218
   15CHL1  H15B 1056   0.819   2.570   9.390 -0.7775 -0.5777  1.4510
   15CHL1   C16 1057   0.710   2.506   9.205  0.1948 -0.4840  0.1940
   15CHL1  H16A 1058   0.639   2.581   9.164 -0.1533 -1.2290 -0.6081
   15CHL1  H16B 1059   0.800   2.538   9.148 -0.8248  0.8728 -0.6984
   15CHL1   C17 1060   0.661   2.363   9.188  0.0656  0.5671  0.3793
   15CHL1   H17 1061   0.744   2.289   9.177 -0.2788  0.1789  0.3681
   15CHL1   C13 1062   0.589   2.333   9.323  0.2880  0.2703 -0.3102
   15CHL1   C18 1063   0.446   2.395   9.320  0.0787 -0.6508  0.4670
   15CHL1  H18A 1064   0.455   2.497   9.277 -1.1159  0.5459  2.8957
   15CHL1  H18B 1065   0.370   2.336   9.265 -0.1494 -2.0161  2.1715
   15CHL1  H18C 1066   0.399   2.405   9.420 -1.9161 -0.9324 -0.4027
   15CHL1   C12 1067   0.584   2.186   9.370 -0.7709  0.1598 -0.1924
   15CHL1  H12A 1068   0.507   2.123   9.321 -1.5026  0.1385  0.9526
   15CHL1  H12B 1069   0.685   2.144   9.347 -0.6852 -0.6625  1.5097
   15CHL1   C11 1070   0.547   2.180   9.519  0.0415  0.1050  0.3551
   15CHL1  H11A 1071   0.440   2.206   9.526  0.2609  1.2686 -0.3582
   15CHL1  H11B 1072   0.554   2.074   9.553 -2.1770  0.5051  2.3156
   15CHL1    C9 1073   0.637   2.262   9.614 -0.2482  0.2026  0.4822
   15CHL1    H9 1074   0.742   2.226   9.613  0.1691  1.2994  1.6663
   15CHL1   C10 1075   0.603   2.243   9.769 -0.0578  0.5050  0.0943
   15CHL1   C19 1076   0.451   2.238   9.778 -0.7304  0.0153  0.1529
   15CHL1  H19A 1077   0.419   2.142   9.732 -1.0135  0.1309  0.1097
   15CHL1  H19B 1078   0.415   2.254   9.882 -0.7230  1.3615 -0.0263
   15CHL1  H19C 1079   0.416   2.329   9.724 -0.3969  0.0793  0.0400
   15CHL1    C1 1080   0.663   2.105   9.818  0.9617 -0.3837  0.0825
   15CHL1   H1A 1081   0.610   2.028   9.756  0.1536  1.2930 -1.4026
   15CHL1   H1B 1082   0.766   2.094   9.778  0.5721  0.3623 -1.2111
   15CHL1    C2 1083   0.653   2.080   9.965  0.5099 -0.4829  0.0380
   15CHL1   H2A 1084   0.690   1.979   9.994 -0.8741 -1.2124 -0.6522
   15CHL1   H2B 1085   0.547   2.082   9.998  1.0209  0.8413  1.7844
   15CHL1   C20 1086   0.578   2.345   9.057 -0.9732  0.2181  0.1704
   15CHL1   H20 1087   0.481   2.399   9.061 -1.7048 -1.0914  1.1833
   15CHL1   C21 1088   0.540   2.196   9.038 -0.1721  1.3387 -0.6357
   15CHL1  H21A 1089   0.470   2.189   8.952  0.9345 -0.8710 -1.4469
   15CHL1  H21B 1090   0.491   2.141   9.121 -1.5834 -0.7815 -2.7418
   15CHL1  H21C 1091   0.626   2.137   8.998  0.1677  0.9837  0.5945
   15CHL1   C22 1092   0.645   2.406   8.930  1.0013  0.2899  0.2030
   15CHL1  H22A 1093   0.674   2.512   8.952  4.7795 -0.3354 -0.9775
   15CHL1  H22B 1094   0.743   2.354   8.918  0.4998 -1.1334  1.9984
   15CHL1   C23 1095   0.557   2.415   8.806  0.8071 -0.2324  0.2011
   15CHL1  H23A 1096   0.474   2.342   8.806 -1.0543  1.6650 -2.7450
   15CHL1  H23B 1097   0.508   2.515   8.810 -0.7943 -1.0078  0.8933
   15CHL1   C24 1098   0.627   2.401   8.673  0.6261  0.4893 -0.5194
   15CHL1  H24A 1099   0.699   2.481   8.648  0.8739  0.8624  1.2960
   15CHL1  H24B 1100   0.675   2.300   8.679  0.8488  0.4156 -2.7145
   15CHL1   C25 1101   0.529   2.398   8.555 -0.1052  0.0440 -0.9260
   15CHL1   H25 1102   0.437   2.348   8.592  0.0569 -1.9131 -2.9840
   15CHL1   C26 1103   0.503   2.541   8.501 -0.0551  0.2662 -1.0689
   15CHL1  H26A 1104   0.471   2.603   8.587 -3.0297 -3.3491  0.7433
   15CHL1  H26B 1105   0.595   2.583   8.455  0.9515 -1.4765 -0.7515
   15CHL1  H26C 1106   0.418   2.535   8.429 -0.5738 -0.1802 -0.4366
   15CHL1   C27 1107   0.586   2.312   8.446 -0.4559 -0.5089  0.5367
   15CHL1  H27A 1108   0.690   2.349   8.430 -0.5791  0.2637  1.3866
   15CHL1  H27B 1109   0.595   2.209   8.486 -0.4309  0.4407  3.1893
   15CHL1  H27C 1110   0.521   2.319   8.356 -2.9449 -1.0547  2.2004
   16CHL1    C3 1111   0.426   4.418  10.258  0.0769  0.0846 -0.2481
   16CHL1    H3 1112   0.338   4.486  10.264  0.3491  0.3293  2.4792
   16CHL1    O3 1113   0.459   4.384  10.388  0.8613  0.2436 -0.5239
   16CHL1   H3' 1114   0.529   4.319  10.392  0.9194  0.3396  0.1755
   16CHL1    C4 1115   0.381   4.290  10.178  0.3754 -0.3650 -0.2676
   16CHL1   H4A 1116   0.462   4.215  10.190 -0.2617 -1.0094  0.1425
   16CHL1   H4B 1117   0.301   4.231  10.229  2.1831 -3.0955 -0.3484
   16CHL1    C5 1118   0.345   4.324  10.037  0.5693 -0.1839  0.0220
   16CHL1    C6 1119   0.219   4.297   9.989  0.3845  0.2370  0.5041
   16CHL1    H6 1120   0.159   4.245  10.065  2.8829  1.4055  3.4653
   16CHL1    C7 1121   0.166   4.332   9.844 -0.2210 -0.4149 -0.2268
   16CHL1   H7A 1122   0.101   4.253   9.802  0.9948 -0.8561 -1.3497
   16CHL1   H7B 1123   0.099   4.421   9.843 -0.4948 -0.5308  2.1331
   16CHL1    C8 1124   0.297   4.358   9.749  0.6530 -0.3751 -0.6300
   16CHL1    H8 1125   0.356   4.266   9.729  0.4382 -0.5494 -0.4768
   16CHL1   C14 1126   0.248   4.413   9.616  0.4175 -0.2926 -0.3336
   16CHL1   H14 1127   0.202   4.510   9.644  0.1571 -0.9967  1.8897
   16CHL1   C15 1128   0.142   4.341   9.540 -0.0953 -0.4809  0.2484
   16CHL1  H15A 1129   0.172   4.234   9.542  2.8658  0.2429 -0.3608
   16CHL1  H15B 1130   0.042   4.347   9.587 -0.0440  3.0102  0.1475
   16CHL1   C16 1131   0.154   4.393   9.394  0.4900  0.4963 -0.0102
   16CHL1  H16A 1132   0.161   4.304   9.329 -3.0976  1.3472 -1.7811
   16CHL1  H16B 1133   0.064   4.451   9.366 -1.9468 -3.3671 -0.9060
   16CHL1   C17 1134   0.275   4.477   9.398 -0.0445 -0.0540  0.5950
   16CHL1   H17 1135   0.237   4.579   9.423  0.2713  0.9381 -2.5464
   16CHL1   C13 1136   0.365   4.434   9.521 -0.3800 -1.0169  0.1786
   16CHL1   C18 1137   0.435   4.308   9.486  0.2363  0.0628 -0.3385
   16CHL1  H18A 1138   0.491   4.262   9.570  2.5599  2.0687 -0.6697
   16CHL1  H18B 1139   0.359   4.237   9.448 -1.5383  2.2040 -1.0459
   16CHL1  H18C 1140   0.513   4.332   9.411  2.1356  1.7686  2.0064
   16CHL1   C12 1141   0.461   4.537   9.583  0.0480 -0.4251 -0.8912
   16CHL1  H12A 1142   0.552   4.548   9.520  1.4078  1.5650  1.2818
   16CHL1  H12B 1143   0.411   4.635   9.596  0.6108 -0.2723  0.1805
   16CHL1   C11 1144   0.514   4.496   9.720 -0.7367  0.2510 -0.4589
   16CHL1  H11A 1145   0.590   4.416   9.702 -0.5798 -0.1736  1.8587
   16CHL1  H11B 1146   0.567   4.582   9.765 -0.8539 -0.2731  0.7092
   16CHL1    C9 1147   0.401   4.455   9.822 -0.0335 -0.7099 -0.1908
   16CHL1    H9 1148   0.358   4.556   9.832  2.1428  0.3087 -0.4900
   16CHL1   C10 1149   0.449   4.401   9.957  0.2769 -0.4497 -0.4647
   16CHL1   C19 1150   0.555   4.290   9.926  0.2461 -0.4463 -0.1704
   16CHL1  H19A 1151   0.611   4.253  10.014  0.1012 -0.7712 -0.2141
   16CHL1  H19B 1152   0.519   4.216   9.851  1.5167  1.1791 -2.5257
   16CHL1  H19C 1153   0.644   4.336   9.879  1.6728  1.5273  3.9558
   16CHL1    C1 1154   0.514   4.513  10.039  0.1963 -0.5140 -0.7245
   16CHL1   H1A 1155   0.605   4.545   9.985  0.4737  1.3560  0.7106
   16CHL1   H1B 1156   0.444   4.597  10.017  0.1673 -0.6146 -1.0112
   16CHL1    C2 1157   0.541   4.484  10.188  0.0861  0.5361  0.4369
   16CHL1   H2A 1158   0.581   4.577  10.234  0.8202 -0.1501  1.2214
   16CHL1   H2B 1159   0.619   4.405  10.181 -0.4872  0.0819 -3.2149
   16CHL1   C20 1160   0.342   4.484   9.263 -0.0033  0.0996 -0.6412
   16CHL1   H20 1161   0.394   4.386   9.249  0.1702  0.1784 -0.5538
   16CHL1   C21 1162   0.449   4.598   9.276  0.2313 -0.3173  1.5984
   16CHL1  H21A 1163   0.467   4.636   9.173 -1.4008 -2.6673  0.3544
   16CHL1  H21B 1164   0.541   4.552   9.319  0.2002  1.1864  3.4104
   16CHL1  H21C 1165   0.408   4.674   9.345 -1.9203  1.0181 -0.9942
   16CHL1   C22 1166   0.243   4.515   9.149  0.4072  0.1751 -0.9228
   16CHL1  H22A 1167   0.159   4.443   9.144 -0.2856  0.6128  2.4311
   16CHL1  H22B 1168   0.194   4.614   9.154 -0.4111 -0.2552 -0.2071
   16CHL1   C23 1169   0.306   4.507   9.008  0.2718 -0.6408  0.0553
   16CHL1  H23A 1170   0.228   4.552   8.943  0.3066  0.2224  0.5849
   16CHL1  H23B 1171   0.391   4.580   9.005 -1.9813  2.1802  0.1743
   16CHL1   C24 1172   0.339   4.361   8.960  0.0651  0.3683 -0.4889
   16CHL1  H24A 1173   0.408   4.319   9.035  0.5344  1.2587 -0.4017
   16CHL1  H24B 1174   0.254   4.290   8.965  1.1808 -1.1045 -1.5659
   16CHL1   C25 1175   0.388   4.349   8.813  0.1290  0.1604  0.7129
   16CHL1   H25 1176   0.372   4.242   8.788 -0.3594  0.4685 -0.3924
   16CHL1   C26 1177   0.300   4.425   8.707 -0.3075  0.3185 -0.0561
   16CHL1  H26A 1178   0.340   4.382   8.612 -1.3844 -1.9631  0.4506
   16CHL1  H26B 1179   0.192   4.409   8.723 -0.1100  1.7172  3.4468
   16CHL1  H26C 1180   0.333   4.531   8.708 -0.2780  0.3177  2.0153
   16CHL1   C27 1181   0.537   4.391   8.811 -0.3203  0.3229 -0.1497
   16CHL1  H27A 1182   0.587   4.350   8.901  0.6260  2.2246  0.2438
   16CHL1  H27B 1183   0.582   4.355   8.716  0.8928  1.3652 -0.0016
   16CHL1  H27C 1184   0.550   4.501   8.809 -0.0941  0.3021  0.1637
   17CHL1    C3 1185   1.752   6.142  10.217  0.9535  0.0978  0.5095
   17CHL1    H3 1186   1.783   6.036  10.208  1.2832  0.2738 -0.6876
   17CHL1    O3 1187   1.725   6.173  10.351 -0.7352 -0.1318 -0.0533
   17CHL1   H3' 1188   1.658   6.242  10.355 -0.2540  0.2840  1.7094
   17CHL1    C4 1189   1.880   6.222  10.179 -1.1455  0.1254 -0.0200
   17CHL1   H4A 1190   1.877   6.331  10.200  2.3284  0.6502 -1.4990
   17CHL1   H4B 1191   1.965   6.179  10.236 -1.7945 -0.9050  0.1986
   17CHL1    C5 1192   1.909   6.200  10.034 -0.3672  0.5591 -0.0730
   17CHL1    C6 1193   2.028   6.154   9.997 -0.1917 -0.1103 -0.4761
   17CHL1    H6 1194   2.100   6.123  10.074  0.9527 -3.7159 -2.7437
   17CHL1    C7 1195   2.073   6.144   9.856 -0.1125  0.3053 -0.0166
   17CHL1   H7A 1196   2.176   6.180   9.835  0.5008 -1.5181 -0.2618
   17CHL1   H7B 1197   2.084   6.040   9.820 -0.7508 -0.0203  0.6943
   17CHL1    C8 1198   1.983   6.227   9.761  0.4756  0.1362  0.7781
   17CHL1    H8 1199   2.015   6.333   9.772  0.5685  0.0388  1.5209
   17CHL1   C14 1200   2.001   6.179   9.613 -0.1651 -0.6510  0.2697
   17CHL1   H14 1201   1.948   6.082   9.603  2.8233 -2.3472 -0.2173
   17CHL1   C15 1202   2.144   6.139   9.564 -1.0969  0.3079 -0.6081
   17CHL1  H15A 1203   2.213   6.219   9.597 -0.2312 -0.9945  0.9123
   17CHL1  H15B 1204   2.180   6.041   9.604 -0.1085  0.9266  0.0598
   17CHL1   C16 1205   2.140   6.147   9.410  0.3489  0.3100  0.1582
   17CHL1  H16A 1206   2.224   6.209   9.373  1.9318 -1.7273  0.1947
   17CHL1  H16B 1207   2.150   6.044   9.368 -0.6531 -0.8171  2.5046
   17CHL1   C17 1208   1.994   6.196   9.381  0.3848 -0.0324 -0.0420
   17CHL1   H17 1209   1.941   6.098   9.379  0.7069 -0.2051 -1.6763
   17CHL1   C13 1210   1.938   6.265   9.504  0.2003  0.0141  0.1685
   17CHL1   C18 1211   2.008   6.404   9.513 -0.6682  0.0205  0.1443
   17CHL1  H18A 1212   2.119   6.398   9.517 -0.5136  1.4964 -1.1065
   17CHL1  H18B 1213   1.969   6.467   9.430  1.9280  1.5658  0.0025
   17CHL1  H18C 1214   1.974   6.456   9.605  1.1482 -1.4989  1.7818
   17CHL1   C12 1215   1.788   6.273   9.526 -0.9012 -0.4169 -0.5038
   17CHL1  H12A 1216   1.722   6.339   9.466  0.0688  0.8279 -0.2409
   17CHL1  H12B 1217   1.747   6.172   9.505 -1.3894 -0.4171  0.4196
   17CHL1   C11 1218   1.756   6.305   9.678  0.3349 -0.4088  0.1125
   17CHL1  H11A 1219   1.768   6.416   9.686 -0.7728 -0.1432 -1.4307
   17CHL1  H11B 1220   1.649   6.285   9.701  0.2575  0.2418  0.3558
   17CHL1    C9 1221   1.833   6.221   9.782 -0.0505  0.0097 -0.0885
   17CHL1    H9 1222   1.795   6.119   9.762  0.5023 -0.1705 -0.2287
   17CHL1   C10 1223   1.800   6.235   9.930  0.6120 -0.7227 -0.1939
   17CHL1   C19 1224   1.777   6.395   9.939 -0.3243  0.4918  0.1619
   17CHL1  H19A 1225   1.785   6.436  10.042 -0.7630  0.2117  0.3090
   17CHL1  H19B 1226   1.856   6.453   9.886  0.1734  0.2889  0.6748
   17CHL1  H19C 1227   1.684   6.421   9.885  0.4122  1.1195 -0.8421
   17CHL1    C1 1228   1.672   6.145   9.975 -0.0847  0.7479 -0.1555
   17CHL1   H1A 1229   1.593   6.164   9.899 -3.3114  1.2781  3.0460
   17CHL1   H1B 1230   1.706   6.040   9.966 -0.0064  0.5083  2.2530
   17CHL1    C2 1231   1.635   6.179  10.120  0.2011 -0.7258  0.7434
   17CHL1   H2A 1232   1.542   6.124  10.143 -1.4037  0.0824 -3.1331
   17CHL1   H2B 1233   1.619   6.283  10.154  1.5070  0.0533 -0.8517
   17CHL1   C20 1234   1.969   6.264   9.243  0.1167 -0.2240  0.4693
   17CHL1   H20 1235   1.987   6.373   9.251  2.8088 -0.6426  0.9366
   17CHL1   C21 1236   1.824   6.235   9.208  0.3675 -0.1215  0.0277
   17CHL1  H21A 1237   1.800   6.278   9.109 -1.0413  1.2000  0.9027
   17CHL1  H21B 1238   1.755   6.288   9.276 -0.1527 -0.1489 -0.4749
   17CHL1  H21C 1239   1.794   6.128   9.196  1.0388 -0.3889  0.6309
   17CHL1   C22 1240   2.071   6.215   9.130 -0.7597 -0.0322  0.1554
   17CHL1  H22A 1241   2.177   6.232   9.159 -1.3592  1.5785  1.6052
   17CHL1  H22B 1242   2.048   6.107   9.121 -0.5426 -0.0797  0.1704
   17CHL1   C23 1243   2.047   6.297   8.998  0.0722 -1.3526  0.1380
   17CHL1  H23A 1244   1.945   6.287   8.956 -0.3945  1.5768  0.3733
   17CHL1  H23B 1245   2.063   6.405   9.018 -0.1267 -0.4928 -3.6358
   17CHL1   C24 1246   2.151   6.264   8.884  0.8999  0.2788 -0.2015
   17CHL1  H24A 1247   2.252   6.281   8.927  1.5026 -0.2566 -1.3516
   17CHL1  H24B 1248   2.141   6.155   8.868  1.1361  0.1938  0.2183
   17CHL1   C25 1249   2.128   6.338   8.753 -0.2336  0.2866  0.1649
   17CHL1   H25 1250   2.031   6.304   8.712 -0.3819  0.5968  0.2624
   17CHL1   C26 1251   2.121   6.484   8.773 -0.1262 -0.1945  0.1576
   17CHL1  H26A 1252   2.031   6.517   8.830 -0.5515 -2.3880  0.8440
   17CHL1  H26B 1253   2.212   6.529   8.818  0.0680  0.2067 -0.6209
   17CHL1  H26C 1254   2.103   6.541   8.680  0.9468 -0.5895 -0.3092
   17CHL1   C27 1255   2.236   6.315   8.642  0.2855 -0.6366 -0.4204
   17CHL1  H27A 1256   2.255   6.207   8.628 -2.9014 -1.0314 -2.6812
   17CHL1  H27B 1257   2.194   6.351   8.546 -0.8915 -1.0705 -0.0770
   17CHL1  H27C 1258   2.331   6.364   8.673  0.0595  1.6157 -2.8489
   18CHL1    C3 1259   0.286   6.422  10.058 -0.0988 -0.3096 -0.2283
   18CHL1    H3 1260   0.177   6.397  10.058 -0.0425 -0.5684  0.6189
   18CHL1    O3 1261   0.331   6.421  10.195 -0.1187  0.4931  0.8813
   18CHL1   H3' 1262   0.424   6.438  10.182 -0.1769 -0.0909 -0.4610
   18CHL1    C4 1263   0.364   6.327   9.978  0.0062 -0.6803 -0.4793
   18CHL1   H4A 1264   0.472   6.354   9.985  0.0300  0.2150 -3.0989
   18CHL1   H4B 1265   0.340   6.228  10.021 -2.7562  0.6564  1.2987
   18CHL1    C5 1266   0.319   6.336   9.834 -0.6501 -0.3507 -0.3651
   18CHL1    C6 1267   0.273   6.227   9.781  0.8868  0.1963  0.0468
   18CHL1    H6 1268   0.266   6.136   9.843  1.8586 -0.1116 -0.2813
   18CHL1    C7 1269   0.232   6.214   9.635 -0.7802  0.0527 -1.2417
   18CHL1   H7A 1270   0.256   6.112   9.596 -0.8038  0.0988 -1.3778
   18CHL1   H7B 1271   0.121   6.220   9.636 -0.7666  0.2739 -0.3146
   18CHL1    C8 1272   0.283   6.333   9.552  0.6711  0.3654 -0.3575
   18CHL1    H8 1273   0.390   6.310   9.532 -0.1096 -2.1774 -2.1194
   18CHL1   C14 1274   0.203   6.351   9.428  0.4357  0.1047  0.5493
   18CHL1   H14 1275   0.096   6.355   9.458 -0.1300 -5.0860  0.0573
   18CHL1   C15 1276   0.215   6.229   9.328 -0.2851  0.5978  0.5870
   18CHL1  H15A 1277   0.321   6.194   9.322 -0.0969  0.9905  1.5878
   18CHL1  H15B 1278   0.151   6.143   9.359  0.2771 -0.1240 -0.1766
   18CHL1   C16 1279   0.168   6.289   9.196 -0.9053  0.6575  0.3484
   18CHL1  H16A 1280   0.242   6.266   9.117  0.2189 -0.0925  1.5750
   18CHL1  H16B 1281   0.071   6.248   9.160 -1.3330  2.8105 -1.1267
   18CHL1   C17 1282   0.157   6.447   9.207 -0.3581  0.3116  0.0592
   18CHL1   H17 1283   0.048   6.456   9.228 -0.5087  0.7881 -0.8623
   18CHL1   C13 1284   0.234   6.476   9.335  0.7212 -0.3615 -0.3813
   18CHL1   C18 1285   0.387   6.478   9.303  0.1185  0.0524  0.5837
   18CHL1  H18A 1286   0.450   6.465   9.393  1.1974  0.3050 -0.1212
   18CHL1  H18B 1287   0.411   6.408   9.220 -0.7803  1.0194 -0.5378
   18CHL1  H18C 1288   0.413   6.578   9.262  2.0817 -0.8722 -0.5686
   18CHL1   C12 1289   0.199   6.601   9.418 -0.2260  0.3343  0.8213
   18CHL1  H12A 1290   0.228   6.698   9.371  0.8238 -0.5985 -0.5357
   18CHL1  H12B 1291   0.090   6.600   9.440 -0.5156 -1.6645 -0.4779
   18CHL1   C11 1292   0.269   6.600   9.549  0.3389 -0.3768 -0.6134
   18CHL1  H11A 1293   0.378   6.614   9.533 -0.1217  1.0087 -2.9081
   18CHL1  H11B 1294   0.223   6.687   9.600 -3.2000 -0.8676 -2.6149
   18CHL1    C9 1295   0.255   6.465   9.628  0.3550 -0.4017 -0.4557
   18CHL1    H9 1296   0.146   6.459   9.649  0.1080  1.6187 -0.9230
   18CHL1   C10 1297   0.331   6.472   9.764  0.1980  0.8573 -0.0516
   18CHL1   C19 1298   0.477   6.497   9.747  0.1162 -0.0132  0.1042
   18CHL1  H19A 1299   0.544   6.485   9.835  1.0671  1.2983 -0.3939
   18CHL1  H19B 1300   0.505   6.419   9.673 -1.2215  0.2229 -0.6961
   18CHL1  H19C 1301   0.506   6.592   9.696  0.0284 -0.8125 -1.4990
   18CHL1    C1 1302   0.260   6.575   9.856 -0.8331  0.4503 -0.0218
   18CHL1   H1A 1303   0.289   6.676   9.818  0.3650  0.7721  1.6363
   18CHL1   H1B 1304   0.150   6.567   9.862 -0.8189  0.1539 -0.1265
   18CHL1    C2 1305   0.299   6.567  10.006  1.0670  0.0875  0.4840
   18CHL1   H2A 1306   0.238   6.641  10.062  2.2753  0.3111  1.5474
   18CHL1   H2B 1307   0.406   6.596  10.018  1.3859 -1.3003  1.1807
   18CHL1   C20 1308   0.184   6.522   9.077  0.3083 -0.6001  0.6427
   18CHL1   H20 1309   0.290   6.503   9.049 -0.3344 -1.0500 -1.6906
   18CHL1   C21 1310   0.168   6.673   9.099 -0.0828 -0.3763  0.3306
   18CHL1  H21A 1311   0.077   6.692   9.160 -1.9697  1.4746 -2.7359
   18CHL1  H21B 1312   0.148   6.730   9.005  2.0313 -0.9202 -0.5082
   18CHL1  H21C 1313   0.263   6.707   9.147  0.9442 -3.2636  0.5148
   18CHL1   C22 1314   0.103   6.462   8.962 -0.7148  0.2329 -0.5604
   18CHL1  H22A 1315   0.149   6.518   8.878  1.3803 -2.9052 -1.7037
   18CHL1  H22B 1316   0.114   6.351   8.952 -1.7186  0.0868 -0.1345
   18CHL1   C23 1317  -0.044   6.489   8.951 -0.6132 -0.2650 -0.1057
   18CHL1  H23A 1318  -0.107   6.432   9.024  0.4484 -1.5861 -0.1868
   18CHL1  H23B 1319  -0.050   6.596   8.979  1.6844 -0.3068  0.7784
   18CHL1   C24 1320  -0.110   6.465   8.814  0.0218 -0.0674  0.0015
   18CHL1  H24A 1321  -0.037   6.470   8.731 -0.3484 -0.9175 -0.3881
   18CHL1  H24B 1322  -0.155   6.364   8.818 -1.2362  0.5040  1.3216
   18CHL1   C25 1323  -0.222   6.567   8.799 -0.6772 -0.0928  0.8104
   18CHL1   H25 1324  -0.292   6.569   8.885 -0.6902  0.0010  0.7962
   18CHL1   C26 1325  -0.163   6.710   8.790 -0.1048 -0.4187 -0.0552
   18CHL1  H26A 1326  -0.098   6.737   8.876  0.2869 -0.4721 -0.3296
   18CHL1  H26B 1327  -0.102   6.721   8.698 -0.0272 -0.5114 -0.0148
   18CHL1  H26C 1328  -0.237   6.793   8.793 -0.0598 -0.2439  5.3050
   18CHL1   C27 1329  -0.313   6.547   8.671 -0.2281  0.3476 -0.3926
   18CHL1  H27A 1330  -0.394   6.623   8.672 -1.2113 -0.6756  0.2359
   18CHL1  H27B 1331  -0.263   6.565   8.574 -2.2814 -0.1523 -1.5872
   18CHL1  H27C 1332  -0.364   6.449   8.662 -0.3154  0.5065 -1.6947
   19CHL1    C3 1333   6.175   3.101  10.001  0.2919  0.4695  0.0260
   19CHL1    H3 1334   6.255   3.178  10.007  0.4500  0.2040  2.4918
   19CHL1    O3 1335   6.145   3.092  10.140  0.0208  0.5694  0.2822
   19CHL1   H3' 1336   6.152   2.999  10.165 -0.7106  1.0183  2.3320
   19CHL1    C4 1337   6.044   3.145   9.933 -0.9706 -0.5738 -0.0515
   19CHL1   H4A 1338   5.972   3.072   9.977  0.8820 -1.3761  1.7591
   19CHL1   H4B 1339   6.028   3.245   9.979 -0.9943 -0.5276 -0.1568
   19CHL1    C5 1340   6.037   3.155   9.779  1.0567 -0.0998  0.3474
   19CHL1    C6 1341   5.968   3.251   9.711 -0.4571  0.6048  0.2851
   19CHL1    H6 1342   5.911   3.330   9.763 -2.2655  1.6427 -2.9568
   19CHL1    C7 1343   5.949   3.248   9.564 -0.2948  0.5169 -0.2824
   19CHL1   H7A 1344   5.838   3.256   9.554 -0.3107 -1.2337 -2.3016
   19CHL1   H7B 1345   5.993   3.342   9.526  0.6419  1.0792  2.0505
   19CHL1    C8 1346   6.009   3.127   9.487  0.1930  0.0626  0.7061
   19CHL1    H8 1347   5.924   3.056   9.483 -2.8867  3.4604  0.9625
   19CHL1   C14 1348   6.056   3.166   9.351 -0.0930  1.1639  0.0856
   19CHL1   H14 1349   6.136   3.244   9.359 -1.8747  2.8978  2.0524
   19CHL1   C15 1350   5.956   3.248   9.265  0.9432  0.7845  0.2383
   19CHL1  H15A 1351   5.851   3.209   9.266  1.3372 -0.7209 -3.4077
   19CHL1  H15B 1352   5.950   3.353   9.299  2.8217  0.7815  0.6626
   19CHL1   C16 1353   6.007   3.239   9.126  0.0684 -0.4439 -0.2348
   19CHL1  H16A 1354   5.924   3.229   9.054  1.1852 -1.8125 -1.3824
   19CHL1  H16B 1355   6.067   3.329   9.100 -2.8161  1.4630 -0.6946
   19CHL1   C17 1356   6.117   3.128   9.130 -0.7204  0.9332  0.6050
   19CHL1   H17 1357   6.216   3.178   9.137 -1.3080  2.0906  0.9960
   19CHL1   C13 1358   6.095   3.054   9.263 -0.4419  1.0619 -0.4546
   19CHL1   C18 1359   5.982   2.944   9.242  0.6471 -0.8641 -0.2296
   19CHL1  H18A 1360   5.952   2.901   9.340 -0.3543  0.1527 -0.0703
   19CHL1  H18B 1361   5.900   2.994   9.188  0.5459 -0.9813 -0.1851
   19CHL1  H18C 1362   6.018   2.858   9.182  0.2372 -0.5961 -0.8606
   19CHL1   C12 1363   6.221   2.995   9.328 -0.1741  0.2396  0.7758
   19CHL1  H12A 1364   6.258   2.910   9.267 -0.8270 -1.3937  2.5496
   19CHL1  H12B 1365   6.289   3.082   9.313 -0.3891  0.2162 -0.4926
   19CHL1   C11 1366   6.195   2.947   9.478 -0.7215  0.0837  0.4138
   19CHL1  H11A 1367   6.138   2.852   9.474 -0.2783 -0.1457 -1.2152
   19CHL1  H11B 1368   6.293   2.921   9.523 -0.6558 -0.4599 -0.0308
   19CHL1    C9 1369   6.135   3.063   9.557 -0.5998 -0.6277  0.1072
   19CHL1    H9 1370   6.210   3.144   9.547  0.6544 -1.7190  0.4610
   19CHL1   C10 1371   6.113   3.036   9.709 -0.4482  0.6305  0.1501
   19CHL1   C19 1372   6.038   2.900   9.725 -0.1974 -0.8377  0.0122
   19CHL1  H19A 1373   6.008   2.880   9.830 -0.1002  1.4799  0.5280
   19CHL1  H19B 1374   5.947   2.891   9.661 -0.2367  2.0164 -0.4650
   19CHL1  H19C 1375   6.106   2.819   9.690  0.8780 -1.0491  2.3932
   19CHL1    C1 1376   6.247   3.010   9.779 -0.0488 -0.5244  0.3139
   19CHL1   H1A 1377   6.301   2.919   9.745 -0.8824 -1.7220  2.0342
   19CHL1   H1B 1378   6.320   3.093   9.771  1.5572 -1.6986  2.0429
   19CHL1    C2 1379   6.230   2.983   9.932 -1.4052  1.2183  0.2657
   19CHL1   H2A 1380   6.328   2.966   9.980 -1.7639  2.4258  1.4979
   19CHL1   H2B 1381   6.165   2.896   9.957 -0.7589  0.4261 -0.7503
   19CHL1   C20 1382   6.117   3.050   8.996 -0.0448 -0.5822  0.6471
   19CHL1   H20 1383   6.018   3.005   8.974 -0.8228  0.9751  0.8405
   19CHL1   C21 1384   6.227   2.937   8.997  0.1659  0.4158 -0.0105
   19CHL1  H21A 1385   6.232   2.904   8.891  1.5947 -0.5401  0.3295
   19CHL1  H21B 1386   6.195   2.852   9.062 -0.6284 -0.2991 -1.2858
   19CHL1  H21C 1387   6.326   2.968   9.035  0.5777 -1.1300  0.2544
   19CHL1   C22 1388   6.147   3.147   8.873 -0.1570  0.7132 -0.2428
   19CHL1  H22A 1389   6.130   3.094   8.777  1.2629 -0.9874  0.4066
   19CHL1  H22B 1390   6.069   3.226   8.882 -1.0289 -0.1270 -0.2849
   19CHL1   C23 1391   6.286   3.218   8.877 -0.4823  0.0452  0.4437
   19CHL1  H23A 1392   6.277   3.289   8.963  0.2036  2.0092 -1.0193
   19CHL1  H23B 1393   6.372   3.150   8.893 -0.5875 -0.2480 -0.2359
   19CHL1   C24 1394   6.320   3.294   8.739 -0.4736 -0.3283 -0.1461
   19CHL1  H24A 1395   6.414   3.352   8.747 -0.7441  0.2381 -0.9262
   19CHL1  H24B 1396   6.333   3.218   8.660  0.2335 -1.1294  0.7257
   19CHL1   C25 1397   6.208   3.399   8.694  0.2963 -0.5380 -0.1343
   19CHL1   H25 1398   6.121   3.333   8.675  0.3888 -0.8841  0.5989
   19CHL1   C26 1399   6.175   3.506   8.797  0.5435 -0.2353 -1.0079
   19CHL1  H26A 1400   6.269   3.552   8.833  0.5897 -1.1279  0.0777
   19CHL1  H26B 1401   6.117   3.587   8.749  1.4475  1.9786  1.4072
   19CHL1  H26C 1402   6.108   3.473   8.880 -0.6136  2.4595 -0.7527
   19CHL1   C27 1403   6.248   3.459   8.557 -0.4860 -0.5546 -0.4803
   19CHL1  H27A 1404   6.283   3.377   8.490  0.6614  1.2998 -2.2928
   19CHL1  H27B 1405   6.173   3.515   8.498 -0.5047  1.0214  0.9810
   19CHL1  H27C 1406   6.332   3.531   8.569 -0.7651 -0.3456  0.2104
   20CHL1    C3 1407   1.946   3.957  10.211 -0.4213 -0.6567  0.3764
   20CHL1    H3 1408   2.038   4.019  10.202 -2.6109  2.6300 -0.9705
   20CHL1    O3 1409   1.950   3.896  10.343  0.1808  0.7700 -0.0734
   20CHL1   H3' 1410   1.867   3.848  10.352  1.1931 -1.6641 -2.3270
   20CHL1    C4 1411   1.824   4.056  10.206 -0.3999 -0.2578  0.1073
   20CHL1   H4A 1412   1.730   4.006  10.236 -1.2666  1.3556  0.1644
   20CHL1   H4B 1413   1.845   4.132  10.284  0.0202  0.2596 -0.4992
   20CHL1    C5 1414   1.829   4.111  10.069 -0.1642 -0.1878  1.0169
   20CHL1    C6 1415   1.846   4.247  10.049  0.3423  0.0383  0.6380
   20CHL1    H6 1416   1.856   4.316  10.134  1.1962  3.2287 -1.8316
   20CHL1    C7 1417   1.843   4.309   9.911 -0.5491 -0.1718 -0.7329
   20CHL1   H7A 1418   1.774   4.396   9.905  0.1839  0.5234  0.4580
   20CHL1   H7B 1419   1.945   4.345   9.884 -1.2560  3.6974  1.0155
   20CHL1    C8 1420   1.807   4.216   9.791 -0.2239 -0.6855  0.2377
   20CHL1    H8 1421   1.697   4.210   9.799 -0.3523  1.4883  0.8931
   20CHL1   C14 1422   1.852   4.281   9.663 -0.9516 -0.0883  0.6632
   20CHL1   H14 1423   1.963   4.282   9.664 -0.8682  2.2316 -1.0290
   20CHL1   C15 1424   1.811   4.429   9.641  1.2705  0.3500  0.0578
   20CHL1  H15A 1425   1.705   4.428   9.673  0.8465 -1.0737 -1.2454
   20CHL1  H15B 1426   1.871   4.497   9.705 -0.1623  1.3709  0.3822
   20CHL1   C16 1427   1.840   4.450   9.495 -0.5530 -0.6862  0.2820
   20CHL1  H16A 1428   1.745   4.489   9.452 -0.7847 -0.7427  0.7362
   20CHL1  H16B 1429   1.921   4.520   9.466 -0.0018 -0.6632  1.7856
   20CHL1   C17 1430   1.873   4.310   9.433  0.4428 -0.0368 -0.6564
   20CHL1   H17 1431   1.984   4.297   9.434  0.5383  0.6918 -1.0786
   20CHL1   C13 1432   1.813   4.206   9.532  0.1591 -0.1782 -0.2934
   20CHL1   C18 1433   1.657   4.207   9.520 -0.0042 -0.2810 -0.2584
   20CHL1  H18A 1434   1.628   4.123   9.587 -0.7082  0.3560  0.2507
   20CHL1  H18B 1435   1.601   4.291   9.566 -3.3542 -0.4819 -3.5634
   20CHL1  H18C 1436   1.614   4.191   9.419 -0.2947 -0.1297 -0.1589
   20CHL1   C12 1437   1.879   4.071   9.549 -0.9537 -0.0025  0.6014
   20CHL1  H12A 1438   1.837   4.000   9.474 -3.4015  1.1642  0.7443
   20CHL1  H12B 1439   1.987   4.075   9.525 -1.5507  2.1772 -2.4914
   20CHL1   C11 1440   1.854   3.997   9.686  0.1726  0.5735  0.0755
   20CHL1  H11A 1441   1.745   3.975   9.682  0.2395 -0.1508  1.5945
   20CHL1  H11B 1442   1.910   3.901   9.684  0.8643  0.9628  0.3595
   20CHL1    C9 1443   1.867   4.079   9.818 -0.1348  0.4404  0.4006
   20CHL1    H9 1444   1.974   4.100   9.840 -0.1884  0.7536  0.3667
   20CHL1   C10 1445   1.823   4.014   9.951  0.5272 -0.4047 -0.0804
   20CHL1   C19 1446   1.673   3.969   9.933 -0.2599 -0.3331  0.0162
   20CHL1  H19A 1447   1.603   4.048   9.899 -0.1583  0.1535  0.9016
   20CHL1  H19B 1448   1.669   3.878   9.870  2.0030  0.1530 -0.9499
   20CHL1  H19C 1449   1.654   3.930  10.035  0.4884 -1.2992 -0.1973
   20CHL1    C1 1450   1.925   3.903   9.972  0.9319  0.0206 -0.5046
   20CHL1   H1A 1451   1.891   3.814   9.914 -1.9176  1.4652 -1.2363
   20CHL1   H1B 1452   2.024   3.946   9.944  0.6612  0.3009 -1.0490
   20CHL1    C2 1453   1.927   3.848  10.116  0.0927 -0.4274 -0.2892
   20CHL1   H2A 1454   2.022   3.791  10.127  1.0016  1.1849  0.6001
   20CHL1   H2B 1455   1.845   3.779  10.146  0.8094 -0.5353  1.5545
   20CHL1   C20 1456   1.839   4.312   9.287 -0.1393  0.3359  0.3376
   20CHL1   H20 1457   1.731   4.335   9.275 -0.8674 -1.6705  2.4272
   20CHL1   C21 1458   1.851   4.162   9.243 -0.1869 -0.2609  0.2081
   20CHL1  H21A 1459   1.941   4.119   9.292 -1.5905 -0.7287  2.5269
   20CHL1  H21B 1460   1.865   4.152   9.133 -1.4419 -1.5979  0.1371
   20CHL1  H21C 1461   1.766   4.100   9.280  1.7476 -2.6489  0.8331
   20CHL1   C22 1462   1.936   4.396   9.194  0.0154 -0.4828  0.0185
   20CHL1  H22A 1463   1.955   4.496   9.239  1.7840 -0.8661  0.1661
   20CHL1  H22B 1464   2.030   4.338   9.203 -0.3020 -0.7002  4.1798
   20CHL1   C23 1465   1.910   4.409   9.044  0.7196 -0.2535  0.6682
   20CHL1  H23A 1466   1.876   4.318   8.990  0.6606  0.6441 -0.8770
   20CHL1  H23B 1467   1.829   4.478   9.009  2.3175  1.5136  0.2717
   20CHL1   C24 1468   2.030   4.465   8.957 -0.0495 -0.1325 -0.7553
   20CHL1  H24A 1469   2.049   4.564   9.003  3.0845 -1.3192  0.8124
   20CHL1  H24B 1470   2.113   4.398   8.987 -0.8193 -0.9668 -0.4320
   20CHL1   C25 1471   2.001   4.473   8.804 -0.2140  0.0151  0.6101
   20CHL1   H25 1472   2.024   4.371   8.765 -1.9038  0.4714 -1.7754
   20CHL1   C26 1473   1.866   4.519   8.762  0.6919 -0.1666  0.1878
   20CHL1  H26A 1474   1.879   4.526   8.652  0.0352  0.5425  0.1485
   20CHL1  H26B 1475   1.781   4.452   8.784  0.0871  0.4691 -0.1989
   20CHL1  H26C 1476   1.846   4.615   8.814  0.1633  1.1779 -2.3300
   20CHL1   C27 1477   2.108   4.571   8.747  0.5433  0.3024 -0.2909
   20CHL1  H27A 1478   2.207   4.530   8.775 -0.0798 -1.3784 -0.4217
   20CHL1  H27B 1479   2.112   4.571   8.636 -0.3335 -1.0143 -0.3451
   20CHL1  H27C 1480   2.090   4.673   8.787 -0.0196  0.9522 -2.1025
   21CHL1    C3 1481   0.209   0.086  10.284  0.1222 -0.4912 -0.4286
   21CHL1    H3 1482   0.269   0.011  10.229  0.2642 -0.5525 -0.1925
   21CHL1    O3 1483   0.271   0.117  10.402  0.0554 -0.0519 -0.1695
   21CHL1   H3' 1484   0.209   0.173  10.449  0.6121 -0.8169  1.5689
   21CHL1    C4 1485   0.193   0.210  10.195  0.0626 -0.6265 -0.1966
   21CHL1   H4A 1486   0.137   0.293  10.244 -0.8897  1.4020 -4.2556
   21CHL1   H4B 1487   0.289   0.263  10.179  0.0702 -0.4180  0.4934
   21CHL1    C5 1488   0.125   0.173  10.065  0.0918 -0.4179 -0.0573
   21CHL1    C6 1489   0.184   0.201   9.950 -0.0262 -0.0526 -0.4403
   21CHL1    H6 1490   0.280   0.255   9.957  0.0242 -0.2231  0.3317
   21CHL1    C7 1491   0.131   0.166   9.816  0.5962  0.8109  0.1056
   21CHL1   H7A 1492   0.154   0.245   9.741 -0.8213  1.5030  0.3623
   21CHL1   H7B 1493   0.188   0.074   9.789  0.8990 -0.1235  3.4463
   21CHL1    C8 1494  -0.019   0.132   9.819  0.1248 -0.7321  0.3103
   21CHL1    H8 1495  -0.075   0.227   9.829  1.7906  0.9762 -3.9455
   21CHL1   C14 1496  -0.063   0.063   9.685  0.2552 -0.4466 -0.9837
   21CHL1   H14 1497   0.001  -0.028   9.677 -0.9426 -1.3316 -0.8233
   21CHL1   C15 1498  -0.034   0.132   9.553 -0.1868 -0.0566  0.8016
   21CHL1  H15A 1499  -0.074   0.235   9.561 -2.2962 -0.5983 -1.5043
   21CHL1  H15B 1500   0.074   0.120   9.528 -0.1578  2.2284 -0.4693
   21CHL1   C16 1501  -0.123   0.053   9.456 -0.0784 -0.0835  0.6284
   21CHL1  H16A 1502  -0.185   0.110   9.384  1.2386 -0.1369 -0.5792
   21CHL1  H16B 1503  -0.052   0.000   9.389  1.6889  2.4964  0.3296
   21CHL1   C17 1504  -0.219  -0.039   9.534  0.1039 -0.6074 -0.4138
   21CHL1   H17 1505  -0.173  -0.140   9.539  1.6023 -0.0589 -1.8626
   21CHL1   C13 1506  -0.208   0.018   9.679  0.0466  0.1734  0.1444
   21CHL1   C18 1507  -0.305   0.138   9.683 -0.2718 -0.1739 -0.9661
   21CHL1  H18A 1508  -0.401   0.083   9.697  1.1778 -2.9262 -1.2143
   21CHL1  H18B 1509  -0.283   0.201   9.772 -0.4216  1.5299 -2.0863
   21CHL1  H18C 1510  -0.315   0.204   9.595  1.8964  0.7138 -0.6167
   21CHL1   C12 1511  -0.226  -0.089   9.790  0.5967 -0.1283  0.2494
   21CHL1  H12A 1512  -0.331  -0.122   9.778  1.2167 -1.7889 -1.2095
   21CHL1  H12B 1513  -0.168  -0.176   9.751  1.2158 -0.2196  1.3037
   21CHL1   C11 1514  -0.187  -0.035   9.924  0.1299  0.1293  0.0759
   21CHL1  H11A 1515  -0.254   0.049   9.952  0.4402  0.8189 -1.1528
   21CHL1  H11B 1516  -0.210  -0.107  10.006 -0.6660  1.2871  0.8941
   21CHL1    C9 1517  -0.048   0.040   9.936 -0.2574  0.0775 -0.0337
   21CHL1    H9 1518   0.019  -0.048   9.921 -1.4930 -1.1905  1.4906
   21CHL1   C10 1519  -0.008   0.093  10.077 -0.0075  0.0323 -0.0553
   21CHL1   C19 1520  -0.121   0.195  10.109  0.1383  0.1985  0.2068
   21CHL1  H19A 1521  -0.224   0.157  10.125 -1.5471  3.6993 -1.1578
   21CHL1  H19B 1522  -0.102   0.241  10.208 -1.3218  0.6479  0.3110
   21CHL1  H19C 1523  -0.134   0.267  10.025 -3.9336 -1.3896 -0.7664
   21CHL1    C1 1524  -0.002  -0.008  10.188 -0.1405  0.2955 -0.5629
   21CHL1   H1A 1525  -0.103  -0.048  10.213  0.5184  0.3609  2.6306
   21CHL1   H1B 1526   0.056  -0.098  10.158 -0.1534 -0.6859  2.0633
   21CHL1    C2 1527   0.064   0.033  10.317  0.5721 -0.0814  0.1580
   21CHL1   H2A 1528   0.087  -0.055  10.381  1.4320  0.5013  0.6714
   21CHL1   H2B 1529   0.013   0.112  10.377  0.3658  0.6128 -0.9054
   21CHL1   C20 1530  -0.356  -0.069   9.459  0.2640 -0.2120  0.5462
   21CHL1   H20 1531  -0.415   0.026   9.457  0.3953 -0.1403 -1.2206
   21CHL1   C21 1532  -0.447  -0.170   9.551 -0.3026 -0.0945  0.7988
   21CHL1  H21A 1533  -0.465  -0.140   9.656  2.1014  1.7142  0.7696
   21CHL1  H21B 1534  -0.409  -0.274   9.560 -1.5213 -0.5626  0.7023
   21CHL1  H21C 1535  -0.550  -0.174   9.509  0.0481 -0.2027 -0.0649
   21CHL1   C22 1536  -0.346  -0.118   9.309 -0.3236 -0.3384 -0.1901
   21CHL1  H22A 1537  -0.300  -0.037   9.248  0.9826  1.2390  2.6842
   21CHL1  H22B 1538  -0.284  -0.208   9.293  1.6366  0.4489  2.3045
   21CHL1   C23 1539  -0.490  -0.144   9.251  0.1734 -0.4485 -0.0252
   21CHL1  H23A 1540  -0.511  -0.241   9.301  0.3062 -0.0304  0.8588
   21CHL1  H23B 1541  -0.552  -0.056   9.280  1.6455  0.7264 -0.3110
   21CHL1   C24 1542  -0.492  -0.152   9.093 -0.0910  0.6063 -0.6101
   21CHL1  H24A 1543  -0.420  -0.082   9.045  1.1684 -0.8809 -0.9800
   21CHL1  H24B 1544  -0.438  -0.245   9.066  3.4234  1.7312  1.8330
   21CHL1   C25 1545  -0.629  -0.160   9.022  0.3002  0.1123 -0.8557
   21CHL1   H25 1546  -0.693  -0.076   9.055 -0.4888 -1.1879  1.1944
   21CHL1   C26 1547  -0.614  -0.165   8.873  0.1630  0.0708 -0.2235
   21CHL1  H26A 1548  -0.553  -0.249   8.832 -0.1053  0.2234 -0.9499
   21CHL1  H26B 1549  -0.716  -0.166   8.830 -1.3695  1.3238  3.1040
   21CHL1  H26C 1550  -0.569  -0.070   8.837  0.5304 -0.1495 -0.3593
   21CHL1   C27 1551  -0.707  -0.287   9.065 -0.1267 -0.5896 -0.1566
   21CHL1  H27A 1552  -0.644  -0.376   9.086  1.0069  0.4054  0.8413
   21CHL1  H27B 1553  -0.771  -0.255   9.150 -0.0190 -0.0194 -0.2892
   21CHL1  H27C 1554  -0.778  -0.316   8.985 -1.7477  1.0676  0.6164
   22CHL1    C3 1555   1.240   2.064   9.895 -0.7525  0.0021  0.0185
   22CHL1    H3 1556   1.314   1.987   9.865  0.5941  0.4466  1.9548
   22CHL1    O3 1557   1.251   2.069  10.034  1.1522  0.0976 -0.3291
   22CHL1   H3' 1558   1.170   2.024  10.060 -0.3844  2.2079 -1.1952
   22CHL1    C4 1559   1.279   2.203   9.841  0.5422 -0.0227  0.5749
   22CHL1   H4A 1560   1.212   2.277   9.889  1.0386  1.0831 -0.4016
   22CHL1   H4B 1561   1.381   2.227   9.877  0.1960  1.3571  0.6920
   22CHL1    C5 1562   1.271   2.213   9.689 -0.0716  0.0903 -0.1350
   22CHL1    C6 1563   1.375   2.253   9.611  0.3668  0.0197 -0.3404
   22CHL1    H6 1564   1.468   2.285   9.659  1.0408  1.3697 -2.4076
   22CHL1    C7 1565   1.379   2.236   9.459  0.2150  0.7847  0.0597
   22CHL1   H7A 1566   1.438   2.318   9.414  0.1857  1.1350  0.6476
   22CHL1   H7B 1567   1.421   2.138   9.428  0.6855  1.5159 -1.7124
   22CHL1    C8 1568   1.239   2.236   9.403 -0.2748  0.6408 -0.0308
   22CHL1    H8 1569   1.191   2.334   9.424 -0.9843  0.0584  1.1918
   22CHL1   C14 1570   1.242   2.203   9.253 -0.2133  0.3665 -0.4813
   22CHL1   H14 1571   1.278   2.099   9.239 -3.9976 -1.0049 -1.2402
   22CHL1   C15 1572   1.338   2.296   9.169  0.7435  0.0698 -0.0166
   22CHL1  H15A 1573   1.324   2.405   9.182 -3.0811  0.1756 -2.9996
   22CHL1  H15B 1574   1.444   2.274   9.191  0.8448 -1.1691 -1.5446
   22CHL1   C16 1575   1.293   2.269   9.026 -0.1102 -0.0524 -0.3496
   22CHL1  H16A 1576   1.294   2.366   8.972  1.5148  0.6811  0.9121
   22CHL1  H16B 1577   1.354   2.204   8.959  0.8217  0.4994 -0.0605
   22CHL1   C17 1578   1.151   2.195   9.042  0.4379  0.4118  0.1159
   22CHL1   H17 1579   1.177   2.088   9.032  1.2933  0.5780  0.5045
   22CHL1   C13 1580   1.106   2.200   9.188  0.5633 -0.0963 -0.1803
   22CHL1   C18 1581   1.041   2.340   9.212  0.4518  0.2816  0.1630
   22CHL1  H18A 1582   1.016   2.356   9.319  1.3624 -0.4701  0.4944
   22CHL1  H18B 1583   1.106   2.422   9.174  0.0112  0.1525 -0.8992
   22CHL1  H18C 1584   0.948   2.359   9.155 -0.0837  1.1099  1.2637
   22CHL1   C12 1585   1.024   2.079   9.254 -0.1348 -0.5626  0.5717
   22CHL1  H12A 1586   0.920   2.073   9.216 -0.3181 -1.8215  1.2162
   22CHL1  H12B 1587   1.076   1.983   9.235 -0.3367 -0.5199 -0.2381
   22CHL1   C11 1588   1.015   2.087   9.404 -0.2708 -0.6100 -0.6959
   22CHL1  H11A 1589   0.943   2.163   9.442  1.6336  1.0465 -0.2382
   22CHL1  H11B 1590   0.988   1.988   9.445  2.3132 -0.7089  0.9961
   22CHL1    C9 1591   1.151   2.125   9.473 -0.7522 -0.3556  0.0515
   22CHL1    H9 1592   1.220   2.039   9.471  0.1312  0.2781  1.6598
   22CHL1   C10 1593   1.141   2.159   9.630  0.9206  0.2198  0.1806
   22CHL1   C19 1594   1.048   2.275   9.662  0.3598  0.3832 -0.4577
   22CHL1  H19A 1595   1.091   2.366   9.615  1.3273 -0.3211 -0.9554
   22CHL1  H19B 1596   0.944   2.269   9.625 -0.3303 -1.1955  1.5823
   22CHL1  H19C 1597   1.039   2.286   9.773 -0.6837  0.4531 -0.5394
   22CHL1    C1 1598   1.093   2.023   9.697  0.2377 -0.3868  0.1821
   22CHL1   H1A 1599   0.987   1.993   9.680  0.0853 -0.2986  0.9602
   22CHL1   H1B 1600   1.161   1.941   9.664  2.6486  1.7073 -0.3992
   22CHL1    C2 1601   1.101   2.021   9.854  0.2301 -0.1693 -0.2308
   22CHL1   H2A 1602   1.091   1.914   9.883  0.3728 -0.4732 -1.2749
   22CHL1   H2B 1603   1.028   2.086   9.907  0.1790  0.6596 -1.2824
   22CHL1   C20 1604   1.049   2.231   8.938  0.2879  0.1596 -0.1198
   22CHL1   H20 1605   1.011   2.333   8.956  1.7207  0.7940 -0.5330
   22CHL1   C21 1606   0.916   2.146   8.951  0.5978  1.1638 -0.1165
   22CHL1  H21A 1607   0.940   2.038   8.957  2.0695  1.4647 -0.0991
   22CHL1  H21B 1608   0.855   2.149   8.859  0.9675  0.2625 -0.4023
   22CHL1  H21C 1609   0.847   2.182   9.030  0.9857 -1.8330  1.7321
   22CHL1   C22 1610   1.114   2.205   8.798  0.1654  0.3622 -0.2825
   22CHL1  H22A 1611   1.204   2.270   8.792  1.4759 -1.3033  0.6572
   22CHL1  H22B 1612   1.148   2.100   8.786  1.7774  1.1044 -3.1212
   22CHL1   C23 1613   1.023   2.241   8.678  0.3071 -0.4700  0.1704
   22CHL1  H23A 1614   0.934   2.174   8.679  1.0226 -1.4736  1.5688
   22CHL1  H23B 1615   0.973   2.339   8.695 -0.1310 -0.8284  1.0527
   22CHL1   C24 1616   1.097   2.235   8.545  0.3255 -0.5409 -0.7455
   22CHL1  H24A 1617   1.181   2.307   8.549 -0.0690 -0.1264  0.5930
   22CHL1  H24B 1618   1.140   2.132   8.537  0.4099 -0.5022 -0.7917
   22CHL1   C25 1619   1.011   2.268   8.425 -0.2217 -0.2653  0.0657
   22CHL1   H25 1620   0.916   2.210   8.417  0.0219 -0.9233  1.5861
   22CHL1   C26 1621   0.983   2.419   8.426  0.0876 -0.2231 -0.1869
   22CHL1  H26A 1622   1.078   2.472   8.405 -0.6514  0.5961 -1.6421
   22CHL1  H26B 1623   0.908   2.440   8.346  0.3420 -0.6324 -0.5380
   22CHL1  H26C 1624   0.929   2.449   8.518  3.6158  0.8257  1.7242
   22CHL1   C27 1625   1.088   2.231   8.292  0.0242 -0.0656  0.2391
   22CHL1  H27A 1626   1.090   2.120   8.286 -0.2051 -0.0661  0.1953
   22CHL1  H27B 1627   1.028   2.271   8.208  1.9185  0.4342 -0.9501
   22CHL1  H27C 1628   1.191   2.273   8.286 -1.1449  2.7933 -2.3484
   23CHL1    C3 1629   3.353   0.823  10.175 -0.0976 -0.2306  0.3872
   23CHL1    H3 1630   3.298   0.748  10.114 -1.3415  0.4606  0.6345
   23CHL1    O3 1631   3.344   0.769  10.303  0.0896  0.2081 -0.4211
   23CHL1   H3' 1632   3.266   0.799  10.349 -0.3645 -2.0147  0.3945
   23CHL1    C4 1633   3.496   0.816  10.121 -0.2766  0.0237  0.3277
   23CHL1   H4A 1634   3.558   0.877  10.191  1.4422  0.4867 -1.5016
   23CHL1   H4B 1635   3.526   0.709  10.119 -3.0749 -0.8720  1.7465
   23CHL1    C5 1636   3.501   0.879   9.988 -0.1131  1.3768 -0.1047
   23CHL1    C6 1637   3.560   0.808   9.885 -0.3341  0.0294  0.1592
   23CHL1    H6 1638   3.602   0.708   9.903  0.2167  0.3129  0.4827
   23CHL1    C7 1639   3.565   0.852   9.742  0.0770  0.3433  0.6345
   23CHL1   H7A 1640   3.662   0.818   9.700 -0.2034  0.1543  0.1381
   23CHL1   H7B 1641   3.492   0.802   9.675 -0.6536  0.0408  1.6278
   23CHL1    C8 1642   3.543   1.010   9.724 -0.1718 -0.7207 -0.4932
   23CHL1    H8 1643   3.640   1.057   9.753 -0.8770  0.3332  0.2159
   23CHL1   C14 1644   3.495   1.035   9.578  0.6310  0.0815  0.0150
   23CHL1   H14 1645   3.393   0.996   9.555  0.2203  1.6546 -0.9531
   23CHL1   C15 1646   3.579   0.967   9.468 -0.1399 -0.2460 -0.5189
   23CHL1  H15A 1647   3.687   0.972   9.492 -0.2126 -0.5489 -0.1218
   23CHL1  H15B 1648   3.557   0.859   9.455  0.4402 -0.4695  0.2767
   23CHL1   C16 1649   3.538   1.049   9.348  0.0383 -0.8149 -0.2851
   23CHL1  H16A 1650   3.628   1.082   9.292  0.5448  1.5915  1.7907
   23CHL1  H16B 1651   3.474   0.981   9.287 -0.2462  0.6266 -1.6505
   23CHL1   C17 1652   3.456   1.176   9.395 -0.4627 -0.2691 -1.1692
   23CHL1   H17 1653   3.349   1.147   9.392 -0.5263 -0.0547 -0.9756
   23CHL1   C13 1654   3.485   1.186   9.548 -1.1230 -0.0772  0.8230
   23CHL1   C18 1655   3.618   1.261   9.564 -0.4762 -0.1495  0.2049
   23CHL1  H18A 1656   3.651   1.268   9.670  2.0923  1.9106 -0.6121
   23CHL1  H18B 1657   3.696   1.202   9.512 -1.6044 -0.9188 -0.6336
   23CHL1  H18C 1658   3.618   1.367   9.530  1.8600  0.1965  1.0420
   23CHL1   C12 1659   3.371   1.241   9.636  0.4382 -0.4900 -0.6143
   23CHL1  H12A 1660   3.365   1.348   9.607 -3.1708  0.3256  2.4524
   23CHL1  H12B 1661   3.275   1.195   9.605  0.9613 -1.8562 -0.2716
   23CHL1   C11 1662   3.407   1.214   9.786 -0.3311 -0.6422  0.2977
   23CHL1  H11A 1663   3.502   1.267   9.805  0.5638 -2.7385  1.9771
   23CHL1  H11B 1664   3.335   1.266   9.853  0.7710  1.7731 -0.2683
   23CHL1    C9 1665   3.426   1.060   9.812  0.7771 -0.6264 -0.3724
   23CHL1    H9 1666   3.342   1.000   9.769 -1.0378  1.2057  0.5001
   23CHL1   C10 1667   3.446   1.020   9.958 -0.0911  0.1149  1.0309
   23CHL1   C19 1668   3.550   1.119  10.022 -0.2570 -0.0846 -0.0664
   23CHL1  H19A 1669   3.636   1.126   9.952  0.1573  1.9509  0.5953
   23CHL1  H19B 1670   3.501   1.217  10.039 -1.4553 -0.6943  0.1549
   23CHL1  H19C 1671   3.584   1.082  10.121  0.9874  1.5200  0.1408
   23CHL1    C1 1672   3.301   1.030  10.024  0.0285  0.5524 -0.6541
   23CHL1   H1A 1673   3.264   1.135  10.028  0.3764  0.7493 -2.0860
   23CHL1   H1B 1674   3.227   0.969   9.969  1.1485 -2.7068  1.1684
   23CHL1    C2 1675   3.301   0.971  10.171  0.1956  0.2976 -0.6577
   23CHL1   H2A 1676   3.203   0.982  10.222  1.3600  1.3628  1.5176
   23CHL1   H2B 1677   3.366   1.043  10.226 -0.9171  1.4323 -0.7702
   23CHL1   C20 1678   3.457   1.298   9.291 -0.5957 -0.3243  0.2635
   23CHL1   H20 1679   3.559   1.342   9.293 -0.6993 -0.0201 -0.8008
   23CHL1   C21 1680   3.358   1.407   9.340 -1.0350  0.5317  0.2410
   23CHL1  H21A 1681   3.343   1.487   9.264  1.2557 -0.9087 -1.8860
   23CHL1  H21B 1682   3.387   1.450   9.438 -1.8041  1.8877 -0.1038
   23CHL1  H21C 1683   3.262   1.358   9.367  0.6637 -2.0432  2.1216
   23CHL1   C22 1684   3.428   1.246   9.152  0.4408  0.5155 -0.2098
   23CHL1  H22A 1685   3.495   1.165   9.117 -0.7489  0.1342 -1.7017
   23CHL1  H22B 1686   3.332   1.192   9.164 -0.3091  1.3611 -1.9848
   23CHL1   C23 1687   3.397   1.342   9.041  0.4694  1.1749  0.0805
   23CHL1  H23A 1688   3.359   1.289   8.950 -1.8433  1.5207  0.7874
   23CHL1  H23B 1689   3.304   1.394   9.074 -1.2577 -1.7901  0.3117
   23CHL1   C24 1690   3.494   1.447   9.002  0.5275 -0.1301 -0.1463
   23CHL1  H24A 1691   3.431   1.513   8.938  2.2078  0.7228 -0.9876
   23CHL1  H24B 1692   3.523   1.494   9.098 -2.7400 -1.6770  1.7842
   23CHL1   C25 1693   3.621   1.402   8.926  0.0696 -0.2625 -0.0915
   23CHL1   H25 1694   3.670   1.494   8.889 -0.8420 -0.0617 -0.8463
   23CHL1   C26 1695   3.721   1.336   9.025  0.1342  0.1707 -0.0644
   23CHL1  H26A 1696   3.718   1.373   9.130 -2.1129 -0.8819  0.2959
   23CHL1  H26B 1697   3.706   1.226   9.025  3.0531 -0.3724  2.0393
   23CHL1  H26C 1698   3.824   1.340   8.983 -0.1115  0.0873 -0.6727
   23CHL1   C27 1699   3.598   1.321   8.800 -0.9565 -0.2452  0.1301
   23CHL1  H27A 1700   3.684   1.337   8.731 -1.0626  0.7855  0.2172
   23CHL1  H27B 1701   3.587   1.214   8.827  0.7514 -0.0154  1.9801
   23CHL1  H27C 1702   3.504   1.342   8.744 -0.5401  2.4647  0.2997
   24CHL1    C3 1703   5.813   1.400  10.110 -0.3309 -0.1174 -0.0322
   24CHL1    H3 1704   5.865   1.496  10.089  0.7143 -0.9008 -1.2109
   24CHL1    O3 1705   5.799   1.384  10.247 -0.0960 -0.0849  0.1576
   24CHL1   H3' 1706   5.810   1.468  10.292  0.0696 -0.6523  1.2062
   24CHL1    C4 1707   5.669   1.410  10.063  0.1308  0.1125 -0.3459
   24CHL1   H4A 1708   5.602   1.328  10.096  0.6075 -0.1864 -0.1136
   24CHL1   H4B 1709   5.618   1.499  10.107 -1.1924 -0.5184 -0.5360
   24CHL1    C5 1710   5.684   1.431   9.909  0.1201  0.3924 -0.5452
   24CHL1    C6 1711   5.648   1.555   9.862  0.2564 -1.1562  0.1441
   24CHL1    H6 1712   5.608   1.639   9.921 -0.0101 -1.4495  0.3841
   24CHL1    C7 1713   5.653   1.584   9.713  0.2247 -0.2097 -0.3036
   24CHL1   H7A 1714   5.566   1.645   9.682  0.9648  0.8974 -0.2456
   24CHL1   H7B 1715   5.742   1.643   9.682  0.4253 -0.1074  0.4654
   24CHL1    C8 1716   5.664   1.458   9.630 -0.0882  0.0830  0.9836
   24CHL1    H8 1717   5.567   1.405   9.637  0.7323 -1.3813  1.6219
   24CHL1   C14 1718   5.702   1.500   9.489  0.7720 -0.4002  0.3102
   24CHL1   H14 1719   5.795   1.559   9.483  0.3935  0.2790  0.9421
   24CHL1   C15 1720   5.601   1.598   9.420 -0.1594 -0.4525 -0.3139
   24CHL1  H15A 1721   5.496   1.569   9.440 -0.4986 -0.6827 -2.2137
   24CHL1  H15B 1722   5.629   1.703   9.442  1.8806 -0.5801 -1.9838
   24CHL1   C16 1723   5.625   1.571   9.269  0.3139  0.0915 -0.3844
   24CHL1  H16A 1724   5.523   1.554   9.227 -1.1533  1.4289  2.3455
   24CHL1  H16B 1725   5.670   1.654   9.212  1.1277  0.6912  1.0799
   24CHL1   C17 1726   5.731   1.453   9.252 -0.7388  0.0359 -0.2874
   24CHL1   H17 1727   5.828   1.505   9.249 -0.8029  0.3397  1.5814
   24CHL1   C13 1728   5.723   1.379   9.390  0.1061 -0.2106 -0.1856
   24CHL1   C18 1729   5.598   1.296   9.381  0.6500 -0.7574 -0.0359
   24CHL1  H18A 1730   5.566   1.271   9.485  2.2530 -0.2947  0.5891
   24CHL1  H18B 1731   5.512   1.337   9.325 -1.4366 -0.2236  3.2586
   24CHL1  H18C 1732   5.634   1.209   9.323 -1.3889 -2.1418  0.6344
   24CHL1   C12 1733   5.847   1.301   9.438  0.2242  0.3221  0.6434
   24CHL1  H12A 1734   5.874   1.215   9.373 -2.9719  0.6214 -1.3305
   24CHL1  H12B 1735   5.929   1.375   9.430  0.3329  0.2950  1.4212
   24CHL1   C11 1736   5.819   1.259   9.579 -0.7783 -0.0514  0.6623
   24CHL1  H11A 1737   5.747   1.175   9.586 -0.9979 -0.2892 -2.7924
   24CHL1  H11B 1738   5.920   1.226   9.614 -0.2826  2.5514  1.9460
   24CHL1    C9 1739   5.781   1.374   9.678 -0.1327  0.1329  0.6890
   24CHL1    H9 1740   5.870   1.440   9.684  1.2283 -1.1799 -2.8018
   24CHL1   C10 1741   5.758   1.321   9.826  0.0814  0.1614 -0.4767
   24CHL1   C19 1742   5.663   1.195   9.820 -0.5261  0.3914  0.3701
   24CHL1  H19A 1743   5.717   1.102   9.793 -0.7913 -0.4963  2.6674
   24CHL1  H19B 1744   5.610   1.174   9.915 -1.1273  0.1282 -0.0176
   24CHL1  H19C 1745   5.583   1.215   9.745 -0.7567  0.5150  0.6421
   24CHL1    C1 1746   5.890   1.278   9.893 -0.5712  0.0584 -0.6682
   24CHL1   H1A 1747   5.926   1.178   9.860  0.4706  0.0736  0.3608
   24CHL1   H1B 1748   5.972   1.347   9.862  0.0737 -1.2889 -2.1028
   24CHL1    C2 1749   5.883   1.279  10.053 -0.4591  0.1909  0.3679
   24CHL1   H2A 1750   5.986   1.275  10.095  0.2132  2.7761 -0.7974
   24CHL1   H2B 1751   5.825   1.195  10.097  0.9711 -1.5910 -1.0295
   24CHL1   C20 1752   5.710   1.372   9.126 -0.2643  0.1013  0.5119
   24CHL1   H20 1753   5.608   1.329   9.133 -1.1767  2.0018 -0.2439
   24CHL1   C21 1754   5.813   1.264   9.095  0.8912  0.0215 -0.0071
   24CHL1  H21A 1755   5.811   1.181   9.169 -1.6031  0.0197 -0.0011
   24CHL1  H21B 1756   5.912   1.314   9.096  0.8971  0.0118 -0.0550
   24CHL1  H21C 1757   5.785   1.224   8.995 -1.3349  2.1452 -0.3264
   24CHL1   C22 1758   5.698   1.454   8.988 -0.2130  0.1924 -0.3634
   24CHL1  H22A 1759   5.700   1.376   8.910 -3.8929 -0.3994 -0.0270
   24CHL1  H22B 1760   5.594   1.494   8.985 -0.0643  0.6935  0.7405
   24CHL1   C23 1761   5.808   1.555   8.965  0.5252 -0.5965  0.1422
   24CHL1  H23A 1762   5.810   1.634   9.044  0.8408  0.5010 -0.9342
   24CHL1  H23B 1763   5.902   1.497   8.973  0.6259 -0.9310 -2.5170
   24CHL1   C24 1764   5.806   1.626   8.830 -0.0958  0.4298 -0.0732
   24CHL1  H24A 1765   5.718   1.695   8.836 -0.3033  0.0404  1.9148
   24CHL1  H24B 1766   5.894   1.686   8.797  0.9747 -0.8729  0.3378
   24CHL1   C25 1767   5.773   1.546   8.696 -0.4555 -0.3131  0.6932
   24CHL1   H25 1768   5.676   1.491   8.696 -0.4636 -0.3976 -2.0407
   24CHL1   C26 1769   5.752   1.636   8.569  0.3948 -0.1193  0.3463
   24CHL1  H26A 1770   5.681   1.721   8.581  0.8320  0.2601  0.2562
   24CHL1  H26B 1771   5.851   1.682   8.550 -0.4718  2.4690  1.5155
   24CHL1  H26C 1772   5.725   1.576   8.480  0.2979  1.3032 -0.6217
   24CHL1   C27 1773   5.891   1.454   8.656  0.3534  0.3463 -1.3139
   24CHL1  H27A 1774   5.918   1.370   8.724  1.1908  1.1665 -0.5991
   24CHL1  H27B 1775   5.886   1.419   8.551 -0.5024  1.7086 -1.7524
   24CHL1  H27C 1776   5.982   1.515   8.672  0.8795 -0.5685 -0.6864
   25CHL1    C3 1777   0.301   3.773  10.352 -0.1575  0.7029  0.4460
   25CHL1    H3 1778   0.205   3.718  10.341  0.2911  0.3493 -2.3617
   25CHL1    O3 1779   0.333   3.763  10.491 -0.6812  0.0440  0.3138
   25CHL1   H3' 1780   0.428   3.748  10.495 -1.0688 -2.9037  1.4198
   25CHL1    C4 1781   0.411   3.702  10.282 -0.4718  0.5454  0.3843
   25CHL1   H4A 1782   0.509   3.754  10.286  0.5138 -0.8076 -2.8166
   25CHL1   H4B 1783   0.417   3.602  10.330 -1.3116 -1.0998 -2.7203
   25CHL1    C5 1784   0.394   3.704  10.132  0.3497 -0.5028 -0.2496
   25CHL1    C6 1785   0.398   3.588  10.068  0.3318 -0.2182  0.5041
   25CHL1    H6 1786   0.423   3.497  10.124  0.6618 -0.7489 -0.4840
   25CHL1    C7 1787   0.380   3.572   9.918  0.3883  0.0996  0.2290
   25CHL1   H7A 1788   0.454   3.505   9.869 -0.4330  0.1319 -1.1065
   25CHL1   H7B 1789   0.278   3.539   9.888  0.7293 -0.7668  0.0034
   25CHL1    C8 1790   0.408   3.716   9.852  0.3964 -0.0772  0.1270
   25CHL1    H8 1791   0.514   3.742   9.869  0.7465 -1.9236  0.9452
   25CHL1   C14 1792   0.351   3.708   9.713 -0.0978  0.1529  0.6435
   25CHL1   H14 1793   0.243   3.683   9.705  0.1644 -0.7831 -0.1899
   25CHL1   C15 1794   0.423   3.607   9.614 -0.5247 -0.3862  0.0275
   25CHL1  H15A 1795   0.531   3.632   9.619 -1.2185  3.1055  0.2326
   25CHL1  H15B 1796   0.391   3.506   9.647  1.4636 -0.8392  0.7204
   25CHL1   C16 1797   0.367   3.645   9.471  0.4997 -0.1930 -0.4146
   25CHL1  H16A 1798   0.449   3.666   9.399 -1.0930  1.1727 -1.9240
   25CHL1  H16B 1799   0.288   3.578   9.431 -0.7468  1.2061 -0.3730
   25CHL1   C17 1800   0.304   3.789   9.490  0.3791 -0.0077  0.3909
   25CHL1   H17 1801   0.193   3.781   9.497  0.4516 -0.4868  0.9878
   25CHL1   C13 1802   0.345   3.839   9.632  0.1265  0.5157  0.5625
   25CHL1   C18 1803   0.481   3.907   9.626 -0.4184  0.0685 -0.3866
   25CHL1  H18A 1804   0.515   3.924   9.731  0.3018  2.1936 -0.9096
   25CHL1  H18B 1805   0.561   3.847   9.578 -0.6314 -3.1896  2.8933
   25CHL1  H18C 1806   0.474   4.008   9.580  0.6274  0.5270  0.3929
   25CHL1   C12 1807   0.248   3.938   9.705 -0.9347  0.4263  0.0880
   25CHL1  H12A 1808   0.243   4.043   9.670 -0.8085  1.4496  2.9079
   25CHL1  H12B 1809   0.152   3.882   9.701  0.4405 -2.1286  0.6932
   25CHL1   C11 1810   0.291   3.952   9.855  0.5646 -0.6896  0.7532
   25CHL1  H11A 1811   0.369   4.031   9.859 -0.7301  0.6684  0.0227
   25CHL1  H11B 1812   0.201   3.998   9.902 -0.2406  1.1772 -2.2872
   25CHL1    C9 1813   0.323   3.822   9.934  0.2116 -1.1116 -0.0962
   25CHL1    H9 1814   0.222   3.776   9.939 -0.7564  0.7076 -1.4707
   25CHL1   C10 1815   0.366   3.842  10.077 -0.3452  0.3306  0.2212
   25CHL1   C19 1816   0.493   3.936  10.073 -0.5272 -0.6581 -0.3546
   25CHL1  H19A 1817   0.523   3.958  10.177 -0.1883 -2.6371  0.0024
   25CHL1  H19B 1818   0.570   3.894  10.005  0.1776  2.2575 -1.5236
   25CHL1  H19C 1819   0.469   4.040  10.042 -1.2419 -0.0194  2.1200
   25CHL1    C1 1820   0.262   3.923  10.155 -0.6243  0.0751  0.0018
   25CHL1   H1A 1821   0.264   4.029  10.120  1.6411 -0.1607 -0.6955
   25CHL1   H1B 1822   0.161   3.883  10.131 -0.5099 -0.4290  0.3427
   25CHL1    C2 1823   0.267   3.913  10.311 -0.0045 -0.7758  0.2128
   25CHL1   H2A 1824   0.177   3.952  10.364  0.4418  0.4077  0.1213
   25CHL1   H2B 1825   0.353   3.975  10.343  1.0395 -2.4287  0.7633
   25CHL1   C20 1826   0.329   3.885   9.370  0.1193  0.3406  1.1544
   25CHL1   H20 1827   0.436   3.917   9.363  0.1488  0.0197 -0.1805
   25CHL1   C21 1828   0.239   4.006   9.373 -0.3615 -0.7054  0.1639
   25CHL1  H21A 1829   0.249   4.080   9.290 -0.7903 -0.7573  0.0629
   25CHL1  H21B 1830   0.261   4.059   9.468  0.1398  1.0992 -0.8928
   25CHL1  H21C 1831   0.135   3.969   9.383 -0.0847 -1.4796  0.2556
   25CHL1   C22 1832   0.314   3.816   9.226  1.1056  0.3236 -0.3815
   25CHL1  H22A 1833   0.380   3.727   9.221  0.5142 -0.1543  0.1793
   25CHL1  H22B 1834   0.208   3.786   9.213  0.4176  2.1972  0.5078
   25CHL1   C23 1835   0.369   3.894   9.098 -0.6824 -0.3172  0.1222
   25CHL1  H23A 1836   0.346   3.815   9.024  4.6645 -1.2950 -0.8975
   25CHL1  H23B 1837   0.315   3.989   9.077  0.1837 -0.4063 -3.1176
   25CHL1   C24 1838   0.517   3.926   9.096 -0.3494  0.3684 -0.3663
   25CHL1  H24A 1839   0.556   3.971   9.189  2.2083 -0.3403 -0.9973
   25CHL1  H24B 1840   0.571   3.829   9.084  2.4756  1.6524  0.9330
   25CHL1   C25 1841   0.561   4.021   8.986 -0.0431  0.4037  0.4523
   25CHL1   H25 1842   0.516   4.122   8.996  2.8979  1.6596  2.2745
   25CHL1   C26 1843   0.714   4.037   8.980 -0.3421  0.9600  0.0297
   25CHL1  H26A 1844   0.746   4.065   9.083 -0.5531  0.9381  0.1007
   25CHL1  H26B 1845   0.762   3.945   8.942  0.4826  1.2494  0.3330
   25CHL1  H26C 1846   0.754   4.120   8.918  1.0492 -1.3318 -2.3258
   25CHL1   C27 1847   0.501   3.974   8.848  0.1811 -0.5228  0.8828
   25CHL1  H27A 1848   0.563   3.886   8.820 -1.0804 -1.9700  2.3956
   25CHL1  H27B 1849   0.390   3.969   8.836  0.2858  0.8904 -1.1411
   25CHL1  H27C 1850   0.527   4.056   8.778 -1.1329  0.6349  1.6897
   26CHL1    C3 1851   0.949   0.880  10.044  0.6197  0.2346 -0.0593
   26CHL1    H3 1852   0.880   0.797  10.019 -0.9903  1.2678  0.7821
   26CHL1    O3 1853   0.949   0.887  10.186  0.0225 -0.3024  0.5746
   26CHL1   H3' 1854   0.997   0.806  10.203 -1.3193 -0.9655  1.3859
   26CHL1    C4 1855   1.091   0.865   9.987  0.4900 -0.7403  0.3760
   26CHL1   H4A 1856   1.156   0.948  10.024 -0.9464  1.2869 -1.4083
   26CHL1   H4B 1857   1.128   0.771  10.032  2.7494  0.4717  1.2537
   26CHL1    C5 1858   1.096   0.865   9.838 -0.1722  0.4972  0.4407
   26CHL1    C6 1859   1.165   0.770   9.764  0.0317 -0.2360 -0.5613
   26CHL1    H6 1860   1.221   0.697   9.824 -0.8861 -2.3623 -2.1533
   26CHL1    C7 1861   1.159   0.773   9.615 -1.1604  0.3656 -0.5814
   26CHL1   H7A 1862   1.266   0.757   9.588 -0.0897  4.1029  0.8039
   26CHL1   H7B 1863   1.088   0.697   9.576  2.7242 -3.8267 -0.3845
   26CHL1    C8 1864   1.110   0.898   9.546  0.5108  0.0107  0.3548
   26CHL1    H8 1865   1.193   0.971   9.542  0.6266 -0.1382  0.0575
   26CHL1   C14 1866   1.075   0.863   9.399 -0.4880 -0.1793 -0.0064
   26CHL1   H14 1867   1.005   0.777   9.402  1.8803 -2.2872 -0.8897
   26CHL1   C15 1868   1.194   0.798   9.316  0.1327  0.0953  0.0074
   26CHL1  H15A 1869   1.281   0.864   9.334 -0.6163  0.6140  1.9073
   26CHL1  H15B 1870   1.211   0.692   9.342 -2.7458 -0.5359 -0.3164
   26CHL1   C16 1871   1.160   0.823   9.167  0.1355  0.1569 -0.5010
   26CHL1  H16A 1872   1.236   0.885   9.114 -2.2640  2.3440 -1.5936
   26CHL1  H16B 1873   1.138   0.735   9.103 -0.7206  0.7125 -0.9959
   26CHL1   C17 1874   1.030   0.909   9.170 -0.1176 -0.3942 -0.8734
   26CHL1   H17 1875   0.947   0.836   9.175  0.0284 -0.6978 -2.3124
   26CHL1   C13 1876   1.022   0.978   9.312  0.5813  0.0114  0.5986
   26CHL1   C18 1877   1.129   1.097   9.313 -0.2133 -0.1872  0.1889
   26CHL1  H18A 1878   1.229   1.067   9.275  0.3253 -0.1321  1.4877
   26CHL1  H18B 1879   1.082   1.182   9.260 -1.2945 -0.7338  0.2348
   26CHL1  H18C 1880   1.158   1.143   9.410 -0.6896  3.1563 -1.1362
   26CHL1   C12 1881   0.893   1.017   9.377  0.7076 -0.1138 -0.6521
   26CHL1  H12A 1882   0.840   1.103   9.332 -0.5940 -0.4650  0.1585
   26CHL1  H12B 1883   0.823   0.931   9.381  1.0102 -0.3221  0.8284
   26CHL1   C11 1884   0.921   1.061   9.524 -0.1347  0.1040  0.2264
   26CHL1  H11A 1885   0.979   1.155   9.520  0.1570 -0.1193 -3.2546
   26CHL1  H11B 1886   0.819   1.075   9.566 -0.1082 -2.4808  1.3606
   26CHL1    C9 1887   0.982   0.945   9.615  0.5555  0.5541 -0.0949
   26CHL1    H9 1888   0.919   0.857   9.591  3.4242 -1.0464 -2.5167
   26CHL1   C10 1889   1.000   0.968   9.764  0.5040 -0.2730 -0.3222
   26CHL1   C19 1890   1.076   1.101   9.770  0.1114 -0.9345  0.2712
   26CHL1  H19A 1891   1.021   1.190   9.732  1.0230  0.0299  1.1122
   26CHL1  H19B 1892   1.092   1.123   9.878  0.3308 -0.9519  0.2428
   26CHL1  H19C 1893   1.174   1.095   9.718  0.1974  0.1776  0.2702
   26CHL1    C1 1894   0.863   0.983   9.837 -0.3225 -0.2572  0.7896
   26CHL1   H1A 1895   0.821   1.074   9.789 -0.1045  0.1949  1.4411
   26CHL1   H1B 1896   0.800   0.894   9.817  0.6266 -0.5046 -1.3994
   26CHL1    C2 1897   0.873   1.000   9.984  0.1930 -0.1064 -0.5006
   26CHL1   H2A 1898   0.772   1.003  10.030 -0.4561  1.5392 -1.9324
   26CHL1   H2B 1899   0.929   1.093  10.008 -2.4202  1.1309  1.2586
   26CHL1   C20 1900   1.029   1.002   9.049 -0.1818  0.3070  0.6319
   26CHL1   H20 1901   1.106   1.082   9.050 -0.9080  1.2623 -3.2246
   26CHL1   C21 1902   0.888   1.078   9.032 -0.0756  0.4799 -1.0711
   26CHL1  H21A 1903   0.807   1.002   9.029  1.2068 -0.9261 -2.2552
   26CHL1  H21B 1904   0.882   1.152   8.950 -1.2497 -0.5256 -1.9314
   26CHL1  H21C 1905   0.882   1.132   9.129 -2.5118  0.6168 -1.2425
   26CHL1   C22 1906   1.051   0.924   8.914  1.1638  0.4834 -0.2220
   26CHL1  H22A 1907   1.074   0.992   8.829 -1.6419 -0.0752 -1.5621
   26CHL1  H22B 1908   1.138   0.855   8.914 -0.0820 -1.1921  1.5893
   26CHL1   C23 1909   0.938   0.834   8.862  0.1335  0.5400 -0.0804
   26CHL1  H23A 1910   0.899   0.753   8.928  0.9133 -1.3834 -1.8749
   26CHL1  H23B 1911   0.858   0.904   8.830  1.7797  1.3927 -2.5907
   26CHL1   C24 1912   0.979   0.775   8.727 -0.3618  0.4484 -0.2160
   26CHL1  H24A 1913   0.973   0.850   8.645  1.0050  3.1560  1.9874
   26CHL1  H24B 1914   1.085   0.745   8.722 -0.8202 -1.1707 -3.4976
   26CHL1   C25 1915   0.903   0.653   8.676  0.7129 -0.4762 -0.3226
   26CHL1   H25 1916   0.799   0.688   8.660  1.1263  1.5976  1.0966
   26CHL1   C26 1917   0.955   0.608   8.541  0.1435 -0.4265 -0.2757
   26CHL1  H26A 1918   0.934   0.680   8.459 -2.7705 -1.6955 -0.7727
   26CHL1  H26B 1919   1.065   0.597   8.554  0.0526 -0.5143  0.5036
   26CHL1  H26C 1920   0.906   0.512   8.516  2.8892 -2.2086  0.7649
   26CHL1   C27 1921   0.916   0.534   8.771 -0.0759  0.1401 -0.3657
   26CHL1  H27A 1922   0.903   0.433   8.728  0.9307 -0.1920  0.0689
   26CHL1  H27B 1923   1.012   0.552   8.824 -0.2795  1.0255 -0.2809
   26CHL1  H27C 1924   0.840   0.555   8.850 -1.9756  1.8121 -2.4765
   27CHL1    C3 1925   0.047   4.861  10.227  0.2557  0.2455  1.1461
   27CHL1    H3 1926   0.106   4.953  10.245  1.2475 -0.4069  1.3306
   27CHL1    O3 1927   0.024   4.813  10.358 -0.0098  0.0236 -0.7614
   27CHL1   H3' 1928  -0.071   4.804  10.371  0.3016 -1.6557  0.7185
   27CHL1    C4 1929  -0.082   4.893  10.149  0.5561  1.0281  0.2442
   27CHL1   H4A 1930  -0.156   4.810  10.148  1.0617  0.5748 -0.4611
   27CHL1   H4B 1931  -0.137   4.971  10.207 -0.4708  0.4915  0.0275
   27CHL1    C5 1932  -0.071   4.937  10.006 -0.2450 -0.8559  0.3158
   27CHL1    C6 1933  -0.124   5.053   9.956 -0.1857  0.2385  0.7207
   27CHL1    H6 1934  -0.192   5.110  10.020 -0.0089  0.5147  0.6624
   27CHL1    C7 1935  -0.103   5.091   9.813 -0.1981 -0.1479 -0.2657
   27CHL1   H7A 1936  -0.201   5.131   9.779 -0.6003 -0.5316  0.4137
   27CHL1   H7B 1937  -0.023   5.168   9.812 -0.5895  0.2635 -0.6338
   27CHL1    C8 1938  -0.044   4.978   9.717 -0.0854  0.1793  0.0946
   27CHL1    H8 1939  -0.123   4.904   9.688  0.9342 -0.8970  0.0043
   27CHL1   C14 1940   0.003   5.028   9.580 -0.2084 -0.1257 -0.0791
   27CHL1   H14 1941   0.078   5.107   9.603  1.3885 -2.1807  2.2956
   27CHL1   C15 1942  -0.095   5.107   9.497  0.3736  0.4525  0.2914
   27CHL1  H15A 1943  -0.191   5.056   9.474 -0.9199  2.0402  1.8706
   27CHL1  H15B 1944  -0.134   5.198   9.548 -1.1567  1.2825 -2.1601
   27CHL1   C16 1945  -0.029   5.120   9.357 -0.0650 -0.2052  0.1741
   27CHL1  H16A 1946  -0.102   5.067   9.293 -1.9898 -0.0426  2.0985
   27CHL1  H16B 1947  -0.010   5.226   9.328 -0.2166  0.5408  2.5129
   27CHL1   C17 1948   0.101   5.032   9.371  0.9251 -0.1216 -0.3414
   27CHL1   H17 1949   0.182   5.099   9.408  0.5665 -0.2334  0.6823
   27CHL1   C13 1950   0.074   4.934   9.489  0.2005  0.2970 -0.6889
   27CHL1   C18 1951  -0.018   4.816   9.451 -0.5032 -0.1482 -0.1045
   27CHL1  H18A 1952  -0.047   4.764   9.545  0.4080 -0.5610 -0.0445
   27CHL1  H18B 1953  -0.107   4.851   9.394 -0.5643  0.6743  0.4800
   27CHL1  H18C 1954   0.032   4.741   9.386  0.0603  0.1970 -0.0718
   27CHL1   C12 1955   0.198   4.881   9.568  0.2274  0.3180 -0.4194
   27CHL1  H12A 1956   0.263   4.822   9.500 -1.4480 -0.9496 -0.9629
   27CHL1  H12B 1957   0.266   4.962   9.602 -0.3661  0.4619  0.4461
   27CHL1   C11 1958   0.161   4.810   9.695  0.2724 -0.0179  0.3169
   27CHL1  H11A 1959   0.114   4.713   9.669  0.2614  0.2195 -0.5736
   27CHL1  H11B 1960   0.258   4.789   9.746  0.9026  0.7303 -0.5334
   27CHL1    C9 1961   0.069   4.893   9.790  0.0246  0.1420 -0.4720
   27CHL1    H9 1962   0.137   4.972   9.829  1.0898 -2.6654  4.1615
   27CHL1   C10 1963   0.027   4.842   9.927 -0.4188  0.3191  0.3018
   27CHL1   C19 1964  -0.050   4.715   9.905  0.8364 -0.3156  0.2972
   27CHL1  H19A 1965   0.016   4.636   9.863  1.8498  0.6976 -0.0448
   27CHL1  H19B 1966  -0.091   4.678  10.002 -1.0557  0.0937 -0.3056
   27CHL1  H19C 1967  -0.137   4.726   9.836 -0.9955  1.2841  2.6774
   27CHL1    C1 1968   0.164   4.806  10.003 -0.1417  0.2366  0.4631
   27CHL1   H1A 1969   0.212   4.723   9.947 -2.8316 -1.4652  0.4726
   27CHL1   H1B 1970   0.219   4.902  10.014  1.1829 -0.4397 -0.1491
   27CHL1    C2 1971   0.133   4.758  10.143 -0.4023 -0.4599 -0.0117
   27CHL1   H2A 1972   0.221   4.738  10.208  0.1458 -0.4152 -0.7352
   27CHL1   H2B 1973   0.080   4.661  10.145  0.1059 -0.7297  1.2131
   27CHL1   C20 1974   0.135   4.978   9.231 -0.4394 -0.4114  0.4112
   27CHL1   H20 1975   0.054   4.904   9.211 -1.5840  0.7363  0.6226
   27CHL1   C21 1976   0.273   4.909   9.228 -0.4554 -0.2221  0.2162
   27CHL1  H21A 1977   0.268   4.813   9.284 -1.0919  0.3932  1.2597
   27CHL1  H21B 1978   0.352   4.965   9.281  1.1350 -2.2504  0.0948
   27CHL1  H21C 1979   0.315   4.889   9.127  0.2358  1.2130  0.2056
   27CHL1   C22 1980   0.129   5.082   9.117  0.5008  1.0435 -0.1877
   27CHL1  H22A 1981   0.154   5.030   9.022 -0.5995 -0.5912  0.3645
   27CHL1  H22B 1982   0.028   5.124   9.097 -0.0666 -1.1753 -2.4432
   27CHL1   C23 1983   0.229   5.195   9.127 -0.5199  0.3390 -0.2909
   27CHL1  H23A 1984   0.229   5.237   9.230  0.1377 -0.1316 -0.0957
   27CHL1  H23B 1985   0.332   5.155   9.119 -0.7136 -0.2236 -0.0160
   27CHL1   C24 1986   0.204   5.296   9.011  0.5829  0.3421 -1.0121
   27CHL1  H24A 1987   0.174   5.238   8.921 -1.9672 -0.3312  0.1953
   27CHL1  H24B 1988   0.118   5.361   9.039  0.1158 -0.8973  0.6200
   27CHL1   C25 1989   0.328   5.377   8.975 -0.1445 -0.0581 -0.1816
   27CHL1   H25 1990   0.417   5.311   8.970  1.2554  1.7622 -0.6043
   27CHL1   C26 1991   0.302   5.437   8.837  0.5352  0.3245  0.5729
   27CHL1  H26A 1992   0.388   5.505   8.821  2.1505 -1.3481  1.7247
   27CHL1  H26B 1993   0.293   5.362   8.755 -1.7108  1.8248 -0.6829
   27CHL1  H26C 1994   0.220   5.511   8.843 -0.7200 -1.0351  0.8877
   27CHL1   C27 1995   0.354   5.498   9.075 -0.3344  0.4735  0.9361
   27CHL1  H27A 1996   0.255   5.547   9.087 -1.4104 -0.5334 -2.6045
   27CHL1  H27B 1997   0.388   5.470   9.177 -0.4271 -0.0004  0.8382
   27CHL1  H27C 1998   0.415   5.581   9.032  0.5963 -0.2847  0.7565
   28CHL1    C3 1999   6.564   1.947   9.961 -0.5427  0.1256  0.4986
   28CHL1    H3 2000   6.566   2.054   9.932 -2.9376  0.0284 -0.2515
   28CHL1    O3 2001   6.569   1.932  10.102  0.2518  0.1568 -0.2207
   28CHL1   H3' 2002   6.517   1.853  10.117 -0.5669  0.7071 -0.1504
   28CHL1    C4 2003   6.425   1.901   9.915  0.4722  0.3496  0.0325
   28CHL1   H4A 2004   6.410   1.796   9.948 -0.5704  0.2320 -0.7829
   28CHL1   H4B 2005   6.350   1.954   9.978 -1.4418 -0.9224 -1.0648
   28CHL1    C5 2006   6.411   1.931   9.765 -1.4069  0.3506 -0.1308
   28CHL1    C6 2007   6.316   2.012   9.726 -0.5423 -0.4762  0.1847
   28CHL1    H6 2008   6.244   2.061   9.793  1.0723  2.0195  0.2238
   28CHL1    C7 2009   6.296   2.058   9.582 -0.5767  0.0787 -0.4809
   28CHL1   H7A 2010   6.190   2.043   9.555 -1.2208 -0.2678  2.0333
   28CHL1   H7B 2011   6.302   2.169   9.579 -0.7725  0.2021  1.9140
   28CHL1    C8 2012   6.379   1.972   9.484 -0.6333  0.0779 -0.0482
   28CHL1    H8 2013   6.319   1.880   9.470 -1.2625  0.5615 -0.6555
   28CHL1   C14 2014   6.392   2.040   9.350 -0.1673 -0.4122 -0.8648
   28CHL1   H14 2015   6.452   2.132   9.365 -0.9567  0.5053 -2.9555
   28CHL1   C15 2016   6.268   2.068   9.276  0.0258  0.8953  0.8171
   28CHL1  H15A 2017   6.195   1.984   9.276  1.7974 -0.8316 -2.8520
   28CHL1  H15B 2018   6.216   2.163   9.303 -1.0035  0.6958 -0.3580
   28CHL1   C16 2019   6.316   2.098   9.130 -0.2971 -0.9338  0.8512
   28CHL1  H16A 2020   6.239   2.062   9.058  2.1980 -0.9713 -1.9493
   28CHL1  H16B 2021   6.328   2.208   9.115 -0.4197 -1.1950 -1.5648
   28CHL1   C17 2022   6.463   2.035   9.113 -0.2478 -0.2879  0.4176
   28CHL1   H17 2023   6.535   2.119   9.123 -2.1603  1.5266 -0.1971
   28CHL1   C13 2024   6.480   1.951   9.245 -0.1647  0.2101  0.1290
   28CHL1   C18 2025   6.426   1.811   9.229 -0.3591 -0.7153 -0.2766
   28CHL1  H18A 2026   6.326   1.813   9.182 -0.7266  0.2777  0.5138
   28CHL1  H18B 2027   6.496   1.746   9.172 -0.2042 -0.7985  0.0057
   28CHL1  H18C 2028   6.418   1.771   9.332  0.2546  1.2390  0.5892
   28CHL1   C12 2029   6.626   1.939   9.292  0.2711  0.2390  0.1199
   28CHL1  H12A 2030   6.678   1.876   9.217 -1.1744 -1.4669  0.4756
   28CHL1  H12B 2031   6.677   2.037   9.302  1.8284 -0.1911 -2.5773
   28CHL1   C11 2032   6.624   1.882   9.438 -0.3077  0.1411  0.4244
   28CHL1  H11A 2033   6.606   1.773   9.430  0.4829  0.1447 -4.1401
   28CHL1  H11B 2034   6.725   1.891   9.483  0.0982 -0.8241 -0.2567
   28CHL1    C9 2035   6.522   1.940   9.538  0.4031 -0.0573  0.8893
   28CHL1    H9 2036   6.559   2.044   9.549  1.6900 -0.3199 -0.5450
   28CHL1   C10 2037   6.531   1.874   9.677 -0.0535 -1.0110  0.4782
   28CHL1   C19 2038   6.497   1.721   9.660  0.3606  0.0027 -0.5064
   28CHL1  H19A 2039   6.481   1.673   9.759 -0.4113  1.7046  0.2314
   28CHL1  H19B 2040   6.414   1.697   9.590  0.7014 -2.3041 -0.2186
   28CHL1  H19C 2041   6.594   1.688   9.617  1.8715  2.9263  0.4229
   28CHL1    C1 2042   6.670   1.892   9.748  0.3909  0.1440 -0.0762
   28CHL1   H1A 2043   6.743   1.817   9.709 -0.3673 -1.3024  1.1777
   28CHL1   H1B 2044   6.712   1.994   9.736  0.7341 -0.3190 -3.8229
   28CHL1    C2 2045   6.682   1.864   9.899  0.2801 -0.1077 -0.1809
   28CHL1   H2A 2046   6.777   1.884   9.953 -0.8681  2.2267  1.1175
   28CHL1   H2B 2047   6.656   1.758   9.921 -0.7741  0.0589 -0.5583
   28CHL1   C20 2048   6.499   1.965   8.989 -0.2963 -0.9998 -0.5069
   28CHL1   H20 2049   6.562   1.879   9.020 -0.8716 -1.3801 -0.3726
   28CHL1   C21 2050   6.592   2.048   8.899 -0.6764 -0.7395  0.1974
   28CHL1  H21A 2051   6.602   1.988   8.807  0.2218 -1.4619  0.7498
   28CHL1  H21B 2052   6.689   2.068   8.950 -1.0452  1.2110  0.2240
   28CHL1  H21C 2053   6.543   2.146   8.877  2.7576  0.5876 -2.5214
   28CHL1   C22 2054   6.390   1.896   8.904 -0.0136  0.6475  0.3639
   28CHL1  H22A 2055   6.441   1.810   8.856 -1.3130 -2.1224  3.5088
   28CHL1  H22B 2056   6.316   1.849   8.972  1.8266 -0.9921  1.3491
   28CHL1   C23 2057   6.319   1.982   8.796  0.7174 -0.0252  0.5510
   28CHL1  H23A 2058   6.317   2.087   8.834  1.2313 -0.2365  1.1699
   28CHL1  H23B 2059   6.368   1.962   8.698 -1.1153 -1.9555 -0.0496
   28CHL1   C24 2060   6.166   1.944   8.778  0.5251 -0.0243  0.4879
   28CHL1  H24A 2061   6.146   1.835   8.775  0.4788  0.0125 -0.8614
   28CHL1  H24B 2062   6.121   1.994   8.866  0.9464  1.1498  0.0594
   28CHL1   C25 2063   6.106   2.015   8.653  0.4503  0.1967 -0.3314
   28CHL1   H25 2064   6.179   2.021   8.570 -0.1893  0.6458 -0.8682
   28CHL1   C26 2065   5.978   1.933   8.604  0.2191 -0.0293  0.2977
   28CHL1  H26A 2066   5.921   1.994   8.530 -1.8899  0.5502  2.2598
   28CHL1  H26B 2067   6.016   1.832   8.578 -0.3951 -0.3722  0.7071
   28CHL1  H26C 2068   5.911   1.929   8.693 -3.3602  0.8901 -2.1428
   28CHL1   C27 2069   6.068   2.157   8.680 -0.0109  0.9385 -0.1699
   28CHL1  H27A 2070   6.001   2.195   8.600 -2.2742 -0.5006  0.9327
   28CHL1  H27B 2071   6.010   2.159   8.775 -0.4564 -3.7835 -0.1054
   28CHL1  H27C 2072   6.165   2.210   8.693  1.1085 -0.5392 -1.9979
   29CHL1    C3 2073   1.077   1.288   6.684  0.2019 -0.0751  0.1082
   29CHL1    H3 2074   0.967   1.275   6.676  0.4180 -0.9368 -2.0326
   29CHL1    O3 2075   1.140   1.290   6.556  0.1873  0.0391 -0.0970
   29CHL1   H3' 2076   1.232   1.304   6.579  0.3665  1.0367 -1.2536
   29CHL1    C4 2077   1.102   1.425   6.754  0.1306  0.1186  0.1528
   29CHL1   H4A 2078   1.210   1.448   6.745 -0.0280  1.2624  0.8758
   29CHL1   H4B 2079   1.047   1.499   6.690  0.9748 -0.1620 -0.9269
   29CHL1    C5 2080   1.059   1.435   6.899 -0.5985  0.2830  0.4109
   29CHL1    C6 2081   0.980   1.534   6.953  0.2388  0.2488 -0.0654
   29CHL1    H6 2082   0.947   1.618   6.889 -0.5458  0.5114  0.6718
   29CHL1    C7 2083   0.937   1.543   7.097 -0.4658 -0.8477 -1.1223
   29CHL1   H7A 2084   0.943   1.649   7.130 -0.6664 -0.9067 -0.8894
   29CHL1   H7B 2085   0.834   1.503   7.114 -0.3116 -0.7784  0.0783
   29CHL1    C8 2086   1.037   1.457   7.185 -0.0901  0.6461 -0.3002
   29CHL1    H8 2087   1.141   1.496   7.184  0.9398 -1.8615 -0.7688
   29CHL1   C14 2088   0.988   1.445   7.326 -0.0651  0.5159  0.5175
   29CHL1   H14 2089   0.888   1.398   7.311  1.0464 -1.5142 -1.1258
   29CHL1   C15 2090   0.971   1.572   7.406  0.4626  0.6518  0.1863
   29CHL1  H15A 2091   1.070   1.622   7.412  0.6197  0.2731  0.9500
   29CHL1  H15B 2092   0.898   1.651   7.377  1.6060  1.8023  0.3643
   29CHL1   C16 2093   0.926   1.516   7.543 -0.1061 -0.3316 -0.0246
   29CHL1  H16A 2094   0.976   1.582   7.617  0.6586  0.3015 -1.0657
   29CHL1  H16B 2095   0.819   1.537   7.563  0.4643  1.6451  1.2234
   29CHL1   C17 2096   0.980   1.374   7.552  0.0701  0.5255 -0.7684
   29CHL1   H17 2097   0.892   1.312   7.523 -0.0677  0.0789  0.5370
   29CHL1   C13 2098   1.063   1.349   7.425 -0.0022  0.3260 -0.0314
   29CHL1   C18 2099   1.207   1.393   7.459 -0.3213 -0.4517 -0.9008
   29CHL1  H18A 2100   1.215   1.502   7.480 -1.8091 -0.3772 -0.6032
   29CHL1  H18B 2101   1.251   1.341   7.547  1.3585  2.6816  0.2725
   29CHL1  H18C 2102   1.281   1.372   7.379  2.0010 -0.2912  1.0757
   29CHL1   C12 2103   1.073   1.206   7.367 -0.2166 -0.1710 -0.0043
   29CHL1  H12A 2104   1.134   1.137   7.428  2.6250  1.2692 -1.0396
   29CHL1  H12B 2105   0.970   1.165   7.359 -0.6117  1.0066 -1.6879
   29CHL1   C11 2106   1.112   1.203   7.214 -0.2641 -0.6559 -0.6083
   29CHL1  H11A 2107   1.222   1.197   7.202 -0.0095  0.5657  0.8229
   29CHL1  H11B 2108   1.073   1.114   7.161 -0.4162 -0.9145 -0.0685
   29CHL1    C9 2109   1.047   1.314   7.120 -0.4145 -0.0721  0.4933
   29CHL1    H9 2110   0.940   1.287   7.111 -0.2774 -0.4364 -0.1205
   29CHL1   C10 2111   1.109   1.319   6.978 -0.3370 -0.3159  0.8239
   29CHL1   C19 2112   1.258   1.359   6.985 -0.0354 -0.1858  0.5632
   29CHL1  H19A 2113   1.309   1.276   7.039  0.1602 -0.7615 -0.4799
   29CHL1  H19B 2114   1.303   1.351   6.884 -1.2121 -0.4244  0.0379
   29CHL1  H19C 2115   1.278   1.454   7.039  2.4288  0.3602 -1.1927
   29CHL1    C1 2116   1.081   1.180   6.911 -0.1472 -0.0246  0.4724
   29CHL1   H1A 2117   1.134   1.101   6.968  1.4589  1.7201  1.5243
   29CHL1   H1B 2118   0.975   1.148   6.914  0.1023 -0.8274  0.8597
   29CHL1    C2 2119   1.139   1.171   6.762 -0.1633 -0.0029 -0.4801
   29CHL1   H2A 2120   1.108   1.072   6.722 -0.0789  0.1196 -0.8543
   29CHL1   H2B 2121   1.249   1.180   6.768 -0.3204  1.2294  1.2648
   29CHL1   C20 2122   1.031   1.339   7.693 -0.5158  0.1140 -0.2591
   29CHL1   H20 2123   1.122   1.402   7.706 -0.6327  0.6370 -1.8510
   29CHL1   C21 2124   1.068   1.183   7.711  0.2984 -0.2444  0.0836
   29CHL1  H21A 2125   1.150   1.162   7.639  1.8201 -1.3397  2.0400
   29CHL1  H21B 2126   0.977   1.125   7.684  0.7145 -0.3431 -1.1585
   29CHL1  H21C 2127   1.110   1.158   7.811 -3.7076 -1.6731  1.6172
   29CHL1   C22 2128   0.934   1.381   7.805 -0.2874  0.2930 -0.3101
   29CHL1  H22A 2129   0.888   1.481   7.789 -1.7442 -0.5809 -1.8202
   29CHL1  H22B 2130   0.844   1.317   7.798 -0.5133  0.7745 -2.2515
   29CHL1   C23 2131   0.994   1.372   7.942  0.0482 -0.3649  0.0761
   29CHL1  H23A 2132   1.016   1.271   7.983 -1.2198 -1.1151 -1.0181
   29CHL1  H23B 2133   1.091   1.425   7.940 -0.9911  1.6889  0.5574
   29CHL1   C24 2134   0.897   1.439   8.047 -0.1704  0.1386 -0.0301
   29CHL1  H24A 2135   0.882   1.545   8.017 -0.6895 -0.2189 -1.1117
   29CHL1  H24B 2136   0.800   1.385   8.054  0.9362 -1.8717  0.5999
   29CHL1   C25 2137   0.958   1.443   8.193 -0.0280 -0.0178 -0.1152
   29CHL1   H25 2138   0.984   1.336   8.208 -0.3485 -0.1112 -0.2099
   29CHL1   C26 2139   1.077   1.539   8.200 -0.3859  0.7152  0.0996
   29CHL1  H26A 2140   1.152   1.522   8.119 -0.2111  3.2895 -0.3616
   29CHL1  H26B 2141   1.042   1.643   8.184  2.5919  1.8536  0.2440
   29CHL1  H26C 2142   1.126   1.540   8.300 -1.7557 -1.1249  0.8598
   29CHL1   C27 2143   0.845   1.477   8.298 -0.2852 -0.1731  0.0909
   29CHL1  H27A 2144   0.802   1.577   8.277 -1.8350 -0.8006  0.1516
   29CHL1  H27B 2145   0.767   1.398   8.292 -0.3141 -0.0591 -1.2879
   29CHL1  H27C 2146   0.896   1.472   8.397  1.2197 -1.3492 -0.7032
   30CHL1    C3 2147   4.878   0.255   7.057 -0.5383 -0.5961 -0.4029
   30CHL1    H3 2148   4.768   0.244   7.051 -0.5144 -1.2527  0.2751
   30CHL1    O3 2149   4.918   0.278   6.919 -0.3899 -0.6191 -0.7518
   30CHL1   H3' 2150   4.972   0.200   6.903 -0.0546 -0.8535  1.2069
   30CHL1    C4 2151   4.924   0.374   7.142  0.4565 -0.5198 -0.2088
   30CHL1   H4A 2152   5.033   0.390   7.131  0.3497  0.5757  0.2183
   30CHL1   H4B 2153   4.876   0.465   7.101  0.7686 -0.4077 -0.3266
   30CHL1    C5 2154   4.866   0.357   7.279  0.2186 -0.0821  0.4294
   30CHL1    C6 2155   4.775   0.438   7.328  0.0366  0.4143  0.9909
   30CHL1    H6 2156   4.741   0.525   7.271 -0.4664  0.3219  1.1495
   30CHL1    C7 2157   4.712   0.424   7.465 -0.8667  0.2051  0.4664
   30CHL1   H7A 2158   4.697   0.529   7.497 -1.1186  0.4577 -0.4595
   30CHL1   H7B 2159   4.610   0.379   7.462 -1.0124  0.6060 -0.7787
   30CHL1    C8 2160   4.793   0.335   7.557  0.3187 -0.1037 -0.3422
   30CHL1    H8 2161   4.886   0.395   7.571  0.8306 -0.3396 -2.4095
   30CHL1   C14 2162   4.720   0.298   7.687  0.1310 -0.2319  0.1404
   30CHL1   H14 2163   4.630   0.244   7.652 -1.1540  1.2290  1.0247
   30CHL1   C15 2164   4.659   0.409   7.769  0.4044  0.1557 -0.9174
   30CHL1  H15A 2165   4.732   0.493   7.767  1.3344 -0.5729  0.5454
   30CHL1  H15B 2166   4.563   0.424   7.715 -0.4472 -2.0506 -0.1220
   30CHL1   C16 2167   4.641   0.350   7.918  0.2978  0.3854  0.8507
   30CHL1  H16A 2168   4.699   0.417   7.985 -0.5347 -0.0892  2.0688
   30CHL1  H16B 2169   4.535   0.351   7.949 -0.7249  2.3784 -2.2280
   30CHL1   C17 2170   4.705   0.210   7.912  0.4149  0.0221  0.2481
   30CHL1   H17 2171   4.623   0.142   7.879 -1.1896  0.4435  3.0740
   30CHL1   C13 2172   4.798   0.212   7.788 -0.9699  0.1852 -0.1887
   30CHL1   C18 2173   4.932   0.276   7.830 -0.3645 -0.4818 -0.2939
   30CHL1  H18A 2174   5.003   0.288   7.745 -0.0101  0.1214  0.0789
   30CHL1  H18B 2175   4.917   0.379   7.869  0.5303  0.2199 -1.7249
   30CHL1  H18C 2176   4.973   0.206   7.906 -1.9826  0.6949  1.7636
   30CHL1   C12 2177   4.814   0.078   7.709 -0.4217  0.0235  0.4726
   30CHL1  H12A 2178   4.872   0.009   7.774  0.6651  1.5855  1.2285
   30CHL1  H12B 2179   4.713   0.038   7.687  0.2083 -1.4259  0.1386
   30CHL1   C11 2180   4.882   0.091   7.576 -0.2290 -0.8305 -0.8166
   30CHL1  H11A 2181   4.985   0.122   7.604 -0.9631 -0.6452  2.0466
   30CHL1  H11B 2182   4.885  -0.007   7.524  0.9382 -0.7153 -0.9995
   30CHL1    C9 2183   4.827   0.204   7.483  0.1401  0.1415 -0.2766
   30CHL1    H9 2184   4.724   0.172   7.457 -0.5807 -0.4535  2.9650
   30CHL1   C10 2185   4.910   0.225   7.351 -0.0077 -0.2703  0.4850
   30CHL1   C19 2186   5.065   0.236   7.376 -0.4603 -0.4547 -0.2048
   30CHL1  H19A 2187   5.118   0.223   7.279 -0.7154 -0.5719 -0.3293
   30CHL1  H19B 2188   5.084   0.336   7.420  1.4460 -1.6192  1.8359
   30CHL1  H19C 2189   5.104   0.156   7.443  1.0881  0.9143  0.6091
   30CHL1    C1 2190   4.882   0.107   7.253  0.0541 -0.1839 -0.1457
   30CHL1   H1A 2191   4.945   0.023   7.289  0.1365 -0.1807 -0.2805
   30CHL1   H1B 2192   4.772   0.093   7.253 -0.1856  1.2227  2.1796
   30CHL1    C2 2193   4.930   0.125   7.110  0.1675 -0.6077  0.6676
   30CHL1   H2A 2194   4.890   0.049   7.039 -1.2018  0.6098  0.0863
   30CHL1   H2B 2195   5.041   0.121   7.103  0.0773 -0.7258 -0.8383
   30CHL1   C20 2196   4.748   0.162   8.047 -1.1028  0.7036 -0.2280
   30CHL1   H20 2197   4.826   0.232   8.083  0.6825 -1.3408  0.0749
   30CHL1   C21 2198   4.795   0.012   8.025  0.4823 -0.0543 -0.4177
   30CHL1  H21A 2199   4.806  -0.052   8.115 -1.3970  0.1154 -0.0301
   30CHL1  H21B 2200   4.894   0.010   7.974 -0.1968 -2.4611 -1.7677
   30CHL1  H21C 2201   4.736  -0.043   7.949  0.2089 -2.6925  1.5589
   30CHL1   C22 2202   4.638   0.161   8.148 -0.1345  0.1406 -0.5778
   30CHL1  H22A 2203   4.576   0.253   8.138 -2.7820 -1.3675  0.9144
   30CHL1  H22B 2204   4.562   0.082   8.129  0.3319 -0.7465  1.0961
   30CHL1   C23 2205   4.691   0.158   8.296 -0.5434  0.8447 -0.5083
   30CHL1  H23A 2206   4.770   0.081   8.300 -1.1148  0.1198 -2.1666
   30CHL1  H23B 2207   4.738   0.258   8.305  0.6857  0.2564 -0.2332
   30CHL1   C24 2208   4.589   0.128   8.399 -0.2980  0.1941  0.3864
   30CHL1  H24A 2209   4.509   0.204   8.383  0.9234  1.5469  0.4880
   30CHL1  H24B 2210   4.551   0.024   8.390  1.9603 -0.7376  1.0015
   30CHL1   C25 2211   4.652   0.133   8.543  0.8755  0.2667 -0.7258
   30CHL1   H25 2212   4.690   0.237   8.554 -2.3467  1.7250 -2.2223
   30CHL1   C26 2213   4.534   0.132   8.639 -0.3274 -0.2402  0.0742
   30CHL1  H26A 2214   4.546   0.162   8.746 -0.5118  2.0473 -0.4915
   30CHL1  H26B 2215   4.453   0.204   8.613  1.7454  1.3969 -2.2705
   30CHL1  H26C 2216   4.491   0.030   8.640  0.6585 -0.6624  0.1839
   30CHL1   C27 2217   4.763   0.023   8.583 -0.1008 -0.0835 -0.3248
   30CHL1  H27A 2218   4.712  -0.074   8.602 -1.4677  0.6946  0.1173
   30CHL1  H27B 2219   4.835   0.011   8.500  0.1735 -0.4354 -0.0377
   30CHL1  H27C 2220   4.806   0.060   8.679 -0.9512  0.6949 -0.2259
   31CHL1    C3 2221   4.143   1.854   6.593 -0.0894  0.2702  0.3954
   31CHL1    H3 2222   4.090   1.757   6.602  0.8342 -0.3987 -1.1056
   31CHL1    O3 2223   4.190   1.878   6.461  0.1785  0.1503  0.5632
   31CHL1   H3' 2224   4.114   1.912   6.414 -1.6711 -1.1530  2.4310
   31CHL1    C4 2225   4.049   1.969   6.645 -0.3110 -0.3487  0.2612
   31CHL1   H4A 2226   4.108   2.061   6.623 -0.1309 -0.8566 -1.5225
   31CHL1   H4B 2227   3.960   1.972   6.579 -0.3058 -1.3435  0.1969
   31CHL1    C5 2228   4.004   1.954   6.789  0.0562  0.2082 -0.1685
   31CHL1    C6 2229   3.876   1.949   6.828 -0.0638  0.3147  0.4056
   31CHL1    H6 2230   3.798   1.927   6.754 -0.3314 -1.9614  1.2926
   31CHL1    C7 2231   3.825   1.947   6.967 -0.1715  0.1677 -0.1823
   31CHL1   H7A 2232   3.737   2.015   6.974 -1.0867 -1.0147  0.1129
   31CHL1   H7B 2233   3.772   1.851   6.987 -1.5572  0.6388 -1.3729
   31CHL1    C8 2234   3.934   1.986   7.075  0.7036  0.0550  0.6383
   31CHL1    H8 2235   3.942   2.097   7.079  1.9070  0.0389 -0.6623
   31CHL1   C14 2236   3.891   1.934   7.214  0.0773  0.6903  0.0944
   31CHL1   H14 2237   3.884   1.824   7.209  1.3078  0.5268  1.3651
   31CHL1   C15 2238   3.754   1.974   7.259  0.4248 -0.2669  0.0437
   31CHL1  H15A 2239   3.724   2.079   7.239 -0.7315 -0.5847  0.0156
   31CHL1  H15B 2240   3.672   1.914   7.215  0.6587 -0.9662  0.5474
   31CHL1   C16 2241   3.762   1.940   7.415 -0.2115 -0.1283  0.0787
   31CHL1  H16A 2242   3.734   2.028   7.477 -1.4149  0.5090 -1.3155
   31CHL1  H16B 2243   3.710   1.843   7.432 -1.3292 -0.0088 -2.2165
   31CHL1   C17 2244   3.910   1.912   7.453 -0.3988  0.5112 -0.6550
   31CHL1   H17 2245   3.915   1.801   7.452 -0.8840  0.4882 -0.4585
   31CHL1   C13 2246   3.993   1.960   7.332  0.5012  0.5435 -0.4759
   31CHL1   C18 2247   4.025   2.111   7.353  0.2513 -0.8179  0.5845
   31CHL1  H18A 2248   4.091   2.145   7.271 -1.6247 -0.2532 -0.7465
   31CHL1  H18B 2249   3.929   2.163   7.333 -0.3316 -2.4311 -1.1823
   31CHL1  H18C 2250   4.066   2.141   7.452  2.4681 -2.1986  0.1674
   31CHL1   C12 2251   4.130   1.886   7.291  0.3945 -0.0208  0.7600
   31CHL1  H12A 2252   4.211   1.889   7.367 -0.6365  0.2161  1.8949
   31CHL1  H12B 2253   4.108   1.777   7.285 -1.6094  0.4361 -1.1793
   31CHL1   C11 2254   4.178   1.934   7.153  0.3442 -0.2813  0.7194
   31CHL1  H11A 2255   4.216   2.038   7.155 -1.7565  0.5329  0.7964
   31CHL1  H11B 2256   4.261   1.865   7.125  1.2627  0.3519  1.8145
   31CHL1    C9 2257   4.067   1.921   7.037  0.7584  0.1668 -0.6277
   31CHL1    H9 2258   4.039   1.814   7.034 -1.0799  0.5685  0.5912
   31CHL1   C10 2259   4.122   1.948   6.894 -0.0189  0.3104 -0.1193
   31CHL1   C19 2260   4.190   2.085   6.900 -0.1968 -0.1337 -0.4470
   31CHL1  H19A 2261   4.214   2.131   6.802 -1.0394 -0.2376 -0.7114
   31CHL1  H19B 2262   4.128   2.151   6.965  0.4582  0.1286 -0.0758
   31CHL1  H19C 2263   4.287   2.075   6.953 -0.8751  1.6532  1.2678
   31CHL1    C1 2264   4.218   1.836   6.839 -0.7483  0.1835 -0.7160
   31CHL1   H1A 2265   4.314   1.823   6.894 -1.0164  0.0483 -0.2765
   31CHL1   H1B 2266   4.171   1.737   6.860 -0.3199 -0.0779 -0.9676
   31CHL1    C2 2267   4.255   1.839   6.690 -0.6449 -0.2015  0.1222
   31CHL1   H2A 2268   4.315   1.747   6.673 -0.2336 -0.2679  1.8069
   31CHL1   H2B 2269   4.328   1.919   6.668  0.7506 -1.7717 -1.2182
   31CHL1   C20 2270   3.947   1.961   7.594 -0.2508  0.5209  0.3248
   31CHL1   H20 2271   3.945   2.072   7.600 -0.6179  0.6146 -1.2582
   31CHL1   C21 2272   4.093   1.918   7.644  0.0143  0.3800  0.0794
   31CHL1  H21A 2273   4.165   1.955   7.569 -0.1004  0.0655 -0.1915
   31CHL1  H21B 2274   4.105   1.808   7.657  0.6288  0.7701  3.7553
   31CHL1  H21C 2275   4.112   1.958   7.746  1.1863 -1.8494  0.8057
   31CHL1   C22 2276   3.840   1.905   7.693 -0.0374  0.1604  0.2659
   31CHL1  H22A 2277   3.742   1.953   7.673  0.9179  1.1744 -2.5566
   31CHL1  H22B 2278   3.835   1.794   7.681 -1.7346  0.1435  0.8287
   31CHL1   C23 2279   3.877   1.927   7.841 -0.5462  0.1126  0.0675
   31CHL1  H23A 2280   3.961   1.860   7.867  1.3780  0.3967 -4.4556
   31CHL1  H23B 2281   3.918   2.030   7.849  1.9921 -0.4298 -3.5614
   31CHL1   C24 2282   3.761   1.913   7.938 -0.6758 -0.0758  0.0988
   31CHL1  H24A 2283   3.783   1.963   8.035  1.6723  0.0860 -0.4569
   31CHL1  H24B 2284   3.676   1.970   7.893  0.2372  1.9772  0.8277
   31CHL1   C25 2285   3.719   1.767   7.956  0.2208  0.7048  0.3759
   31CHL1   H25 2286   3.730   1.723   7.854  0.0609  3.1619 -0.7730
   31CHL1   C26 2287   3.811   1.690   8.052 -0.2522 -0.1052 -0.2699
   31CHL1  H26A 2288   3.910   1.678   8.004 -0.3840  0.8213 -0.8022
   31CHL1  H26B 2289   3.813   1.736   8.153 -1.6818  0.3921 -0.4383
   31CHL1  H26C 2290   3.767   1.588   8.056  1.7419 -1.0309 -1.0442
   31CHL1   C27 2291   3.575   1.756   8.004 -1.0536  0.4604 -0.8343
   31CHL1  H27A 2292   3.540   1.651   8.009  1.2727 -0.2982  1.6231
   31CHL1  H27B 2293   3.505   1.809   7.936 -2.3067  0.3284  0.3068
   31CHL1  H27C 2294   3.571   1.784   8.112  3.6015 -0.9724 -0.0597
   32CHL1    C3 2295   6.346   6.620   6.821  0.5570  0.3831  0.5776
   32CHL1    H3 2296   6.426   6.547   6.847  1.3665  0.7514 -0.7860
   32CHL1    O3 2297   6.329   6.625   6.682  0.2080 -0.6482  0.3650
   32CHL1   H3' 2298   6.279   6.705   6.671  0.2971 -0.5899  0.3847
   32CHL1    C4 2299   6.205   6.592   6.891 -0.9492 -0.2005  0.9287
   32CHL1   H4A 2300   6.131   6.649   6.832  0.0363 -0.2372 -0.4045
   32CHL1   H4B 2301   6.182   6.487   6.863 -0.3938  0.3405 -1.8524
   32CHL1    C5 2302   6.208   6.618   7.043 -0.6105  0.8042  1.0731
   32CHL1    C6 2303   6.170   6.530   7.135 -0.1159  0.3273  0.0904
   32CHL1    H6 2304   6.121   6.442   7.091  3.3073  0.0310 -3.7136
   32CHL1    C7 2305   6.190   6.544   7.286 -0.2559 -0.3345 -0.6613
   32CHL1   H7A 2306   6.109   6.497   7.346 -0.6939  0.6911 -0.4334
   32CHL1   H7B 2307   6.293   6.510   7.310 -0.4977  1.3871  3.7521
   32CHL1    C8 2308   6.191   6.695   7.332 -0.2552  0.5315  0.5104
   32CHL1    H8 2309   6.088   6.734   7.318 -1.2332 -1.4329  1.8195
   32CHL1   C14 2310   6.236   6.713   7.481  0.1314 -0.1576  0.1243
   32CHL1   H14 2311   6.338   6.669   7.489 -0.5090 -1.5607  0.9612
   32CHL1   C15 2312   6.173   6.624   7.596 -0.5200 -0.7077 -0.0774
   32CHL1  H15A 2313   6.062   6.634   7.595 -0.4742 -0.2435 -1.5149
   32CHL1  H15B 2314   6.193   6.515   7.586 -2.9788 -1.0559 -1.8731
   32CHL1   C16 2315   6.219   6.700   7.717  0.4306  0.1884  0.0405
   32CHL1  H16A 2316   6.129   6.718   7.779  0.3772 -1.3950  0.4655
   32CHL1  H16B 2317   6.278   6.635   7.785 -1.5585 -0.2794  1.3933
   32CHL1   C17 2318   6.297   6.825   7.669  0.7877 -0.7698  0.0109
   32CHL1   H17 2319   6.402   6.792   7.653  0.3790 -1.2439 -1.9419
   32CHL1   C13 2320   6.249   6.859   7.523 -0.0619 -0.1227 -0.1647
   32CHL1   C18 2321   6.101   6.927   7.524 -0.3922  0.4721 -0.3521
   32CHL1  H18A 2322   6.034   6.862   7.584 -0.9456  0.2607 -1.1829
   32CHL1  H18B 2323   6.112   7.032   7.559 -0.5369  0.5082 -0.4149
   32CHL1  H18C 2324   6.067   6.920   7.419 -0.5196 -0.7799 -0.2372
   32CHL1   C12 2325   6.354   6.923   7.436 -0.4318 -0.8051  0.6176
   32CHL1  H12A 2326   6.370   7.027   7.471  0.3735 -1.3402  1.8955
   32CHL1  H12B 2327   6.452   6.874   7.456  0.0831  0.7075  1.9567
   32CHL1   C11 2328   6.306   6.923   7.286  0.2247 -0.3502  0.1490
   32CHL1  H11A 2329   6.218   6.989   7.268  0.9270  0.6301  0.2660
   32CHL1  H11B 2330   6.385   6.970   7.223 -0.7733 -0.7812 -1.5008
   32CHL1    C9 2331   6.289   6.775   7.240 -0.1667  0.4846  0.6551
   32CHL1    H9 2332   6.394   6.743   7.255 -0.1902  0.3183  0.4675
   32CHL1   C10 2333   6.272   6.753   7.087 -0.4097  0.0742 -0.4684
   32CHL1   C19 2334   6.178   6.864   7.042  0.2852 -0.1345 -0.3548
   32CHL1  H19A 2335   6.104   6.898   7.118 -0.5684 -0.6705 -0.9341
   32CHL1  H19B 2336   6.223   6.961   7.013 -0.4737  0.2365 -0.3208
   32CHL1  H19C 2337   6.133   6.840   6.943  3.2386 -0.8655 -1.6431
   32CHL1    C1 2338   6.416   6.777   7.021  1.1081 -0.7857  0.5951
   32CHL1   H1A 2339   6.455   6.879   7.043 -0.9003 -0.1102  1.2697
   32CHL1   H1B 2340   6.493   6.705   7.054  1.9507 -0.4552 -0.5794
   32CHL1    C2 2341   6.392   6.758   6.867  0.1569 -0.4901 -0.0652
   32CHL1   H2A 2342   6.493   6.779   6.826  0.6411 -0.4327  1.1405
   32CHL1   H2B 2343   6.332   6.842   6.825  1.4148  0.2256 -0.4797
   32CHL1   C20 2344   6.295   6.939   7.772  0.7149 -0.1472 -0.4438
   32CHL1   H20 2345   6.193   6.981   7.767  0.6536 -0.1651  0.4496
   32CHL1   C21 2346   6.396   7.042   7.744 -0.3773  0.0997  0.4864
   32CHL1  H21A 2347   6.499   7.000   7.745 -0.7706 -0.9141  0.0206
   32CHL1  H21B 2348   6.384   7.122   7.820 -2.4328 -0.1905  0.5242
   32CHL1  H21C 2349   6.376   7.100   7.651  2.4497 -1.6559 -1.3798
   32CHL1   C22 2350   6.323   6.893   7.917  0.5411 -0.2405 -0.0069
   32CHL1  H22A 2351   6.282   6.795   7.945 -0.9790  0.8698  1.8346
   32CHL1  H22B 2352   6.430   6.871   7.936  0.2756  0.7206  3.0144
   32CHL1   C23 2353   6.278   6.992   8.033 -0.0646 -0.3135  0.2748
   32CHL1  H23A 2354   6.354   7.071   8.052 -1.1103  0.5471  1.0047
   32CHL1  H23B 2355   6.187   7.040   7.992 -0.1075  0.3747  1.1532
   32CHL1   C24 2356   6.241   6.922   8.167  0.2181 -0.3474  0.2564
   32CHL1  H24A 2357   6.169   6.842   8.141 -1.6916  1.6022 -0.7726
   32CHL1  H24B 2358   6.331   6.880   8.217  2.6288  3.2068 -0.6759
   32CHL1   C25 2359   6.175   7.020   8.272  0.5994  0.1778 -1.0535
   32CHL1   H25 2360   6.083   7.058   8.223  0.9298  1.0769 -0.9790
   32CHL1   C26 2361   6.130   6.938   8.398  0.2816  0.5976  0.3233
   32CHL1  H26A 2362   6.222   6.905   8.451 -0.4076 -0.6586  0.7777
   32CHL1  H26B 2363   6.073   7.003   8.468 -0.4661  1.4929 -1.0759
   32CHL1  H26C 2364   6.078   6.843   8.375 -0.4759  0.2112  3.2714
   32CHL1   C27 2365   6.260   7.140   8.302 -0.4600 -0.3967  0.0328
   32CHL1  H27A 2366   6.360   7.109   8.341 -0.0204 -0.5747 -1.1954
   32CHL1  H27B 2367   6.270   7.201   8.210 -2.2296 -1.2957 -0.8181
   32CHL1  H27C 2368   6.212   7.206   8.378 -0.3897  0.1155 -0.3665
   33CHL1    C3 2369   0.184   0.167   6.820  0.0277 -0.0436 -0.0302
   33CHL1    H3 2370   0.291   0.181   6.845  0.6753 -1.9649 -1.4291
   33CHL1    O3 2371   0.191   0.131   6.677 -0.0225 -0.5312 -0.7090
   33CHL1   H3' 2372   0.098   0.143   6.658 -0.5396 -1.0048  1.2619
   33CHL1    C4 2373   0.128   0.044   6.897  0.1188 -0.2169 -0.3140
   33CHL1   H4A 2374   0.026   0.021   6.860  0.5625 -3.6011  0.2956
   33CHL1   H4B 2375   0.182  -0.048   6.867  0.9481  0.7635 -2.0030
   33CHL1    C5 2376   0.124   0.067   7.042  0.5229  0.1502 -0.0986
   33CHL1    C6 2377   0.196  -0.011   7.125 -0.3396 -0.1291  0.3797
   33CHL1    H6 2378   0.246  -0.102   7.089 -1.4601 -0.1645 -1.1571
   33CHL1    C7 2379   0.221   0.017   7.270  0.2711 -0.0288  0.4387
   33CHL1   H7A 2380   0.229  -0.083   7.318 -2.8769 -0.0075  1.2209
   33CHL1   H7B 2381   0.321   0.066   7.273  0.8700 -1.2483  1.1117
   33CHL1    C8 2382   0.109   0.118   7.322 -0.8811 -0.2270  1.0589
   33CHL1    H8 2383   0.015   0.058   7.319 -1.7721  1.1494  0.3228
   33CHL1   C14 2384   0.134   0.167   7.457 -0.3343 -0.9097 -0.1486
   33CHL1   H14 2385   0.223   0.232   7.448  0.0825 -1.3359  0.7886
   33CHL1   C15 2386   0.172   0.063   7.563 -0.7543 -0.1167 -0.1552
   33CHL1  H15A 2387   0.093  -0.012   7.583  0.2420 -0.9960  0.5801
   33CHL1  H15B 2388   0.267   0.008   7.551 -1.3698 -1.6431  1.4783
   33CHL1   C16 2389   0.173   0.146   7.689  0.7353 -0.0210 -0.1372
   33CHL1  H16A 2390   0.137   0.097   7.782  0.6820  1.4400  0.6336
   33CHL1  H16B 2391   0.275   0.175   7.721  0.2962  1.3775  0.0699
   33CHL1   C17 2392   0.096   0.283   7.664  0.3110  0.0528  0.3392
   33CHL1   H17 2393   0.166   0.369   7.662 -1.1171  1.2258 -1.5536
   33CHL1   C13 2394   0.039   0.262   7.521 -0.0719 -0.6790 -0.5472
   33CHL1   C18 2395  -0.096   0.198   7.552 -0.5606  0.0835 -0.3249
   33CHL1  H18A 2396  -0.160   0.279   7.590 -1.1119 -0.0278 -0.9952
   33CHL1  H18B 2397  -0.150   0.157   7.464 -3.4224 -0.4406  1.5707
   33CHL1  H18C 2398  -0.089   0.120   7.630 -2.2390  0.0374 -0.2014
   33CHL1   C12 2399   0.017   0.382   7.434 -0.5282 -0.3186  0.2502
   33CHL1  H12A 2400  -0.057   0.449   7.482 -1.0526 -1.5944  1.2775
   33CHL1  H12B 2401   0.111   0.437   7.411 -0.3175 -0.6080  0.4102
   33CHL1   C11 2402  -0.021   0.340   7.290 -0.1104 -0.0839  0.5564
   33CHL1  H11A 2403  -0.118   0.286   7.294 -0.4923  0.4368 -0.9461
   33CHL1  H11B 2404  -0.041   0.426   7.223 -2.0168 -2.8573 -2.7986
   33CHL1    C9 2405   0.084   0.239   7.230 -0.0634 -0.3303 -0.1847
   33CHL1    H9 2406   0.181   0.293   7.230  0.2739 -0.8961  1.3209
   33CHL1   C10 2407   0.048   0.192   7.086 -0.3328  0.2081 -0.6268
   33CHL1   C19 2408  -0.100   0.162   7.079 -0.0561 -0.4667 -0.1541
   33CHL1  H19A 2409  -0.155   0.257   7.094  0.1466 -0.0684 -1.7180
   33CHL1  H19B 2410  -0.130   0.118   6.981  2.2082 -2.7148  0.0561
   33CHL1  H19C 2411  -0.143   0.098   7.159 -0.0200  2.0217  1.9565
   33CHL1    C1 2412   0.075   0.316   6.995 -0.2615  0.0791 -0.4805
   33CHL1   H1A 2413   0.006   0.401   7.013  1.6071  0.9527  3.8719
   33CHL1   H1B 2414   0.172   0.356   7.031  0.1223 -2.6038  1.8016
   33CHL1    C2 2415   0.095   0.288   6.841 -0.4828 -0.1544 -0.0084
   33CHL1   H2A 2416   0.129   0.383   6.796  0.1199  1.0067  2.7028
   33CHL1   H2B 2417  -0.010   0.259   6.815 -1.3052  1.4983  1.2722
   33CHL1   C20 2418   0.006   0.325   7.788 -0.0763  0.1014  0.4375
   33CHL1   H20 2419  -0.072   0.247   7.804  0.9388 -1.0327 -0.0301
   33CHL1   C21 2420  -0.052   0.464   7.758 -0.4672  0.1100 -0.5606
   33CHL1  H21A 2421   0.026   0.542   7.754 -2.7386  2.6728  1.2369
   33CHL1  H21B 2422  -0.113   0.489   7.848  1.0064  1.6414  0.0510
   33CHL1  H21C 2423  -0.126   0.470   7.675 -0.7491  0.8605 -0.2663
   33CHL1   C22 2424   0.090   0.337   7.918 -0.9872  0.3168 -0.3556
   33CHL1  H22A 2425   0.125   0.236   7.949  0.0319  0.5781 -0.6171
   33CHL1  H22B 2426   0.171   0.408   7.892 -0.4790  1.2209  3.2772
   33CHL1   C23 2427   0.019   0.387   8.046 -0.1011  0.3260  0.8289
   33CHL1  H23A 2428   0.090   0.391   8.132  0.7387 -0.8578  0.2085
   33CHL1  H23B 2429  -0.013   0.492   8.029 -1.7569 -0.2256  0.3726
   33CHL1   C24 2430  -0.101   0.306   8.087 -0.2211  0.7072  0.3425
   33CHL1  H24A 2431  -0.165   0.361   8.159 -2.4555 -0.3370 -0.7173
   33CHL1  H24B 2432  -0.164   0.281   7.998  0.2667 -1.6601  0.5794
   33CHL1   C25 2433  -0.055   0.171   8.152 -0.3065  0.6071  0.2064
   33CHL1   H25 2434   0.036   0.143   8.094 -0.1948  2.2027 -0.4514
   33CHL1   C26 2435  -0.004   0.178   8.301  0.8515  0.9754 -0.5895
   33CHL1  H26A 2436   0.041   0.081   8.331 -0.8690  0.4422  0.3721
   33CHL1  H26B 2437   0.077   0.254   8.310  0.0878  2.0247 -2.0334
   33CHL1  H26C 2438  -0.091   0.178   8.369  0.7937 -2.1782 -0.5246
   33CHL1   C27 2439  -0.154   0.056   8.140 -0.6353  0.6407 -0.9001
   33CHL1  H27A 2440  -0.113  -0.045   8.159  0.8598  1.4357  0.3396
   33CHL1  H27B 2441  -0.243   0.058   8.205 -0.0548 -0.6537 -0.0331
   33CHL1  H27C 2442  -0.208   0.045   8.043 -2.1416  0.8214 -0.1094
   34CHL1    C3 2443   1.763   5.332   7.112 -0.4694 -0.0744 -0.2384
   34CHL1    H3 2444   1.737   5.439   7.131 -2.7562 -0.8628  1.4902
   34CHL1    O3 2445   1.761   5.316   6.977  0.0716  0.4855 -0.2438
   34CHL1   H3' 2446   1.804   5.233   6.953 -0.4270  0.8362 -2.5855
   34CHL1    C4 2447   1.897   5.307   7.170 -0.6501  0.6588 -0.3946
   34CHL1   H4A 2448   1.918   5.201   7.142 -1.2911  0.0050  1.4907
   34CHL1   H4B 2449   1.978   5.368   7.123 -1.0200  1.7300  0.3265
   34CHL1    C5 2450   1.899   5.315   7.319 -0.5954 -0.0141  0.0635
   34CHL1    C6 2451   1.991   5.391   7.385  0.6260  0.1836 -0.4195
   34CHL1    H6 2452   2.062   5.451   7.327  3.1816 -1.6577  0.6028
   34CHL1    C7 2453   2.018   5.388   7.535 -0.7136  0.6188  0.2650
   34CHL1   H7A 2454   2.127   5.370   7.552  0.0225 -0.0462 -4.0095
   34CHL1   H7B 2455   1.985   5.486   7.576 -0.7425  0.8167 -0.2279
   34CHL1    C8 2456   1.937   5.282   7.611 -0.3115  1.5208 -0.3086
   34CHL1    H8 2457   2.004   5.193   7.615  0.5777  2.1204 -1.3476
   34CHL1   C14 2458   1.911   5.320   7.759  0.4635 -0.4286  0.6479
   34CHL1   H14 2459   1.845   5.409   7.756  1.7782  0.6221 -3.4210
   34CHL1   C15 2460   2.025   5.351   7.849 -0.4571 -0.2501 -0.2253
   34CHL1  H15A 2461   2.102   5.274   7.823  0.0443 -0.2759  1.2338
   34CHL1  H15B 2462   2.071   5.451   7.832  3.5306 -2.1002 -1.7441
   34CHL1   C16 2463   1.977   5.333   7.993  1.0786 -0.1481  0.1733
   34CHL1  H16A 2464   2.043   5.266   8.052  0.1524  1.3128  3.0692
   34CHL1  H16B 2465   1.978   5.420   8.062  0.2472 -0.2775  0.3560
   34CHL1   C17 2466   1.831   5.289   7.980 -0.0060  0.2531  0.0364
   34CHL1   H17 2467   1.775   5.383   7.960 -0.2996 -0.0415 -0.5497
   34CHL1   C13 2468   1.833   5.222   7.840 -0.0299 -0.0066 -0.1223
   34CHL1   C18 2469   1.903   5.079   7.860  0.3820 -0.1398 -0.4340
   34CHL1  H18A 2470   2.002   5.098   7.906  0.6387  0.2083 -1.1164
   34CHL1  H18B 2471   1.840   5.005   7.915  1.0510 -0.1912  0.2802
   34CHL1  H18C 2472   1.915   5.027   7.763 -1.0762 -2.6294  0.6057
   34CHL1   C12 2473   1.697   5.212   7.777  0.1311 -0.1395  0.1835
   34CHL1  H12A 2474   1.640   5.132   7.829  0.7711 -0.3484  0.5711
   34CHL1  H12B 2475   1.642   5.309   7.786  1.9750  0.7912  2.3606
   34CHL1   C11 2476   1.709   5.166   7.636  0.3737 -0.9780  0.4345
   34CHL1  H11A 2477   1.762   5.069   7.641  3.3081  0.3635 -1.4388
   34CHL1  H11B 2478   1.603   5.166   7.604  0.2428 -1.4911  0.8566
   34CHL1    C9 2479   1.802   5.258   7.547 -0.1120 -0.1395  0.0023
   34CHL1    H9 2480   1.751   5.356   7.561  1.8712  0.6622  2.1931
   34CHL1   C10 2481   1.808   5.229   7.395  0.2292 -0.9456 -0.2078
   34CHL1   C19 2482   1.841   5.074   7.387  0.0045 -0.4465 -0.1443
   34CHL1  H19A 2483   1.925   5.046   7.454 -0.3551  0.5679  0.7672
   34CHL1  H19B 2484   1.749   5.020   7.418  0.1415 -0.4502  0.2716
   34CHL1  H19C 2485   1.862   5.043   7.283  2.4995  2.5007 -0.6948
   34CHL1    C1 2486   1.669   5.262   7.332 -0.4234 -0.2976 -0.4843
   34CHL1   H1A 2487   1.581   5.229   7.392 -0.7081 -0.4594 -0.9777
   34CHL1   H1B 2488   1.642   5.369   7.342 -1.4233 -0.6904  1.6087
   34CHL1    C2 2489   1.658   5.243   7.180  0.2663  0.0979  0.2160
   34CHL1   H2A 2490   1.559   5.279   7.145 -0.6761 -0.9116  1.7148
   34CHL1   H2B 2491   1.673   5.135   7.158  0.9489  0.1811  0.2530
   34CHL1   C20 2492   1.764   5.221   8.099 -0.4727  0.4499  0.1627
   34CHL1   H20 2493   1.688   5.150   8.061 -1.7311  0.9841  1.5759
   34CHL1   C21 2494   1.690   5.333   8.173  0.3416 -0.5446 -0.9212
   34CHL1  H21A 2495   1.617   5.382   8.105  0.5928 -0.4760 -1.1404
   34CHL1  H21B 2496   1.765   5.398   8.222  0.3234 -2.0306  1.2407
   34CHL1  H21C 2497   1.624   5.281   8.245 -0.0862 -3.7210 -3.4027
   34CHL1   C22 2498   1.868   5.147   8.189  0.1821  0.4156  0.2150
   34CHL1  H22A 2499   1.922   5.077   8.122 -1.3014 -1.3288  0.7452
   34CHL1  H22B 2500   1.931   5.222   8.242  0.2339  0.8629 -0.4749
   34CHL1   C23 2501   1.813   5.053   8.298 -0.0335 -0.3048 -1.2712
   34CHL1  H23A 2502   1.736   5.105   8.359  1.6429  0.4411  0.3183
   34CHL1  H23B 2503   1.761   4.970   8.246  0.2768 -0.9535 -0.5507
   34CHL1   C24 2504   1.935   5.005   8.378  0.5767 -0.1342 -0.8158
   34CHL1  H24A 2505   2.027   4.969   8.327  1.3894 -1.4555  1.4217
   34CHL1  H24B 2506   1.963   5.095   8.437  1.9727 -0.3950 -1.0464
   34CHL1   C25 2507   1.898   4.893   8.480 -0.1146  0.6455 -0.2275
   34CHL1   H25 2508   1.802   4.921   8.528 -0.4646 -1.7196  0.5647
   34CHL1   C26 2509   1.879   4.764   8.400  0.8615  0.6763 -0.0076
   34CHL1  H26A 2510   1.967   4.760   8.331  0.5724  3.0994 -0.6306
   34CHL1  H26B 2511   1.877   4.670   8.457  1.1511 -0.9815 -2.5563
   34CHL1  H26C 2512   1.785   4.770   8.341  1.3478  0.3182 -0.8370
   34CHL1   C27 2513   2.010   4.880   8.588 -0.4295 -0.4458 -0.0953
   34CHL1  H27A 2514   2.033   4.981   8.629  0.3620 -0.2943 -0.8824
   34CHL1  H27B 2515   1.978   4.822   8.677 -1.9825 -0.0513 -0.3655
   34CHL1  H27C 2516   2.107   4.852   8.543  0.1482 -0.0267  0.8571
   35CHL1    C3 2517   4.382   5.472   7.163 -0.2368 -0.0176 -0.4083
   35CHL1    H3 2518   4.316   5.561   7.169 -0.7603 -0.2603 -2.0936
   35CHL1    O3 2519   4.422   5.466   7.027 -0.1787 -0.6297  0.4515
   35CHL1   H3' 2520   4.472   5.384   7.030  0.9364  0.0120  3.7667
   35CHL1    C4 2521   4.519   5.486   7.225 -0.9442  0.0652 -0.0557
   35CHL1   H4A 2522   4.580   5.395   7.207  0.6142  0.6373  1.9515
   35CHL1   H4B 2523   4.581   5.568   7.184 -0.1359 -1.6538 -2.5256
   35CHL1    C5 2524   4.511   5.491   7.372 -1.0852  0.1264 -0.5158
   35CHL1    C6 2525   4.565   5.595   7.430  0.2542  0.1236  0.2721
   35CHL1    H6 2526   4.618   5.662   7.361  1.2200 -1.3975 -0.5157
   35CHL1    C7 2527   4.562   5.630   7.578 -0.2422 -0.5297  0.2968
   35CHL1   H7A 2528   4.663   5.665   7.607 -0.6315 -0.5526  1.7358
   35CHL1   H7B 2529   4.484   5.707   7.597 -0.2503 -0.2616 -0.7742
   35CHL1    C8 2530   4.526   5.501   7.653  0.1230  0.2346 -0.1328
   35CHL1    H8 2531   4.615   5.435   7.637 -0.3997 -0.4905 -0.0825
   35CHL1   C14 2532   4.488   5.534   7.800 -0.5892  0.3668  0.4969
   35CHL1   H14 2533   4.399   5.602   7.796 -0.6513  0.2262 -1.4252
   35CHL1   C15 2534   4.587   5.617   7.881 -0.4570 -0.6475  0.5064
   35CHL1  H15A 2535   4.687   5.568   7.881  0.5105  1.2225  1.0264
   35CHL1  H15B 2536   4.587   5.725   7.857  0.3845 -0.6644  0.4165
   35CHL1   C16 2537   4.533   5.615   8.022  0.4705  0.6719  0.4929
   35CHL1  H16A 2538   4.618   5.577   8.082 -0.0459 -2.0004 -0.3253
   35CHL1  H16B 2539   4.498   5.716   8.050 -0.2236  0.7300 -0.5259
   35CHL1   C17 2540   4.422   5.496   8.020 -0.8485 -0.6860  0.4194
   35CHL1   H17 2541   4.325   5.550   8.018  0.2956  1.4505 -1.2687
   35CHL1   C13 2542   4.436   5.418   7.890  0.0388 -0.1919  0.0192
   35CHL1   C18 2543   4.551   5.314   7.907 -0.4873 -1.1635  0.5379
   35CHL1  H18A 2544   4.518   5.213   7.941  3.1725 -2.4262  0.7650
   35CHL1  H18B 2545   4.595   5.312   7.805 -0.4759  0.3737  0.4926
   35CHL1  H18C 2546   4.626   5.351   7.980  0.3772  0.4070 -1.0626
   35CHL1   C12 2547   4.309   5.357   7.818 -0.1624  0.1094  0.1991
   35CHL1  H12A 2548   4.274   5.264   7.869  3.0542 -1.1322  0.3759
   35CHL1  H12B 2549   4.228   5.431   7.835 -0.4659 -0.5388  1.7458
   35CHL1   C11 2550   4.346   5.316   7.677 -0.4795 -0.4434 -0.2887
   35CHL1  H11A 2551   4.418   5.231   7.673 -0.1098 -0.2344  1.1564
   35CHL1  H11B 2552   4.253   5.269   7.638 -1.1315  0.3075  0.3209
   35CHL1    C9 2553   4.403   5.432   7.587  0.6595 -0.1397  0.2450
   35CHL1    H9 2554   4.319   5.505   7.581 -1.0900 -2.1705 -1.1761
   35CHL1   C10 2555   4.437   5.380   7.443  0.2703  1.2803 -0.3427
   35CHL1   C19 2556   4.532   5.251   7.439  0.5333 -0.1773 -0.2801
   35CHL1  H19A 2557   4.469   5.166   7.475 -1.0427  0.8063 -0.6095
   35CHL1  H19B 2558   4.580   5.217   7.345  0.6594 -1.0563  0.0884
   35CHL1  H19C 2559   4.618   5.269   7.507  1.0821  0.1289 -1.0479
   35CHL1    C1 2560   4.309   5.344   7.362  0.0068 -0.3136 -0.2585
   35CHL1   H1A 2561   4.276   5.242   7.390 -1.0826  0.1122  0.0710
   35CHL1   H1B 2562   4.229   5.412   7.398 -0.1362 -0.8216  0.4055
   35CHL1    C2 2563   4.312   5.341   7.208  0.1305 -0.4970 -0.3145
   35CHL1   H2A 2564   4.212   5.308   7.174  0.1173 -1.5337  0.6614
   35CHL1   H2B 2565   4.377   5.258   7.173  0.2269 -0.4036 -0.3600
   35CHL1   C20 2566   4.431   5.423   8.160 -0.1594 -0.3434  0.0059
   35CHL1   H20 2567   4.526   5.366   8.167 -0.9445 -1.4840  4.1248
   35CHL1   C21 2568   4.318   5.322   8.151 -0.4390 -0.1461  0.1817
   35CHL1  H21A 2569   4.308   5.270   8.249 -0.0772  0.5754  0.6107
   35CHL1  H21B 2570   4.342   5.244   8.075  2.5089 -0.4666  1.2964
   35CHL1  H21C 2571   4.225   5.377   8.127  0.6006  1.2254 -0.8951
   35CHL1   C22 2572   4.418   5.517   8.281  0.1033 -0.1912 -0.7397
   35CHL1  H22A 2573   4.494   5.598   8.286  0.0454 -0.1665  3.8952
   35CHL1  H22B 2574   4.322   5.574   8.271  0.8421  0.9353 -1.6821
   35CHL1   C23 2575   4.433   5.439   8.415 -0.3522  0.1532  0.1487
   35CHL1  H23A 2576   4.361   5.361   8.447  0.8498 -0.1751  2.2786
   35CHL1  H23B 2577   4.525   5.376   8.407 -0.6358 -0.2387 -0.0507
   35CHL1   C24 2578   4.429   5.531   8.533  0.4200  0.1927 -0.4538
   35CHL1  H24A 2579   4.482   5.627   8.516 -1.4162  1.2807 -0.2696
   35CHL1  H24B 2580   4.321   5.555   8.536  0.1884 -0.8563  1.6550
   35CHL1   C25 2581   4.469   5.477   8.672 -0.1447  0.7480  0.5319
   35CHL1   H25 2582   4.399   5.397   8.704  0.9565 -0.0166  1.1172
   35CHL1   C26 2583   4.608   5.408   8.669 -0.0203 -0.2524 -0.5024
   35CHL1  H26A 2584   4.601   5.315   8.608  0.5524  0.2339 -1.3186
   35CHL1  H26B 2585   4.690   5.474   8.634 -1.9386  2.0766 -0.8543
   35CHL1  H26C 2586   4.620   5.367   8.772 -0.0855 -0.8878 -0.7434
   35CHL1   C27 2587   4.476   5.590   8.780 -0.3603  1.3293 -0.4519
   35CHL1  H27A 2588   4.527   5.553   8.871 -1.1005 -1.0937 -0.9637
   35CHL1  H27B 2589   4.371   5.613   8.808 -0.9599  0.4280 -1.8575
   35CHL1  H27C 2590   4.529   5.682   8.747 -1.2593  1.6096 -1.1846
   36CHL1    C3 2591   6.154   5.521   7.013  0.9395 -0.1125 -0.8810
   36CHL1    H3 2592   6.059   5.503   7.067  0.9518  1.4349 -0.2836
   36CHL1    O3 2593   6.137   5.529   6.872  0.1948 -0.0560 -0.0054
   36CHL1   H3' 2594   6.202   5.595   6.845  0.4927 -1.0946 -2.0268
   36CHL1    C4 2595   6.205   5.663   7.058  0.2743  0.0443  0.3198
   36CHL1   H4A 2596   6.300   5.670   7.001  1.1481 -0.5643  1.6661
   36CHL1   H4B 2597   6.127   5.733   7.023  1.7453  1.7146  0.2292
   36CHL1    C5 2598   6.248   5.654   7.207 -0.1553  1.1670  0.0398
   36CHL1    C6 2599   6.212   5.753   7.285  0.6333 -0.1589 -0.8209
   36CHL1    H6 2600   6.151   5.839   7.256  1.9443  1.4030  0.7669
   36CHL1    C7 2601   6.256   5.766   7.428 -1.0327  0.3083  0.2915
   36CHL1   H7A 2602   6.300   5.868   7.438 -0.0616 -0.1209  0.5558
   36CHL1   H7B 2603   6.171   5.749   7.498  0.8040 -0.6655  2.4263
   36CHL1    C8 2604   6.363   5.667   7.472 -0.6970  0.1492  0.1514
   36CHL1    H8 2605   6.463   5.702   7.439 -0.5729  0.0159  0.3791
   36CHL1   C14 2606   6.375   5.651   7.624  0.1110 -0.9603  0.5210
   36CHL1   H14 2607   6.283   5.607   7.668 -1.2411  1.5734  0.4344
   36CHL1   C15 2608   6.403   5.782   7.696 -0.6180  0.0588  0.2025
   36CHL1  H15A 2609   6.483   5.832   7.637 -1.4309  1.2752  0.0919
   36CHL1  H15B 2610   6.324   5.860   7.688 -0.2574  0.5294  1.0796
   36CHL1   C16 2611   6.448   5.747   7.834 -0.4600 -0.4683 -0.5429
   36CHL1  H16A 2612   6.534   5.805   7.875 -0.7539 -0.9520  0.8259
   36CHL1  H16B 2613   6.358   5.765   7.896  0.3418 -1.5802  1.0163
   36CHL1   C17 2614   6.490   5.594   7.830 -0.3381  0.9329 -0.0974
   36CHL1   H17 2615   6.406   5.537   7.876 -2.1185  2.5928 -1.1629
   36CHL1   C13 2616   6.492   5.558   7.677  0.4076  0.7803 -1.0039
   36CHL1   C18 2617   6.628   5.597   7.617  0.3780  1.0958  0.4456
   36CHL1  H18A 2618   6.705   5.520   7.638  0.4964 -0.1979 -3.7493
   36CHL1  H18B 2619   6.617   5.591   7.506  1.6152  0.7898  0.3232
   36CHL1  H18C 2620   6.657   5.698   7.654 -0.3297  0.6542  2.3173
   36CHL1   C12 2621   6.453   5.420   7.624  0.1855 -0.3753 -0.2304
   36CHL1  H12A 2622   6.537   5.348   7.640  2.0000  1.3078 -1.7429
   36CHL1  H12B 2623   6.356   5.403   7.676  0.1778  1.1508  0.2903
   36CHL1   C11 2624   6.425   5.418   7.466  0.5772  0.4138 -0.0024
   36CHL1  H11A 2625   6.529   5.409   7.429  0.2096  0.0498 -0.9915
   36CHL1  H11B 2626   6.373   5.320   7.461 -1.8889  1.3877  3.4105
   36CHL1    C9 2627   6.336   5.530   7.410  0.5097  0.0557 -0.1619
   36CHL1    H9 2628   6.231   5.507   7.437 -0.0975  0.9336 -1.6196
   36CHL1   C10 2629   6.336   5.532   7.255  1.4408 -0.2066 -0.3352
   36CHL1   C19 2630   6.480   5.571   7.201  0.2090 -0.1376  0.5061
   36CHL1  H19A 2631   6.475   5.577   7.090 -0.9336  1.5333  0.6041
   36CHL1  H19B 2632   6.507   5.670   7.242  1.2500  0.0101 -0.4640
   36CHL1  H19C 2633   6.561   5.499   7.227  0.2309 -0.8243 -1.3101
   36CHL1    C1 2634   6.275   5.399   7.200  0.0201 -0.0083 -0.3531
   36CHL1   H1A 2635   6.344   5.315   7.223 -0.7574 -0.4911  0.2322
   36CHL1   H1B 2636   6.177   5.388   7.251  1.1534 -0.4843  1.8714
   36CHL1    C2 2637   6.250   5.406   7.050  0.1839 -0.2252 -0.0761
   36CHL1   H2A 2638   6.209   5.308   7.017 -1.7513 -0.4115  2.5503
   36CHL1   H2B 2639   6.348   5.423   6.999  0.9978 -2.4504  0.6536
   36CHL1   C20 2640   6.611   5.550   7.919  0.1376  0.4522  0.1818
   36CHL1   H20 2641   6.704   5.603   7.889  1.7380 -1.0920  2.1356
   36CHL1   C21 2642   6.631   5.399   7.899  0.8238 -0.2730 -0.5066
   36CHL1  H21A 2643   6.709   5.356   7.966  0.7513 -1.4201 -1.1312
   36CHL1  H21B 2644   6.670   5.387   7.796  0.7140  0.4290 -0.6370
   36CHL1  H21C 2645   6.536   5.343   7.914 -1.4905  3.5288  0.4579
   36CHL1   C22 2646   6.588   5.579   8.066 -0.3991 -0.4577 -0.2680
   36CHL1  H22A 2647   6.598   5.685   8.096 -1.8493 -0.0398 -1.1697
   36CHL1  H22B 2648   6.486   5.546   8.094 -0.7465  1.2344  0.5698
   36CHL1   C23 2649   6.675   5.501   8.172  0.0614  0.6397 -0.8183
   36CHL1  H23A 2650   6.645   5.395   8.186 -0.2168  1.0675  2.7356
   36CHL1  H23B 2651   6.782   5.500   8.143  0.1789  0.9352 -0.3971
   36CHL1   C24 2652   6.657   5.561   8.313  0.4048 -0.5260  0.3563
   36CHL1  H24A 2653   6.693   5.666   8.317 -1.1585  0.1082 -0.8520
   36CHL1  H24B 2654   6.549   5.564   8.343 -0.1202 -0.1276 -1.4551
   36CHL1   C25 2655   6.731   5.487   8.422 -0.0444  0.1953  0.0046
   36CHL1   H25 2656   6.826   5.448   8.380 -0.5482 -0.4454 -0.5582
   36CHL1   C26 2657   6.748   5.580   8.531  0.5299 -0.1922 -0.6906
   36CHL1  H26A 2658   6.804   5.672   8.501 -1.0738  0.5590 -1.5212
   36CHL1  H26B 2659   6.653   5.617   8.574  1.1410  1.3352 -0.5914
   36CHL1  H26C 2660   6.794   5.526   8.616  0.5045  3.4334  1.8618
   36CHL1   C27 2661   6.669   5.354   8.469 -0.4969  0.6158  0.5654
   36CHL1  H27A 2662   6.558   5.361   8.482 -1.0417 -2.5122 -1.3706
   36CHL1  H27B 2663   6.688   5.273   8.395 -0.7284 -0.2826  1.4632
   36CHL1  H27C 2664   6.723   5.312   8.557  2.2527  1.1407 -0.7708
   37CHL1    C3 2665   2.047   1.080   6.932  0.5618  0.3346 -0.4223
   37CHL1    H3 2666   1.954   1.139   6.920 -0.0813 -0.5151  0.2574
   37CHL1    O3 2667   2.081   1.036   6.804  0.0349  0.4198 -0.3758
   37CHL1   H3' 2668   2.175   1.052   6.797 -0.0050  0.5218 -0.6911
   37CHL1    C4 2669   2.158   1.176   6.996 -0.1634  0.1475  0.7112
   37CHL1   H4A 2670   2.257   1.125   6.993  0.4496  1.3531 -0.4202
   37CHL1   H4B 2671   2.168   1.256   6.920  2.5674 -2.2792 -1.7440
   37CHL1    C5 2672   2.127   1.200   7.148 -0.3159 -0.1722  0.3061
   37CHL1    C6 2673   2.117   1.326   7.193  0.2290 -0.1607  0.6052
   37CHL1    H6 2674   2.123   1.400   7.112 -1.8321 -1.7497 -1.1417
   37CHL1    C7 2675   2.112   1.371   7.340  0.2075 -0.1184 -0.1529
   37CHL1   H7A 2676   2.184   1.453   7.361  1.0298 -1.2667  1.8156
   37CHL1   H7B 2677   2.010   1.412   7.356  0.4223  0.6993 -0.8317
   37CHL1    C8 2678   2.149   1.246   7.434  0.1843  0.1502  0.3688
   37CHL1    H8 2679   2.255   1.220   7.418 -0.4178 -1.4868 -1.3066
   37CHL1   C14 2680   2.113   1.276   7.576 -0.0253 -0.2364 -0.1551
   37CHL1   H14 2681   2.004   1.299   7.577 -0.4057 -1.9164  0.9880
   37CHL1   C15 2682   2.171   1.396   7.650 -0.3440 -0.3651 -0.5736
   37CHL1  H15A 2683   2.281   1.387   7.636  0.2426  1.9943  1.7164
   37CHL1  H15B 2684   2.136   1.487   7.597  0.7672  0.0642 -0.5899
   37CHL1   C16 2685   2.136   1.379   7.794 -0.2192 -0.2190  0.0761
   37CHL1  H16A 2686   2.234   1.388   7.845 -0.5998  1.2387  0.6071
   37CHL1  H16B 2687   2.081   1.468   7.831  2.2360  0.3578  2.6873
   37CHL1   C17 2688   2.064   1.247   7.806 -0.1127  0.2849  0.3464
   37CHL1   H17 2689   1.955   1.269   7.800 -0.4216 -1.0876  0.5808
   37CHL1   C13 2690   2.112   1.173   7.681 -0.3502  0.2638 -0.0563
   37CHL1   C18 2691   2.266   1.134   7.705  0.5444  0.1416 -0.6288
   37CHL1  H18A 2692   2.269   1.035   7.755  1.1173  1.2064  1.6125
   37CHL1  H18B 2693   2.311   1.121   7.605  3.0143  1.3857  0.2319
   37CHL1  H18C 2694   2.311   1.212   7.771 -1.1614  0.5427  0.1168
   37CHL1   C12 2695   2.030   1.058   7.637  0.8892  0.2335 -0.4227
   37CHL1  H12A 2696   2.028   0.973   7.709 -0.6284  0.1912 -0.4725
   37CHL1  H12B 2697   1.922   1.084   7.634  0.5032 -1.2789 -0.2748
   37CHL1   C11 2698   2.072   1.006   7.500 -0.1982 -0.4530 -0.6233
   37CHL1  H11A 2699   2.181   0.988   7.514 -0.4731 -0.6128  1.8055
   37CHL1  H11B 2700   2.019   0.916   7.464  0.4230 -0.6669 -1.0264
   37CHL1    C9 2701   2.065   1.122   7.391 -0.4337  1.0026 -0.6242
   37CHL1    H9 2702   1.961   1.159   7.382 -0.4408  0.9558 -0.7335
   37CHL1   C10 2703   2.109   1.077   7.243  0.6895 -0.3555  0.2850
   37CHL1   C19 2704   2.242   0.995   7.252  0.2617  0.6445 -0.0505
   37CHL1  H19A 2705   2.312   1.058   7.310 -1.2970  0.4836  2.1369
   37CHL1  H19B 2706   2.230   0.898   7.305 -0.7080  0.9015  0.2162
   37CHL1  H19C 2707   2.277   0.968   7.151 -1.2932  1.9584 -0.9827
   37CHL1    C1 2708   1.999   0.995   7.169  0.1500  0.3049 -0.1295
   37CHL1   H1A 2709   1.993   0.902   7.229 -0.7406  1.1515  1.1587
   37CHL1   H1B 2710   1.903   1.051   7.177  0.1254  0.1213  1.1202
   37CHL1    C2 2711   2.016   0.961   7.021 -0.0946  0.1184  0.8491
   37CHL1   H2A 2712   1.934   0.904   6.973 -0.8970  0.1998  2.0678
   37CHL1   H2B 2713   2.093   0.882   7.007 -1.8489 -1.3020 -1.5236
   37CHL1   C20 2714   2.078   1.178   7.945 -1.0743 -0.0342 -0.1829
   37CHL1   H20 2715   2.167   1.112   7.948 -0.0686  1.2240  3.4983
   37CHL1   C21 2716   1.952   1.092   7.964  0.5427 -0.0071  1.0870
   37CHL1  H21A 2717   1.959   1.025   7.876  1.1793  0.2583  0.9331
   37CHL1  H21B 2718   1.858   1.151   7.957 -0.2268 -1.3488 -0.6661
   37CHL1  H21C 2719   1.951   1.030   8.056  3.3262 -0.2128  1.0520
   37CHL1   C22 2720   2.114   1.269   8.066 -0.3476 -0.8596 -0.5542
   37CHL1  H22A 2721   2.147   1.203   8.149 -2.4077  1.7383  2.5682
   37CHL1  H22B 2722   2.190   1.348   8.044 -0.9304  0.3150  1.3722
   37CHL1   C23 2723   1.983   1.343   8.115  0.0191 -0.1156 -0.3983
   37CHL1  H23A 2724   1.931   1.405   8.038 -0.0624  2.1870  1.3879
   37CHL1  H23B 2725   1.918   1.262   8.153  1.6852 -0.6732  1.4336
   37CHL1   C24 2726   2.011   1.452   8.216 -0.3077  0.1421  0.7723
   37CHL1  H24A 2727   2.075   1.526   8.163 -0.8421  0.6331  0.8077
   37CHL1  H24B 2728   1.914   1.503   8.236 -0.9333 -0.6263 -0.1772
   37CHL1   C25 2729   2.060   1.400   8.353 -0.3831  0.4291  0.2633
   37CHL1   H25 2730   2.164   1.363   8.336 -0.0733  1.3585  0.0826
   37CHL1   C26 2731   2.062   1.518   8.452 -0.5238 -0.7197 -0.1499
   37CHL1  H26A 2732   2.143   1.587   8.420  1.1995 -2.3033  0.5906
   37CHL1  H26B 2733   1.969   1.573   8.475 -0.3124 -0.6182  0.4714
   37CHL1  H26C 2734   2.098   1.483   8.550 -0.6569 -2.2565 -0.6250
   37CHL1   C27 2735   1.995   1.282   8.416  0.7013 -0.3141 -0.4071
   37CHL1  H27A 2736   1.970   1.206   8.339  0.0914  0.1615 -0.6903
   37CHL1  H27B 2737   2.065   1.237   8.489 -0.1430 -0.3421  0.4020
   37CHL1  H27C 2738   1.906   1.321   8.470  0.4583  0.6422 -1.4630
   38CHL1    C3 2739   4.136   3.553   6.679 -0.3075 -0.2149  0.1852
   38CHL1    H3 2740   4.207   3.636   6.660  0.4383 -0.7694  0.5176
   38CHL1    O3 2741   4.040   3.535   6.575 -0.2832 -0.1050  0.1180
   38CHL1   H3' 2742   4.003   3.446   6.575  1.3311 -0.8902 -2.5846
   38CHL1    C4 2743   4.226   3.433   6.700 -0.1157 -0.4217  0.7267
   38CHL1   H4A 2744   4.156   3.347   6.714 -3.6797  1.9742 -0.8778
   38CHL1   H4B 2745   4.277   3.411   6.604 -0.9652  0.3634  0.0810
   38CHL1    C5 2746   4.336   3.451   6.802  0.3543  0.2212 -0.8319
   38CHL1    C6 2747   4.471   3.445   6.788  1.3067 -0.0593  0.0157
   38CHL1    H6 2748   4.506   3.422   6.686  0.5713 -0.6280 -0.1171
   38CHL1    C7 2749   4.567   3.456   6.891  0.2906 -0.3974 -0.1571
   38CHL1   H7A 2750   4.639   3.371   6.890  0.6430 -0.1329  1.0861
   38CHL1   H7B 2751   4.623   3.550   6.876  1.5137 -1.0398  0.3033
   38CHL1    C8 2752   4.503   3.446   7.036  0.7006  0.6951 -0.7562
   38CHL1    H8 2753   4.471   3.340   7.049 -1.6229  1.5516  1.3684
   38CHL1   C14 2754   4.602   3.463   7.144  0.7033  0.3214  0.1085
   38CHL1   H14 2755   4.641   3.564   7.118 -3.1481  1.7850 -0.5474
   38CHL1   C15 2756   4.738   3.384   7.150 -0.4493 -0.3581 -0.1475
   38CHL1  H15A 2757   4.723   3.274   7.153 -2.0903 -0.1357  1.8365
   38CHL1  H15B 2758   4.804   3.412   7.065  0.8250 -0.1477  0.8946
   38CHL1   C16 2759   4.796   3.415   7.285 -0.8131  0.7818  0.0053
   38CHL1  H16A 2760   4.821   3.320   7.337 -2.1594  1.4238  1.9293
   38CHL1  H16B 2761   4.886   3.476   7.265  0.5054 -0.3652  2.1109
   38CHL1   C17 2762   4.691   3.495   7.364 -0.2492 -0.2993  0.5906
   38CHL1   H17 2763   4.717   3.602   7.350  0.3851 -0.4764  0.3740
   38CHL1   C13 2764   4.554   3.472   7.291  0.3593  0.0888 -0.4024
   38CHL1   C18 2765   4.509   3.329   7.335 -0.5702  0.7611  0.0785
   38CHL1  H18A 2766   4.441   3.276   7.265  1.6693 -0.2695 -1.4436
   38CHL1  H18B 2767   4.598   3.263   7.333  0.3412  1.8713  1.7512
   38CHL1  H18C 2768   4.467   3.330   7.437  0.5409 -0.0791  0.5647
   38CHL1   C12 2769   4.444   3.584   7.301  0.9010 -0.6391 -0.4033
   38CHL1  H12A 2770   4.392   3.596   7.398 -1.2918  0.3927 -1.6147
   38CHL1  H12B 2771   4.485   3.682   7.267  1.9899 -0.9979 -0.1688
   38CHL1   C11 2772   4.331   3.556   7.197 -0.3768  0.1700 -0.1661
   38CHL1  H11A 2773   4.281   3.465   7.236  2.0068 -0.8876  0.6217
   38CHL1  H11B 2774   4.253   3.635   7.202 -3.5872 -2.7480 -0.0807
   38CHL1    C9 2775   4.378   3.535   7.052  0.3131 -0.0747 -0.3449
   38CHL1    H9 2776   4.413   3.635   7.019 -2.4948  0.5558 -1.6478
   38CHL1   C10 2777   4.273   3.488   6.942  0.0481  0.0448 -0.2186
   38CHL1   C19 2778   4.211   3.356   6.990 -0.7102 -0.2497  0.5664
   38CHL1  H19A 2779   4.116   3.334   6.936 -0.7086  0.3805  0.2906
   38CHL1  H19B 2780   4.284   3.272   6.985  0.5207  0.7739  0.7641
   38CHL1  H19C 2781   4.184   3.373   7.096  2.4235 -0.3575  1.4800
   38CHL1    C1 2782   4.167   3.602   6.923 -0.1598  0.7108 -0.6192
   38CHL1   H1A 2783   4.122   3.620   7.023  0.1939  0.4130 -0.4051
   38CHL1   H1B 2784   4.230   3.687   6.891  1.3548  0.0841  0.5793
   38CHL1    C2 2785   4.061   3.582   6.813 -0.0770 -0.4015 -0.1626
   38CHL1   H2A 2786   4.002   3.675   6.801  0.8317  0.5137  1.8367
   38CHL1   H2B 2787   3.986   3.508   6.848 -1.0817  0.3368 -0.7353
   38CHL1   C20 2788   4.702   3.472   7.516 -0.5636  0.5204 -0.7479
   38CHL1   H20 2789   4.696   3.364   7.541  0.5669  0.9244  1.4684
   38CHL1   C21 2790   4.601   3.556   7.594 -0.3906 -0.1496  0.1943
   38CHL1  H21A 2791   4.495   3.529   7.572 -0.3965  0.9954 -1.3574
   38CHL1  H21B 2792   4.602   3.665   7.573  1.0241  0.0553  1.1956
   38CHL1  H21C 2793   4.618   3.556   7.704 -1.6448  0.8931  0.4145
   38CHL1   C22 2794   4.853   3.501   7.566 -0.2044  0.2169  0.7541
   38CHL1  H22A 2795   4.915   3.428   7.509  0.3396  0.0192  1.5707
   38CHL1  H22B 2796   4.885   3.604   7.540  2.1411 -0.7725 -0.6456
   38CHL1   C23 2797   4.882   3.483   7.713 -0.1041  0.3263  0.3205
   38CHL1  H23A 2798   4.834   3.555   7.783  0.0707  0.4029  0.3615
   38CHL1  H23B 2799   4.842   3.383   7.740 -0.3094  0.7724  1.7243
   38CHL1   C24 2800   5.032   3.498   7.747  0.6273 -0.9487  0.4500
   38CHL1  H24A 2801   5.087   3.407   7.717  1.6167 -0.7393  1.5508
   38CHL1  H24B 2802   5.078   3.583   7.692 -1.1947  0.3927  0.8778
   38CHL1   C25 2803   5.060   3.524   7.900 -0.0280  0.1576 -0.3472
   38CHL1   H25 2804   5.001   3.606   7.944 -1.5849 -1.2079  0.2283
   38CHL1   C26 2805   5.042   3.397   7.985 -0.6232  0.0095 -0.5045
   38CHL1  H26A 2806   5.122   3.321   7.976  0.6548  1.3806 -1.2270
   38CHL1  H26B 2807   5.048   3.428   8.091 -0.2288 -1.4751 -0.0809
   38CHL1  H26C 2808   4.940   3.354   7.979  0.0724 -2.6144  3.1022
   38CHL1   C27 2809   5.201   3.575   7.913 -0.3456  0.0839  0.2356
   38CHL1  H27A 2810   5.222   3.640   7.825 -0.2332 -0.6433 -0.2788
   38CHL1  H27B 2811   5.218   3.624   8.012  1.7467 -1.8721  0.9446
   38CHL1  H27C 2812   5.282   3.499   7.901  0.9693  1.6939 -1.7629
   39CHL1    C3 2813   4.203   1.294   6.815  0.3365  0.2685 -0.3595
   39CHL1    H3 2814   4.113   1.359   6.819 -0.2164 -0.5318  0.9199
   39CHL1    O3 2815   4.233   1.257   6.684  0.3092  0.5425 -0.5099
   39CHL1   H3' 2816   4.155   1.219   6.644  1.1337  0.1789 -1.8399
   39CHL1    C4 2817   4.327   1.368   6.879  0.2654 -0.0935  0.1358
   39CHL1   H4A 2818   4.416   1.307   6.854  1.5188  1.2272  1.2615
   39CHL1   H4B 2819   4.332   1.465   6.826  2.9621 -0.4791 -0.4205
   39CHL1    C5 2820   4.309   1.399   7.029 -0.1506  0.6546  0.7224
   39CHL1    C6 2821   4.330   1.521   7.081 -0.2871  0.0332  0.5292
   39CHL1    H6 2822   4.342   1.597   7.002 -0.7135 -1.3147 -0.8811
   39CHL1    C7 2823   4.320   1.554   7.230 -0.5801 -0.3681  0.2611
   39CHL1   H7A 2824   4.400   1.628   7.249 -1.8821  0.9266  0.8496
   39CHL1   H7B 2825   4.222   1.601   7.254 -0.3680 -0.6979  1.8575
   39CHL1    C8 2826   4.327   1.426   7.314  0.3785  0.7098  0.1857
   39CHL1    H8 2827   4.432   1.391   7.316  0.6240  1.4266  0.1054
   39CHL1   C14 2828   4.285   1.460   7.453  0.0457 -1.0204 -0.7307
   39CHL1   H14 2829   4.180   1.496   7.445 -1.1215 -3.9649 -0.1447
   39CHL1   C15 2830   4.360   1.577   7.521  0.1021 -0.4191 -0.5960
   39CHL1  H15A 2831   4.470   1.563   7.510  0.2982 -0.1406  0.8226
   39CHL1  H15B 2832   4.326   1.676   7.485  2.2269  0.9628  0.9702
   39CHL1   C16 2833   4.316   1.552   7.677  0.1499 -0.5878 -0.0129
   39CHL1  H16A 2834   4.410   1.555   7.736 -0.6660 -0.3828  1.3270
   39CHL1  H16B 2835   4.260   1.633   7.729  0.8306  1.3711 -2.1880
   39CHL1   C17 2836   4.233   1.423   7.685 -0.3926  0.0790 -0.7302
   39CHL1   H17 2837   4.124   1.437   7.675 -0.7179 -1.5415  0.1328
   39CHL1   C13 2838   4.283   1.345   7.559 -0.1596 -1.0009  0.0274
   39CHL1   C18 2839   4.427   1.286   7.583  1.0494 -0.6517  0.1888
   39CHL1  H18A 2840   4.410   1.202   7.654 -3.5209  1.0527  1.4430
   39CHL1  H18B 2841   4.482   1.246   7.495  2.1300 -0.0042  0.5583
   39CHL1  H18C 2842   4.483   1.363   7.640 -3.0036  2.3939  0.5761
   39CHL1   C12 2843   4.185   1.247   7.502 -0.3887  0.3538  0.1275
   39CHL1  H12A 2844   4.193   1.153   7.560 -1.1303  0.2301  0.0323
   39CHL1  H12B 2845   4.078   1.273   7.516 -1.4129 -2.4672 -1.6486
   39CHL1   C11 2846   4.210   1.201   7.358 -0.1012 -0.1033  0.1367
   39CHL1  H11A 2847   4.288   1.123   7.352 -0.0804 -0.0464 -0.3794
   39CHL1  H11B 2848   4.120   1.146   7.323  0.0751 -1.1014  1.1878
   39CHL1    C9 2849   4.229   1.318   7.260 -0.4064  0.2152  0.7728
   39CHL1    H9 2850   4.134   1.374   7.247 -1.0053 -0.9535 -0.1543
   39CHL1   C10 2851   4.273   1.277   7.117  0.2857  0.6049 -0.1537
   39CHL1   C19 2852   4.393   1.174   7.116  0.7086  0.4779 -0.8934
   39CHL1  H19A 2853   4.360   1.069   7.135  0.7941  0.8077  1.3187
   39CHL1  H19B 2854   4.463   1.171   7.030  1.0449 -2.9776 -0.6463
   39CHL1  H19C 2855   4.462   1.211   7.195 -0.4747  2.1152 -0.5739
   39CHL1    C1 2856   4.159   1.205   7.046  0.3713 -0.1112 -0.0603
   39CHL1   H1A 2857   4.139   1.111   7.102  0.2545  0.5187  0.9729
   39CHL1   H1B 2858   4.063   1.259   7.055 -0.1584 -0.6275 -1.9530
   39CHL1    C2 2859   4.173   1.171   6.895 -0.4935  0.1579  0.6284
   39CHL1   H2A 2860   4.079   1.138   6.844 -0.0894  0.7897 -0.5660
   39CHL1   H2B 2861   4.253   1.096   6.879 -0.6049  0.4224 -1.4827
   39CHL1   C20 2862   4.258   1.347   7.823  0.0270 -0.2733 -0.1273
   39CHL1   H20 2863   4.362   1.309   7.825  0.7469  1.5711  0.2144
   39CHL1   C21 2864   4.155   1.237   7.816  0.1780 -0.2699 -0.1927
   39CHL1  H21A 2865   4.184   1.151   7.752  1.5034 -0.7205  0.9802
   39CHL1  H21B 2866   4.056   1.277   7.785  0.3931 -0.6430 -1.4470
   39CHL1  H21C 2867   4.141   1.194   7.917  0.0848  2.9327  1.2951
   39CHL1   C22 2868   4.230   1.446   7.941 -0.1399  0.4263  0.3862
   39CHL1  H22A 2869   4.291   1.538   7.933 -0.4017  0.7186  1.4930
   39CHL1  H22B 2870   4.122   1.470   7.937 -0.4761 -1.0863 -0.3430
   39CHL1   C23 2871   4.253   1.395   8.088  0.2629  0.4819  0.0298
   39CHL1  H23A 2872   4.200   1.297   8.094  0.6715  0.2730  0.2501
   39CHL1  H23B 2873   4.364   1.391   8.100  0.4515  2.4676 -0.7059
   39CHL1   C24 2874   4.183   1.482   8.188  0.1529 -0.5041 -1.5237
   39CHL1  H24A 2875   4.227   1.584   8.184 -0.2955 -0.1946  0.4871
   39CHL1  H24B 2876   4.080   1.498   8.151  0.8137  2.8566 -2.2613
   39CHL1   C25 2877   4.197   1.422   8.332 -0.7167 -0.5643  0.3358
   39CHL1   H25 2878   4.302   1.397   8.358 -0.9620 -1.9551  0.0622
   39CHL1   C26 2879   4.142   1.523   8.431 -0.0908 -0.2697 -1.5138
   39CHL1  H26A 2880   4.160   1.482   8.533 -0.7322  0.6324 -1.0194
   39CHL1  H26B 2881   4.198   1.619   8.419 -0.2573  0.3077  1.5215
   39CHL1  H26C 2882   4.036   1.548   8.410 -0.2449  0.0234 -0.4510
   39CHL1   C27 2883   4.138   1.279   8.348  0.0226  0.4104  0.0222
   39CHL1  H27A 2884   4.027   1.279   8.356  0.0927 -1.7287  3.0896
   39CHL1  H27B 2885   4.163   1.203   8.271  0.1601  0.8951 -0.4172
   39CHL1  H27C 2886   4.170   1.229   8.442  1.6430  1.0242 -0.1781
   40CHL1    C3 2887   1.123   0.073   6.876 -0.0972 -0.5354 -0.9684
   40CHL1    H3 2888   1.138   0.163   6.940 -1.4204 -2.0695  1.6863
   40CHL1    O3 2889   1.108   0.112   6.736  0.4793  0.1423 -0.8048
   40CHL1   H3' 2890   1.132   0.035   6.685  0.8856 -0.1952 -0.1135
   40CHL1    C4 2891   1.244  -0.021   6.899 -0.4245  0.1879 -0.3309
   40CHL1   H4A 2892   1.242  -0.102   6.824  2.9125 -1.4909  1.1878
   40CHL1   H4B 2893   1.329   0.045   6.869  0.9815 -0.5867  1.7310
   40CHL1    C5 2894   1.260  -0.062   7.041  0.4188 -0.1575  0.4261
   40CHL1    C6 2895   1.377  -0.046   7.107  0.3659 -0.3150 -0.4401
   40CHL1    H6 2896   1.465  -0.007   7.053 -0.2199 -0.1411 -1.2815
   40CHL1    C7 2897   1.395  -0.080   7.255  0.6608  0.7720  0.8150
   40CHL1   H7A 2898   1.493  -0.133   7.263  0.2039  0.0625  1.8674
   40CHL1   H7B 2899   1.414   0.014   7.311  0.8814  0.2294  1.6736
   40CHL1    C8 2900   1.282  -0.155   7.318 -0.0554  0.6339 -0.1312
   40CHL1    H8 2901   1.281  -0.260   7.281 -0.4987  1.9369 -4.3873
   40CHL1   C14 2902   1.280  -0.143   7.467 -0.0834 -0.2335  0.0070
   40CHL1   H14 2903   1.287  -0.033   7.483  0.6993  0.0274 -1.8107
   40CHL1   C15 2904   1.407  -0.193   7.538 -0.4022 -0.3564 -1.1217
   40CHL1  H15A 2905   1.446  -0.284   7.487  2.2554 -0.2629  0.5748
   40CHL1  H15B 2906   1.488  -0.117   7.543 -0.9761  0.4134 -2.7986
   40CHL1   C16 2907   1.355  -0.216   7.684 -0.4318 -0.1390 -0.1155
   40CHL1  H16A 2908   1.354  -0.325   7.705  1.7451 -0.4455 -1.4442
   40CHL1  H16B 2909   1.421  -0.164   7.757  2.4652 -0.1672 -2.5735
   40CHL1   C17 2910   1.207  -0.165   7.691  0.0621  0.1376 -0.3632
   40CHL1   H17 2911   1.220  -0.054   7.690  3.0225 -0.0751  1.4269
   40CHL1   C13 2912   1.161  -0.191   7.552 -0.5568  0.4214 -0.5601
   40CHL1   C18 2913   1.131  -0.340   7.530  0.3359  0.3309 -0.5169
   40CHL1  H18A 2914   1.041  -0.372   7.587  1.0452 -1.5284 -0.3574
   40CHL1  H18B 2915   1.116  -0.362   7.422 -1.8428 -1.5574  0.0957
   40CHL1  H18C 2916   1.220  -0.398   7.561  1.3372  1.3266 -1.4326
   40CHL1   C12 2917   1.049  -0.100   7.503  0.6385 -0.3628  0.0286
   40CHL1  H12A 2918   0.951  -0.106   7.556  0.2495  1.7824 -0.3702
   40CHL1  H12B 2919   1.087  -0.000   7.534  0.6730 -0.8885  1.8072
   40CHL1   C11 2920   1.023  -0.113   7.347 -0.1173 -0.0583 -0.0851
   40CHL1  H11A 2921   0.983  -0.215   7.332  0.7664 -0.9139  2.7172
   40CHL1  H11B 2922   0.951  -0.033   7.322  1.3547  1.3056 -0.1454
   40CHL1    C9 2923   1.151  -0.092   7.263  0.5651 -0.2877 -0.5522
   40CHL1    H9 2924   1.159   0.017   7.286 -1.4917 -0.0420 -0.8025
   40CHL1   C10 2925   1.126  -0.103   7.111 -0.2204  0.2893  0.4197
   40CHL1   C19 2926   1.110  -0.258   7.079 -0.0270 -0.2912  0.1659
   40CHL1  H19A 2927   1.207  -0.310   7.090  1.3452  1.9523 -0.5343
   40CHL1  H19B 2928   1.034  -0.301   7.147  0.5376  3.9465  3.9771
   40CHL1  H19C 2929   1.073  -0.268   6.974 -1.4854  0.3546  0.5936
   40CHL1    C1 2930   1.001  -0.030   7.061 -0.2609  0.4351 -0.3756
   40CHL1   H1A 2931   0.912  -0.085   7.100 -1.1715  1.5800 -0.7712
   40CHL1   H1B 2932   1.001   0.066   7.117 -0.6193 -0.3811  1.0793
   40CHL1    C2 2933   0.993   0.000   6.912 -0.3575 -0.3527  0.1542
   40CHL1   H2A 2934   0.907   0.069   6.894 -0.8771 -0.2953  2.5473
   40CHL1   H2B 2935   0.973  -0.091   6.851 -0.6482 -0.8467  0.9698
   40CHL1   C20 2936   1.120  -0.209   7.806  0.2966  0.0518  0.8538
   40CHL1   H20 2937   1.042  -0.279   7.768  0.6834  0.1262 -0.1011
   40CHL1   C21 2938   1.060  -0.073   7.852 -0.1496  0.5051  0.0226
   40CHL1  H21A 2939   0.980  -0.092   7.926 -0.2195  0.8793  0.0448
   40CHL1  H21B 2940   1.024  -0.006   7.770 -0.0024  0.2459 -0.2542
   40CHL1  H21C 2941   1.140  -0.014   7.900 -0.7174  1.8687 -0.6234
   40CHL1   C22 2942   1.199  -0.281   7.921 -0.0159 -0.1253 -0.1618
   40CHL1  H22A 2943   1.233  -0.379   7.880  0.9265  0.4825 -0.8570
   40CHL1  H22B 2944   1.278  -0.224   7.974 -0.1300  0.5365 -0.6937
   40CHL1   C23 2945   1.109  -0.316   8.040 -0.3471  0.7144 -0.0186
   40CHL1  H23A 2946   1.088  -0.223   8.097 -0.2065  0.8158 -0.1338
   40CHL1  H23B 2947   1.014  -0.353   7.995 -0.6895  0.4087  0.9210
   40CHL1   C24 2948   1.174  -0.419   8.136  0.6106 -0.2584 -0.1215
   40CHL1  H24A 2949   1.160  -0.521   8.095 -1.1055 -0.9950  2.0946
   40CHL1  H24B 2950   1.280  -0.393   8.156  0.2127  1.5137 -0.0888
   40CHL1   C25 2951   1.113  -0.423   8.280  0.0766 -0.6029 -0.0516
   40CHL1   H25 2952   1.129  -0.328   8.334 -1.7716 -0.7823  0.9058
   40CHL1   C26 2953   0.962  -0.435   8.277 -0.1096  0.2970  0.1376
   40CHL1  H26A 2954   0.906  -0.345   8.243  0.1258  0.2244 -0.4572
   40CHL1  H26B 2955   0.935  -0.521   8.211 -1.3448 -0.7847  1.9777
   40CHL1  H26C 2956   0.914  -0.454   8.375  1.3362  3.7797  1.6877
   40CHL1   C27 2957   1.180  -0.528   8.365 -0.2841 -0.6568 -0.4368
   40CHL1  H27A 2958   1.121  -0.529   8.459 -0.6644  2.2456 -0.5618
   40CHL1  H27B 2959   1.168  -0.628   8.319 -0.7704 -1.7937  2.0197
   40CHL1  H27C 2960   1.289  -0.508   8.381 -0.5271  1.8613 -1.4460
   41CHL1    C3 2961   1.880   6.775   6.821 -0.0273  0.4441  0.6003
   41CHL1    H3 2962   1.829   6.677   6.835  2.2971 -0.9687 -0.1407
   41CHL1    O3 2963   1.858   6.813   6.686  0.4095  0.1065 -0.5704
   41CHL1   H3' 2964   1.764   6.832   6.691  0.5243  0.4856  3.3812
   41CHL1    C4 2965   1.817   6.881   6.913 -0.0232  0.6475 -0.0247
   41CHL1   H4A 2966   1.848   6.984   6.884  0.4104  0.7855  0.9103
   41CHL1   H4B 2967   1.709   6.881   6.886  0.2706  2.5425 -1.4517
   41CHL1    C5 2968   1.844   6.855   7.061  0.0401 -0.0549 -0.3111
   41CHL1    C6 2969   1.751   6.850   7.153  0.1829 -0.7133 -0.0653
   41CHL1    H6 2970   1.646   6.863   7.121  0.1306  0.1035  0.4128
   41CHL1    C7 2971   1.775   6.828   7.297  0.3141 -0.4268 -0.0255
   41CHL1   H7A 2972   1.701   6.882   7.360 -0.8063  1.1094 -2.5272
   41CHL1   H7B 2973   1.762   6.721   7.323  0.5124 -0.5817 -0.5706
   41CHL1    C8 2974   1.921   6.854   7.343 -0.3286  0.1200 -0.2411
   41CHL1    H8 2975   1.952   6.960   7.333 -1.0705  0.1803 -2.3567
   41CHL1   C14 2976   1.943   6.783   7.482  0.2261 -0.7592 -0.4109
   41CHL1   H14 2977   1.934   6.676   7.455 -3.0034 -0.9318  0.9620
   41CHL1   C15 2978   1.846   6.811   7.598  0.5185  0.6199 -0.1889
   41CHL1  H15A 2979   1.824   6.920   7.596 -0.3831  0.4385 -1.9531
   41CHL1  H15B 2980   1.751   6.759   7.576  1.4448 -0.5847 -1.5350
   41CHL1   C16 2981   1.934   6.780   7.725 -0.0990  0.0933  0.4159
   41CHL1  H16A 2982   1.929   6.874   7.785  2.9800  0.7039 -0.1226
   41CHL1  H16B 2983   1.888   6.700   7.786  0.2434 -1.1687 -0.9381
   41CHL1   C17 2984   2.074   6.736   7.676  0.6231 -0.0232  0.6649
   41CHL1   H17 2985   2.069   6.625   7.667  0.5750  0.0939 -0.9541
   41CHL1   C13 2986   2.086   6.801   7.535 -0.1223 -0.5539  0.8670
   41CHL1   C18 2987   2.121   6.950   7.548 -0.1114 -0.9110 -0.3102
   41CHL1  H18A 2988   2.221   6.960   7.593 -0.1217  1.2926 -0.6956
   41CHL1  H18B 2989   2.120   7.005   7.451 -1.2669 -1.1847 -0.4746
   41CHL1  H18C 2990   2.043   6.997   7.611 -1.3361 -0.7535 -1.8741
   41CHL1   C12 2991   2.179   6.724   7.432  0.8717 -1.1711 -0.3180
   41CHL1  H12A 2992   2.288   6.738   7.449  0.7956 -0.7558 -0.1619
   41CHL1  H12B 2993   2.157   6.615   7.428  0.3656 -1.0575 -0.6616
   41CHL1   C11 2994   2.165   6.779   7.291  1.4159 -0.2523  0.2236
   41CHL1  H11A 2995   2.202   6.883   7.296 -0.4480  0.3881  2.3434
   41CHL1  H11B 2996   2.224   6.722   7.216  1.7102 -1.5423  1.3971
   41CHL1    C9 2997   2.009   6.778   7.247 -0.0692 -0.4899  0.2038
   41CHL1    H9 2998   1.988   6.669   7.256  3.3461 -1.1386  2.5003
   41CHL1   C10 2999   1.991   6.824   7.097  0.8900 -1.0874 -0.1101
   41CHL1   C19 3000   2.069   6.957   7.077 -0.5046 -0.0059  0.0838
   41CHL1  H19A 3001   2.176   6.956   7.106 -1.1824  1.7590  2.9916
   41CHL1  H19B 3002   2.065   7.002   6.975 -1.1842  2.0548  0.9703
   41CHL1  H19C 3003   2.023   7.026   7.150 -0.1469  2.2720 -1.6940
   41CHL1    C1 3004   2.054   6.715   7.003  0.5723 -0.3909  0.0342
   41CHL1   H1A 3005   2.164   6.712   7.015  0.7898 -0.1775 -1.6741
   41CHL1   H1B 3006   2.011   6.617   7.035 -0.1223  0.6122  2.4121
   41CHL1    C2 3007   2.024   6.741   6.854 -0.1306 -0.2678  0.1237
   41CHL1   H2A 3008   2.059   6.655   6.792 -0.9969 -0.1701 -0.5169
   41CHL1   H2B 3009   2.092   6.825   6.829 -0.4594 -0.4827 -1.6150
   41CHL1   C20 3010   2.188   6.750   7.774  0.0397 -0.1344  0.1384
   41CHL1   H20 3011   2.231   6.852   7.762 -1.6260  0.5040 -0.7781
   41CHL1   C21 3012   2.290   6.636   7.744 -0.6474 -0.1453 -0.9501
   41CHL1  H21A 3013   2.268   6.550   7.812 -1.6796  0.5989 -0.3054
   41CHL1  H21B 3014   2.393   6.673   7.767  0.5676 -2.2798 -2.5937
   41CHL1  H21C 3015   2.289   6.607   7.637 -0.8240  1.3615 -1.3780
   41CHL1   C22 3016   2.142   6.746   7.925  0.1912  0.3348  0.1124
   41CHL1  H22A 3017   2.098   6.846   7.944 -1.2878 -0.7243  2.8496
   41CHL1  H22B 3018   2.063   6.672   7.951  0.0835  1.0977  2.1933
   41CHL1   C23 3019   2.254   6.738   8.029 -0.0541 -0.4920 -0.6727
   41CHL1  H23A 3020   2.307   6.642   8.015  0.6799 -0.4056  1.2179
   41CHL1  H23B 3021   2.315   6.830   8.017  0.4614 -0.7915 -0.3704
   41CHL1   C24 3022   2.202   6.729   8.176 -0.0142 -0.5434 -0.1927
   41CHL1  H24A 3023   2.138   6.816   8.203 -2.0128 -1.7040 -1.0130
   41CHL1  H24B 3024   2.136   6.640   8.186 -1.8646  0.5671 -1.8523
   41CHL1   C25 3025   2.302   6.739   8.284  0.5373 -0.1640  0.2300
   41CHL1   H25 3026   2.371   6.652   8.278  0.3898 -0.1796 -2.6258
   41CHL1   C26 3027   2.397   6.857   8.270  0.6413  0.2183 -0.3428
   41CHL1  H26A 3028   2.467   6.830   8.188 -1.7076 -2.4359 -1.6526
   41CHL1  H26B 3029   2.351   6.955   8.245 -0.7275 -0.5528 -0.9903
   41CHL1  H26C 3030   2.463   6.868   8.359  2.2829 -2.3878 -1.1062
   41CHL1   C27 3031   2.232   6.726   8.422 -0.5062  0.4698  0.1514
   41CHL1  H27A 3032   2.313   6.756   8.492  1.5649  0.1746 -1.9856
   41CHL1  H27B 3033   2.152   6.800   8.439  0.2347  1.2565  0.2626
   41CHL1  H27C 3034   2.194   6.623   8.439  1.8507 -0.2657  1.3760
   42CHL1    C3 3035   2.598   4.200   6.774  0.0042 -0.2422 -0.2712
   42CHL1    H3 3036   2.674   4.270   6.814 -1.1207 -0.9316  3.4370
   42CHL1    O3 3037   2.585   4.212   6.633  0.5236 -0.2427 -0.1345
   42CHL1   H3' 3038   2.659   4.165   6.596  1.3809  1.2534 -0.3894
   42CHL1    C4 3039   2.655   4.066   6.830  0.2736  0.0860  0.2418
   42CHL1   H4A 3040   2.573   3.998   6.799 -1.0005  0.3862  2.7147
   42CHL1   H4B 3041   2.751   4.039   6.781  0.9728  0.1742  1.5175
   42CHL1    C5 3042   2.665   4.075   6.988 -0.5979  0.7642 -0.2527
   42CHL1    C6 3043   2.780   4.049   7.056  0.1679  0.4968 -0.2035
   42CHL1    H6 3044   2.871   4.025   6.998 -0.1946 -0.2460 -0.4735
   42CHL1    C7 3045   2.797   4.046   7.207 -0.0003 -0.7144  0.2236
   42CHL1   H7A 3046   2.858   3.956   7.227  0.6625  0.1661  2.5470
   42CHL1   H7B 3047   2.858   4.137   7.229  0.9747 -1.1003 -0.7581
   42CHL1    C8 3048   2.663   4.043   7.277  0.7419 -0.6938  0.4621
   42CHL1    H8 3049   2.620   3.941   7.269 -1.5459  0.0644  2.1107
   42CHL1   C14 3050   2.677   4.076   7.428 -0.5220  0.1251  0.4809
   42CHL1   H14 3051   2.712   4.182   7.429 -1.2549  0.4418 -1.4709
   42CHL1   C15 3052   2.777   3.998   7.509 -0.2323 -0.0875 -0.4778
   42CHL1  H15A 3053   2.759   3.890   7.488  3.1915 -1.2627  1.6196
   42CHL1  H15B 3054   2.886   4.014   7.491 -0.6439  1.0593 -2.1007
   42CHL1   C16 3055   2.743   4.038   7.646 -0.5670 -0.2024 -0.3781
   42CHL1  H16A 3056   2.754   3.956   7.721  0.4144  0.4277  0.1805
   42CHL1  H16B 3057   2.815   4.115   7.678 -0.3944  0.0625 -1.3816
   42CHL1   C17 3058   2.596   4.099   7.647  0.1711 -0.1124  0.2040
   42CHL1   H17 3059   2.589   4.207   7.673 -2.2437 -0.0589 -0.3801
   42CHL1   C13 3060   2.550   4.065   7.507  0.4912  0.1416 -0.3694
   42CHL1   C18 3061   2.489   3.917   7.501 -0.7136 -0.1517  0.0326
   42CHL1  H18A 3062   2.479   3.883   7.396 -0.3126  1.3303 -0.5128
   42CHL1  H18B 3063   2.563   3.849   7.548 -0.9040  0.3217  1.0495
   42CHL1  H18C 3064   2.393   3.910   7.556 -0.4503  2.9008  1.0846
   42CHL1   C12 3065   2.459   4.179   7.443  0.2036 -0.0050 -0.2072
   42CHL1  H12A 3066   2.366   4.194   7.500  0.7100  1.9150  0.1832
   42CHL1  H12B 3067   2.512   4.277   7.445 -0.4753  0.3694 -0.4288
   42CHL1   C11 3068   2.426   4.146   7.298 -0.4350 -0.4009  0.1332
   42CHL1  H11A 3069   2.372   4.049   7.290  0.5340 -1.0244  0.9393
   42CHL1  H11B 3070   2.360   4.228   7.260  1.7898  0.2593 -2.7027
   42CHL1    C9 3071   2.555   4.142   7.215 -0.1355  0.2482 -0.4130
   42CHL1    H9 3072   2.601   4.243   7.220  0.7957 -0.1285 -0.9854
   42CHL1   C10 3073   2.541   4.116   7.061 -0.0286  0.4612 -0.4667
   42CHL1   C19 3074   2.428   4.018   7.030 -0.7786 -0.9602  0.1449
   42CHL1  H19A 3075   2.339   4.049   7.088  0.5665  1.6739  0.9698
   42CHL1  H19B 3076   2.400   4.004   6.923  0.1068  0.5051 -0.3107
   42CHL1  H19C 3077   2.452   3.927   7.088  2.2974  0.2389  0.9383
   42CHL1    C1 3078   2.494   4.244   6.999 -0.1420  0.1629  0.4934
   42CHL1   H1A 3079   2.399   4.283   7.039 -0.4196 -0.2791  0.2680
   42CHL1   H1B 3080   2.564   4.331   7.006  1.6891 -1.1776 -0.2021
   42CHL1    C2 3081   2.468   4.241   6.847  0.8265 -0.5033 -0.6188
   42CHL1   H2A 3082   2.426   4.336   6.809  1.1184 -1.1181 -2.5751
   42CHL1   H2B 3083   2.394   4.167   6.807 -0.4213  0.6663 -0.5495
   42CHL1   C20 3084   2.510   4.045   7.767  0.8394 -0.1751 -0.0047
   42CHL1   H20 3085   2.499   3.935   7.753  0.9413 -0.2426  0.4188
   42CHL1   C21 3086   2.360   4.099   7.775 -0.5456 -0.7281  0.1101
   42CHL1  H21A 3087   2.310   4.111   7.676 -0.4815 -2.4576 -0.1672
   42CHL1  H21B 3088   2.368   4.206   7.806 -2.9781 -0.5506  0.3042
   42CHL1  H21C 3089   2.284   4.050   7.839 -2.1865 -0.4068 -1.4890
   42CHL1   C22 3090   2.585   4.069   7.899 -0.0510  0.0546  0.0898
   42CHL1  H22A 3091   2.679   4.009   7.901 -1.0935 -1.6836 -0.7362
   42CHL1  H22B 3092   2.635   4.168   7.901  0.6426 -0.2952  0.1433
   42CHL1   C23 3093   2.496   4.058   8.026  0.1708 -0.2724  0.0005
   42CHL1  H23A 3094   2.426   4.144   8.016  0.5627 -0.1372 -1.9305
   42CHL1  H23B 3095   2.430   3.969   8.023 -0.5243  0.2412 -0.5331
   42CHL1   C24 3096   2.568   4.062   8.160  0.3925  0.1378  0.6843
   42CHL1  H24A 3097   2.654   3.991   8.157  2.1072  2.1608 -0.1552
   42CHL1  H24B 3098   2.615   4.161   8.177 -0.8453  0.8018  0.3781
   42CHL1   C25 3099   2.468   4.000   8.269 -0.4531 -0.8142  0.0555
   42CHL1   H25 3100   2.371   4.051   8.258  0.0095 -0.1225 -1.0122
   42CHL1   C26 3101   2.450   3.851   8.248  0.1661  0.0352 -0.3355
   42CHL1  H26A 3102   2.411   3.825   8.147 -0.8554  2.1634 -0.5451
   42CHL1  H26B 3103   2.549   3.801   8.257 -0.5254 -1.2568  0.5095
   42CHL1  H26C 3104   2.400   3.794   8.330  2.4171 -1.7651 -0.1141
   42CHL1   C27 3105   2.535   4.025   8.407  0.0335 -0.9894 -0.8881
   42CHL1  H27A 3106   2.628   3.963   8.412 -1.0587 -2.6129 -0.0168
   42CHL1  H27B 3107   2.470   3.988   8.488  1.0389 -1.4496 -0.2692
   42CHL1  H27C 3108   2.574   4.126   8.429 -0.2356 -1.4566  2.0332
   43CHL1    C3 3109   1.700   0.427   6.808 -0.5095 -0.1344  0.2812
   43CHL1    H3 3110   1.732   0.321   6.805 -0.8470 -0.2208 -1.8875
   43CHL1    O3 3111   1.706   0.477   6.672  0.5043 -0.4816  0.9836
   43CHL1   H3' 3112   1.707   0.573   6.684  0.3476 -0.2917 -0.3367
   43CHL1    C4 3113   1.556   0.450   6.854  0.0492 -0.1794 -0.5930
   43CHL1   H4A 3114   1.520   0.555   6.849 -2.3710 -0.9566 -0.7205
   43CHL1   H4B 3115   1.486   0.392   6.790 -0.0065 -1.2680  0.4120
   43CHL1    C5 3116   1.541   0.411   7.002  0.4873 -0.4629 -0.0689
   43CHL1    C6 3117   1.449   0.321   7.043  0.4666 -0.2867 -0.6469
   43CHL1    H6 3118   1.387   0.277   6.963  0.0988  0.0777 -0.5647
   43CHL1    C7 3119   1.420   0.276   7.181  0.0231 -0.3328 -0.1596
   43CHL1   H7A 3120   1.311   0.283   7.202  0.0121  2.3918 -0.8236
   43CHL1   H7B 3121   1.458   0.173   7.197  0.2139 -0.5321 -1.7070
   43CHL1    C8 3122   1.488   0.372   7.289 -0.9685  0.4914  0.2606
   43CHL1    H8 3123   1.430   0.466   7.296 -0.3060  0.8633  0.8660
   43CHL1   C14 3124   1.489   0.308   7.428  0.3008 -0.1605 -0.4872
   43CHL1   H14 3125   1.537   0.209   7.409 -0.4422 -0.8524  1.0683
   43CHL1   C15 3126   1.350   0.273   7.496 -1.0460 -0.2767 -0.5656
   43CHL1  H15A 3127   1.294   0.368   7.483 -2.0616 -0.8533 -0.4819
   43CHL1  H15B 3128   1.309   0.185   7.443  1.1701 -1.7755  0.0348
   43CHL1   C16 3129   1.399   0.233   7.638 -0.1756 -0.3858  0.2272
   43CHL1  H16A 3130   1.339   0.292   7.711  0.8355  0.1374  0.6410
   43CHL1  H16B 3131   1.391   0.122   7.643 -0.0856 -0.4619 -0.9271
   43CHL1   C17 3132   1.546   0.275   7.653 -1.0958 -0.0316 -0.6342
   43CHL1   H17 3133   1.614   0.190   7.629  2.6653  2.5782 -0.0359
   43CHL1   C13 3134   1.579   0.377   7.534 -0.5970  0.4037 -0.2781
   43CHL1   C18 3135   1.520   0.518   7.574  0.0719  0.4660  0.1973
   43CHL1  H18A 3136   1.425   0.512   7.632  0.4128 -1.0148  0.6527
   43CHL1  H18B 3137   1.596   0.557   7.646  3.0429 -3.0363 -0.7134
   43CHL1  H18C 3138   1.507   0.595   7.495 -1.5691 -0.1751 -0.1969
   43CHL1   C12 3139   1.720   0.383   7.471 -0.5330  0.1242 -0.2409
   43CHL1  H12A 3140   1.794   0.426   7.542 -0.8432 -0.5156  0.4832
   43CHL1  H12B 3141   1.767   0.283   7.455  1.2064  0.9007 -0.2309
   43CHL1   C11 3142   1.725   0.464   7.346 -0.3059 -0.0400  0.6020
   43CHL1  H11A 3143   1.697   0.569   7.370 -0.6931 -0.0631  0.2748
   43CHL1  H11B 3144   1.830   0.466   7.311 -1.0510 -0.5472 -1.8530
   43CHL1    C9 3145   1.633   0.403   7.238 -0.6435  0.5809  0.7882
   43CHL1    H9 3146   1.680   0.303   7.226 -0.3101  0.8074  0.1418
   43CHL1   C10 3147   1.644   0.475   7.105  0.8393 -0.4472  0.4033
   43CHL1   C19 3148   1.628   0.627   7.122  0.1459 -0.3096 -0.5056
   43CHL1  H19A 3149   1.719   0.672   7.165 -0.4858 -0.6327  1.2732
   43CHL1  H19B 3150   1.616   0.677   7.023 -0.6446 -0.9233 -0.7379
   43CHL1  H19C 3151   1.545   0.657   7.190  1.4905  1.8002  0.2973
   43CHL1    C1 3152   1.780   0.440   7.046  0.1132 -0.1112  0.1634
   43CHL1   H1A 3153   1.863   0.480   7.108  2.5560 -3.8427 -0.3179
   43CHL1   H1B 3154   1.805   0.332   7.046  1.5629  0.1474  2.8184
   43CHL1    C2 3155   1.802   0.495   6.901 -0.2359  1.0504  0.3347
   43CHL1   H2A 3156   1.900   0.455   6.867 -0.4496 -0.2061  1.1463
   43CHL1   H2B 3157   1.794   0.606   6.897 -1.2867  0.9688 -0.4258
   43CHL1   C20 3158   1.574   0.323   7.798  0.0445  0.1008 -0.5309
   43CHL1   H20 3159   1.532   0.425   7.811  0.6001  0.2037  0.5539
   43CHL1   C21 3160   1.726   0.340   7.820 -0.0377  0.3049 -0.5286
   43CHL1  H21A 3161   1.762   0.426   7.760  2.7223 -1.7505 -2.0802
   43CHL1  H21B 3162   1.784   0.254   7.778 -0.1706 -1.6424  2.8759
   43CHL1  H21C 3163   1.744   0.357   7.928 -0.1999 -0.5362 -0.3581
   43CHL1   C22 3164   1.508   0.230   7.905 -0.3814 -0.3166  1.1077
   43CHL1  H22A 3165   1.549   0.272   7.999 -0.5285  2.3926  0.0594
   43CHL1  H22B 3166   1.399   0.252   7.894  0.0128  0.2034 -3.4708
   43CHL1   C23 3167   1.558   0.082   7.905 -0.0649 -0.3012 -0.0341
   43CHL1  H23A 3168   1.504   0.019   7.831 -0.3280  0.1809 -0.2563
   43CHL1  H23B 3169   1.669   0.074   7.901 -0.1098 -0.9615  0.0652
   43CHL1   C24 3170   1.517   0.039   8.049 -1.2867 -0.5791 -0.0349
   43CHL1  H24A 3171   1.560   0.104   8.128  0.9707 -0.6734 -1.1126
   43CHL1  H24B 3172   1.409   0.033   8.073 -1.7019  0.4835 -1.4980
   43CHL1   C25 3173   1.567  -0.107   8.086 -0.1809  0.1366  0.3720
   43CHL1   H25 3174   1.549  -0.173   7.999  0.1223 -0.4417  0.7409
   43CHL1   C26 3175   1.718  -0.109   8.122 -0.5138  0.1022  0.3395
   43CHL1  H26A 3176   1.757  -0.205   8.161 -0.2191 -0.1822 -0.6377
   43CHL1  H26B 3177   1.774  -0.083   8.030  1.6990  0.4188  1.6806
   43CHL1  H26C 3178   1.736  -0.033   8.201 -3.1227 -0.8970  2.0249
   43CHL1   C27 3179   1.484  -0.155   8.207 -0.7073 -0.2509  0.3499
   43CHL1  H27A 3180   1.499  -0.259   8.243 -0.8503  0.0044  1.1685
   43CHL1  H27B 3181   1.496  -0.097   8.301  1.3429  0.1212 -0.0931
   43CHL1  H27C 3182   1.374  -0.158   8.190 -1.0230  4.3736  0.4778
   44CHL1    C3 3183   2.371   6.175   6.745 -0.4471  0.7679 -0.7475
   44CHL1    H3 3184   2.359   6.066   6.767  2.7631  0.1036 -1.7620
   44CHL1    O3 3185   2.344   6.183   6.599 -0.5143 -0.1551 -0.3180
   44CHL1   H3' 3186   2.303   6.268   6.583  1.9985  1.0741 -0.7607
   44CHL1    C4 3187   2.263   6.260   6.824 -0.9149  0.0143 -0.1459
   44CHL1   H4A 3188   2.261   6.366   6.790  0.1339  0.0116 -0.2693
   44CHL1   H4B 3189   2.162   6.218   6.807 -0.5203  0.1803 -3.5097
   44CHL1    C5 3190   2.303   6.259   6.972 -0.2720 -0.1978 -0.1767
   44CHL1    C6 3191   2.211   6.226   7.057 -0.7008  0.0011 -0.5163
   44CHL1    H6 3192   2.109   6.194   7.031 -1.5725  0.4038  2.0786
   44CHL1    C7 3193   2.229   6.227   7.208  0.0186  0.5804 -0.2710
   44CHL1   H7A 3194   2.161   6.294   7.264  1.5275  0.3223  2.0156
   44CHL1   H7B 3195   2.220   6.121   7.241  3.0183  0.3951  0.3157
   44CHL1    C8 3196   2.366   6.297   7.245 -0.2054  0.1001 -0.0233
   44CHL1    H8 3197   2.357   6.408   7.255  0.4375  0.2970 -1.4255
   44CHL1   C14 3198   2.406   6.238   7.380  0.0590 -0.1098  0.0243
   44CHL1   H14 3199   2.431   6.134   7.350 -1.4437  0.1986 -2.5919
   44CHL1   C15 3200   2.308   6.229   7.502  0.5131 -0.5638  0.0257
   44CHL1  H15A 3201   2.257   6.328   7.506 -1.8380 -1.6998 -0.5448
   44CHL1  H15B 3202   2.229   6.157   7.472 -1.4180  1.4818 -0.1047
   44CHL1   C16 3203   2.400   6.215   7.623  0.0763 -0.3701  0.6607
   44CHL1  H16A 3204   2.373   6.294   7.697  1.6064  0.7086  0.1068
   44CHL1  H16B 3205   2.378   6.117   7.671  0.7604 -0.7042  0.3060
   44CHL1   C17 3206   2.542   6.219   7.573  0.2868 -0.5237  0.2811
   44CHL1   H17 3207   2.568   6.119   7.534  0.4375 -0.5735  0.5048
   44CHL1   C13 3208   2.531   6.299   7.443  0.5264 -0.1954  0.2783
   44CHL1   C18 3209   2.508   6.448   7.481  0.0690  0.3136 -0.0848
   44CHL1  H18A 3210   2.606   6.486   7.519 -1.0438  1.8736  1.3690
   44CHL1  H18B 3211   2.490   6.513   7.393  1.7726 -0.6845 -1.2074
   44CHL1  H18C 3212   2.434   6.460   7.564 -0.3025  1.6962 -0.5870
   44CHL1   C12 3213   2.653   6.289   7.345  0.3768  0.7259 -0.4158
   44CHL1  H12A 3214   2.736   6.352   7.384 -0.0146  2.1401 -1.8199
   44CHL1  H12B 3215   2.687   6.183   7.345 -0.5975  0.4054 -0.4902
   44CHL1   C11 3216   2.612   6.328   7.201 -0.1067 -0.7539 -0.1859
   44CHL1  H11A 3217   2.585   6.435   7.200  2.1593 -0.1316 -0.4611
   44CHL1  H11B 3218   2.701   6.312   7.135 -0.8855  0.7694 -1.6695
   44CHL1    C9 3219   2.483   6.264   7.157  0.3190 -0.4166 -0.4297
   44CHL1    H9 3220   2.507   6.155   7.153  1.4150 -0.1798 -0.5823
   44CHL1   C10 3221   2.449   6.293   7.003  0.8954  0.3279  0.0065
   44CHL1   C19 3222   2.451   6.447   6.975 -0.7888  0.1154 -0.0744
   44CHL1  H19A 3223   2.547   6.491   7.011 -1.8939  1.3953  1.4818
   44CHL1  H19B 3224   2.449   6.466   6.866  0.0877  1.8900  0.1724
   44CHL1  H19C 3225   2.368   6.505   7.023 -0.4244 -0.6515  1.5512
   44CHL1    C1 3226   2.553   6.230   6.918  0.5732  0.1371  0.2681
   44CHL1   H1A 3227   2.658   6.260   6.938  0.9171 -1.6381  1.3749
   44CHL1   H1B 3228   2.554   6.124   6.950  1.2493 -0.3936 -1.3756
   44CHL1    C2 3229   2.515   6.223   6.770 -0.1466  0.2909 -0.0771
   44CHL1   H2A 3230   2.586   6.157   6.715 -0.6059  0.2244 -0.5939
   44CHL1   H2B 3231   2.537   6.325   6.731 -1.6441  0.2251 -1.1874
   44CHL1   C20 3232   2.653   6.255   7.678  0.0148 -0.0113 -0.2168
   44CHL1   H20 3233   2.743   6.300   7.632 -1.2312 -0.4665 -3.3654
   44CHL1   C21 3234   2.692   6.121   7.741 -0.2169  0.3786  0.1215
   44CHL1  H21A 3235   2.602   6.070   7.782  1.1402 -2.0080  0.3136
   44CHL1  H21B 3236   2.768   6.138   7.819  1.3750  0.4199 -1.3854
   44CHL1  H21C 3237   2.739   6.060   7.660 -1.3815 -0.0880 -0.2271
   44CHL1   C22 3238   2.607   6.344   7.793  0.0799 -0.2935  0.2713
   44CHL1  H22A 3239   2.576   6.442   7.750  1.4434 -0.3854 -0.9672
   44CHL1  H22B 3240   2.516   6.306   7.845 -0.3065 -0.6623 -0.6438
   44CHL1   C23 3241   2.721   6.374   7.891  0.1291  0.1740  0.7183
   44CHL1  H23A 3242   2.741   6.295   7.966  0.8200  2.0684  2.6486
   44CHL1  H23B 3243   2.811   6.403   7.833 -1.4825 -0.3788 -2.2631
   44CHL1   C24 3244   2.666   6.495   7.980  0.3118 -0.0990  0.1526
   44CHL1  H24A 3245   2.657   6.582   7.911 -2.3798 -0.6241 -0.2590
   44CHL1  H24B 3246   2.563   6.469   8.012 -0.6341 -0.8111 -3.0441
   44CHL1   C25 3247   2.755   6.535   8.091 -0.6599  0.5114  0.2138
   44CHL1   H25 3248   2.858   6.553   8.052 -0.0976 -1.2790  0.7877
   44CHL1   C26 3249   2.706   6.668   8.153  0.4047 -0.9412 -0.5564
   44CHL1  H26A 3250   2.604   6.667   8.198  0.7607 -1.1824  0.2565
   44CHL1  H26B 3251   2.762   6.709   8.240 -0.2629  0.5538 -0.7981
   44CHL1  H26C 3252   2.699   6.746   8.074 -1.5378 -2.0364 -1.5429
   44CHL1   C27 3253   2.774   6.418   8.191  0.1621 -0.2066 -0.2335
   44CHL1  H27A 3254   2.824   6.451   8.284 -1.6218  0.2974  0.6045
   44CHL1  H27B 3255   2.673   6.376   8.212 -0.4050  1.4226  0.4978
   44CHL1  H27C 3256   2.841   6.347   8.139 -0.1826  0.8475 -2.2514
   45CHL1    C3 3257   3.854   4.880   6.730 -0.0749  0.4347  0.5656
   45CHL1    H3 3258   3.855   4.770   6.744 -1.4469  0.1205 -1.4274
   45CHL1    O3 3259   3.816   4.899   6.598 -0.1574  0.9067  0.2575
   45CHL1   H3' 3260   3.741   4.842   6.578  0.2243  0.2326  0.7110
   45CHL1    C4 3261   3.748   4.950   6.817  0.0835 -0.2029  0.2146
   45CHL1   H4A 3262   3.742   5.052   6.774  0.3226 -0.7825 -1.2534
   45CHL1   H4B 3263   3.655   4.892   6.800  0.7593 -1.3207  0.2153
   45CHL1    C5 3264   3.791   4.949   6.961  0.3079  0.1110  0.0810
   45CHL1    C6 3265   3.706   4.899   7.052  0.8553  0.3179  0.5726
   45CHL1    H6 3266   3.604   4.871   7.025  0.1598 -0.7294  3.8879
   45CHL1    C7 3267   3.734   4.893   7.201 -0.0076  0.0873 -0.4041
   45CHL1   H7A 3268   3.642   4.927   7.253  0.3679 -0.5439  0.7037
   45CHL1   H7B 3269   3.741   4.785   7.223  0.7562  0.3132  0.5560
   45CHL1    C8 3270   3.864   4.954   7.241 -0.3098 -0.1079 -0.2714
   45CHL1    H8 3271   3.844   5.063   7.249 -2.3196 -0.5661  2.2809
   45CHL1   C14 3272   3.906   4.895   7.379  0.3299 -0.3801 -0.0791
   45CHL1   H14 3273   3.928   4.789   7.355  0.2045 -0.3440 -0.3530
   45CHL1   C15 3274   3.795   4.894   7.485 -0.3162  0.0796  0.7402
   45CHL1  H15A 3275   3.721   4.977   7.476  0.4722  0.7695  0.5281
   45CHL1  H15B 3276   3.735   4.805   7.455  0.7515 -0.8955  1.4312
   45CHL1   C16 3277   3.880   4.890   7.613 -0.0749  0.4040  0.8404
   45CHL1  H16A 3278   3.875   4.988   7.665  0.1352  0.5691  0.5477
   45CHL1  H16B 3279   3.836   4.810   7.677 -1.3627  1.1026  0.8697
   45CHL1   C17 3280   4.026   4.881   7.574  0.0601  0.2177  0.5910
   45CHL1   H17 3281   4.050   4.773   7.563 -2.8578 -0.7211  2.4197
   45CHL1   C13 3282   4.028   4.956   7.442 -0.7039 -0.0916  0.5802
   45CHL1   C18 3283   4.004   5.106   7.462  0.1343 -0.1047  0.3115
   45CHL1  H18A 3284   3.905   5.141   7.499  0.5577  1.7547 -0.2301
   45CHL1  H18B 3285   4.082   5.154   7.525 -0.1883  0.2803  0.4215
   45CHL1  H18C 3286   4.030   5.151   7.364  2.5531 -2.0166 -0.0238
   45CHL1   C12 3287   4.150   4.943   7.338  0.3032 -0.4877 -0.7804
   45CHL1  H12A 3288   4.231   5.011   7.370  0.6535  0.3961 -3.2918
   45CHL1  H12B 3289   4.181   4.836   7.336 -1.2644 -1.0326  0.7955
   45CHL1   C11 3290   4.111   4.991   7.197 -0.0601 -0.1649 -0.3799
   45CHL1  H11A 3291   4.104   5.102   7.189  0.8970 -0.0565  0.1308
   45CHL1  H11B 3292   4.190   4.946   7.133  1.2521  0.8417  0.4777
   45CHL1    C9 3293   3.975   4.941   7.136  0.3625  0.5860 -0.0475
   45CHL1    H9 3294   3.981   4.830   7.125 -2.5493  0.2678  0.6297
   45CHL1   C10 3295   3.933   4.986   6.992  0.0667 -0.3459 -0.5613
   45CHL1   C19 3296   3.949   5.140   6.974 -0.0465  0.5321 -0.3163
   45CHL1  H19A 3297   3.877   5.206   7.027 -1.3144  0.4504 -1.8572
   45CHL1  H19B 3298   4.052   5.160   7.011 -0.2462  0.3043  0.3791
   45CHL1  H19C 3299   3.932   5.170   6.869  0.1578  0.1104 -0.4727
   45CHL1    C1 3300   4.032   4.911   6.899 -0.6179  0.3807 -0.3753
   45CHL1   H1A 3301   4.131   4.957   6.923 -2.2353  3.4841  0.9914
   45CHL1   H1B 3302   4.031   4.802   6.917 -2.5663  0.3307 -0.6019
   45CHL1    C2 3303   3.997   4.931   6.754  0.0873 -0.1449 -0.0347
   45CHL1   H2A 3304   4.059   4.865   6.690 -0.8804 -1.2570  0.1347
   45CHL1   H2B 3305   3.999   5.030   6.705  0.8487  0.0406  0.3492
   45CHL1   C20 3306   4.118   4.931   7.687  0.4681  0.0704  0.5276
   45CHL1   H20 3307   4.114   5.042   7.685  0.8099  0.1005  1.3080
   45CHL1   C21 3308   4.263   4.882   7.664 -0.8575 -0.0737 -0.6804
   45CHL1  H21A 3309   4.269   4.771   7.668  1.5612  0.0494  1.4617
   45CHL1  H21B 3310   4.341   4.913   7.737 -0.7440  1.7012 -1.4923
   45CHL1  H21C 3311   4.302   4.911   7.564  1.1952 -1.6107 -0.3871
   45CHL1   C22 3312   4.070   4.902   7.833 -0.2111  0.0870  0.5017
   45CHL1  H22A 3313   3.972   4.951   7.851 -1.9188 -3.1767  0.9938
   45CHL1  H22B 3314   4.039   4.795   7.835 -0.7277  0.2377  0.9334
   45CHL1   C23 3315   4.167   4.930   7.951 -0.2403 -0.4309  0.3760
   45CHL1  H23A 3316   4.264   4.879   7.930 -0.9508 -2.4796  1.7219
   45CHL1  H23B 3317   4.195   5.037   7.958  2.4459 -1.0664  0.4135
   45CHL1   C24 3318   4.121   4.879   8.083 -0.0764 -0.4628 -0.4844
   45CHL1  H24A 3319   4.014   4.906   8.096 -0.2590 -0.8226 -1.1900
   45CHL1  H24B 3320   4.130   4.769   8.083  3.2156 -0.3031 -1.6354
   45CHL1   C25 3321   4.210   4.930   8.196  0.6826 -0.0478 -0.5327
   45CHL1   H25 3322   4.197   5.040   8.193 -0.7524 -0.1865 -3.5975
   45CHL1   C26 3323   4.159   4.877   8.332  0.5849 -0.4219  0.0776
   45CHL1  H26A 3324   4.166   4.767   8.347  0.3725 -0.2327  1.6699
   45CHL1  H26B 3325   4.214   4.927   8.414  0.5118  0.8605 -0.6201
   45CHL1  H26C 3326   4.055   4.914   8.341  0.5347 -0.3552 -0.6823
   45CHL1   C27 3327   4.358   4.893   8.179 -0.5330 -0.1674  0.1862
   45CHL1  H27A 3328   4.368   4.784   8.160 -0.2647  0.3601 -3.3396
   45CHL1  H27B 3329   4.403   4.945   8.092  0.1811  1.2337  1.3534
   45CHL1  H27C 3330   4.424   4.923   8.263  0.4405  1.8023 -1.1858
   46CHL1    C3 3331   3.438   5.944   7.008  0.3712 -0.5209 -0.6821
   46CHL1    H3 3332   3.394   6.042   7.036 -2.6359 -1.3600 -2.0703
   46CHL1    O3 3333   3.445   5.944   6.868 -0.4761 -0.0439  0.8484
   46CHL1   H3' 3334   3.461   5.853   6.844  1.0184  0.3458  0.2000
   46CHL1    C4 3335   3.574   5.916   7.076  0.3230  0.0314  0.2979
   46CHL1   H4A 3336   3.612   5.819   7.038 -0.6944 -0.4737  0.5303
   46CHL1   H4B 3337   3.653   5.985   7.041 -0.1206  0.3751 -0.0320
   46CHL1    C5 3338   3.565   5.889   7.224 -0.5554 -0.0349 -0.2524
   46CHL1    C6 3339   3.641   5.956   7.323 -0.1142  0.9468 -0.3956
   46CHL1    H6 3340   3.709   6.028   7.277 -1.3545  0.7281 -2.7168
   46CHL1    C7 3341   3.636   5.939   7.471 -0.0347  0.2278  0.6078
   46CHL1   H7A 3342   3.736   5.948   7.518  1.1384 -0.9566 -1.5201
   46CHL1   H7B 3343   3.572   6.020   7.512 -0.9053 -0.5659  0.8453
   46CHL1    C8 3344   3.555   5.811   7.519 -0.2806  0.0242  0.5245
   46CHL1    H8 3345   3.621   5.723   7.509 -1.2840 -0.6142 -0.8741
   46CHL1   C14 3346   3.516   5.818   7.665 -0.4798  0.1494 -0.2910
   46CHL1   H14 3347   3.453   5.909   7.677  0.4306  0.6702  0.7607
   46CHL1   C15 3348   3.626   5.833   7.770  0.5331  0.1708  0.4892
   46CHL1  H15A 3349   3.693   5.745   7.764  0.4745  0.0283  1.7968
   46CHL1  H15B 3350   3.676   5.932   7.756  0.4253  0.0241 -1.2138
   46CHL1   C16 3351   3.540   5.814   7.898 -0.7458  0.1354  0.1421
   46CHL1  H16A 3352   3.605   5.753   7.964 -0.9129 -0.0571  0.1311
   46CHL1  H16B 3353   3.538   5.914   7.946  1.1363 -0.0104  0.5793
   46CHL1   C17 3354   3.402   5.750   7.857  0.8305  0.5359 -0.5220
   46CHL1   H17 3355   3.320   5.824   7.865 -0.5682 -0.9631 -0.4631
   46CHL1   C13 3356   3.420   5.715   7.713  1.0798 -0.0611 -0.5935
   46CHL1   C18 3357   3.483   5.580   7.704 -0.2460 -0.5802  0.2140
   46CHL1  H18A 3358   3.511   5.551   7.600 -2.7220  0.0400 -0.7078
   46CHL1  H18B 3359   3.573   5.593   7.766  1.3070 -2.6552 -1.4633
   46CHL1  H18C 3360   3.419   5.503   7.752 -2.1165  0.5102 -0.4101
   46CHL1   C12 3361   3.293   5.718   7.630 -0.1902  0.0400  1.0835
   46CHL1  H12A 3362   3.222   5.636   7.656  1.4975 -1.6247  0.6349
   46CHL1  H12B 3363   3.229   5.809   7.632 -0.3449 -0.0127 -0.5885
   46CHL1   C11 3364   3.325   5.693   7.477  0.6050  0.2504 -0.6667
   46CHL1  H11A 3365   3.375   5.594   7.472 -0.6989 -0.5647  1.1348
   46CHL1  H11B 3366   3.230   5.687   7.420 -0.5958  1.1317  1.1283
   46CHL1    C9 3367   3.430   5.796   7.426 -0.2472  0.4979 -0.8063
   46CHL1    H9 3368   3.380   5.892   7.447 -0.2423 -0.0675  2.2079
   46CHL1   C10 3369   3.458   5.788   7.272  0.0893 -0.2804  0.1435
   46CHL1   C19 3370   3.492   5.640   7.233 -0.2113 -0.3509  0.0308
   46CHL1  H19A 3371   3.521   5.623   7.127 -0.6972 -2.2553  0.1768
   46CHL1  H19B 3372   3.575   5.607   7.300  0.1719 -0.4671 -0.4987
   46CHL1  H19C 3373   3.408   5.573   7.261  0.4420 -1.0662  0.3268
   46CHL1    C1 3374   3.318   5.822   7.200  0.4774 -0.3004  0.5998
   46CHL1   H1A 3375   3.237   5.748   7.218  0.2386 -0.0003  0.7705
   46CHL1   H1B 3376   3.285   5.925   7.225 -0.4367 -0.5815  0.5983
   46CHL1    C2 3377   3.334   5.827   7.044  0.1620  0.2629 -0.2452
   46CHL1   H2A 3378   3.235   5.855   7.000  0.8097  2.4377 -0.4547
   46CHL1   H2B 3379   3.366   5.728   7.006 -0.7693 -0.5492  1.0278
   46CHL1   C20 3380   3.344   5.648   7.961 -0.2115  0.2080  0.5890
   46CHL1   H20 3381   3.409   5.559   7.970  0.2936  0.1081 -2.8415
   46CHL1   C21 3382   3.201   5.609   7.916 -0.4644  0.0333  0.3296
   46CHL1  H21A 3383   3.150   5.553   7.997  1.6017 -1.0146  0.9684
   46CHL1  H21B 3384   3.207   5.547   7.825  0.8762  0.5015  0.0760
   46CHL1  H21C 3385   3.135   5.696   7.893 -1.7843 -1.1675 -0.5347
   46CHL1   C22 3386   3.339   5.693   8.103 -0.5202 -0.3260  0.3099
   46CHL1  H22A 3387   3.433   5.751   8.117 -0.2555 -0.3523 -1.1866
   46CHL1  H22B 3388   3.251   5.759   8.120 -1.4407 -1.1449 -1.0144
   46CHL1   C23 3389   3.328   5.588   8.217 -0.8539  0.3493 -0.6729
   46CHL1  H23A 3390   3.237   5.529   8.191  0.7521 -1.6630 -1.9631
   46CHL1  H23B 3391   3.408   5.512   8.215 -0.0424  1.1737 -0.5429
   46CHL1   C24 3392   3.323   5.649   8.358 -0.0407  0.4764 -0.2404
   46CHL1  H24A 3393   3.425   5.669   8.396 -0.8550  2.5308  1.0302
   46CHL1  H24B 3394   3.262   5.742   8.351 -1.2676 -0.1750  1.1769
   46CHL1   C25 3395   3.253   5.555   8.456  0.0133  0.6839 -0.0608
   46CHL1   H25 3396   3.152   5.538   8.413  0.0512 -0.8827  0.4154
   46CHL1   C26 3397   3.319   5.413   8.483 -0.0147  0.5130 -0.0289
   46CHL1  H26A 3398   3.317   5.353   8.390  1.5976  1.3580 -0.6388
   46CHL1  H26B 3399   3.423   5.431   8.518 -0.7253  0.4258  2.3008
   46CHL1  H26C 3400   3.268   5.358   8.566 -0.1385 -1.0180 -1.0812
   46CHL1   C27 3401   3.225   5.628   8.584  0.2744 -0.0066 -0.2445
   46CHL1  H27A 3402   3.178   5.728   8.571  0.2592  0.2236  1.4509
   46CHL1  H27B 3403   3.166   5.571   8.658  0.9990  0.9753  1.1275
   46CHL1  H27C 3404   3.323   5.643   8.635 -0.8843  2.1462  1.5138
   47CHL1    C3 3405   2.622   5.689   6.707 -0.4201 -0.7369 -0.0998
   47CHL1    H3 3406   2.710   5.622   6.700  2.5022  2.8623 -0.4485
   47CHL1    O3 3407   2.567   5.721   6.581 -0.6863  0.3038  0.2688
   47CHL1   H3' 3408   2.631   5.780   6.541  0.8937 -0.2499  1.8590
   47CHL1    C4 3409   2.516   5.635   6.798 -0.4437  0.6412 -0.5172
   47CHL1   H4A 3410   2.430   5.705   6.793 -0.5685  0.4404 -1.3018
   47CHL1   H4B 3411   2.498   5.533   6.758  1.1437  0.6903 -1.4629
   47CHL1    C5 3412   2.548   5.624   6.945 -0.7358  0.6405  0.2742
   47CHL1    C6 3413   2.556   5.505   7.007  0.9527 -0.3708 -0.9100
   47CHL1    H6 3414   2.514   5.416   6.957 -0.6830  0.1755 -0.5827
   47CHL1    C7 3415   2.584   5.487   7.155 -0.3274  0.3250 -0.0346
   47CHL1   H7A 3416   2.504   5.433   7.210 -1.2528  1.8067  0.1272
   47CHL1   H7B 3417   2.680   5.432   7.166 -1.4016 -2.0217 -1.4142
   47CHL1    C8 3418   2.588   5.625   7.229  0.5868  0.0048  0.1896
   47CHL1    H8 3419   2.482   5.649   7.252  0.6734 -1.1797  2.0355
   47CHL1   C14 3420   2.651   5.602   7.363  0.7624  0.0413 -0.3778
   47CHL1   H14 3421   2.749   5.558   7.336 -0.7235 -1.4432 -3.9719
   47CHL1   C15 3422   2.578   5.495   7.450 -0.0575  0.5078 -0.0836
   47CHL1  H15A 3423   2.470   5.518   7.445 -0.3010 -0.7030 -0.7703
   47CHL1  H15B 3424   2.606   5.393   7.415  0.3104  1.3307 -2.4141
   47CHL1   C16 3425   2.637   5.522   7.595  0.0564 -0.0027  0.2934
   47CHL1  H16A 3426   2.553   5.532   7.667  1.8544  1.8193  2.2863
   47CHL1  H16B 3427   2.710   5.446   7.632  0.5392  0.5719  0.5346
   47CHL1   C17 3428   2.727   5.649   7.587 -0.4071 -0.8837 -0.1650
   47CHL1   H17 3429   2.828   5.608   7.565  0.2824  0.7236 -0.0937
   47CHL1   C13 3430   2.673   5.721   7.460  0.4284 -0.8301  0.8773
   47CHL1   C18 3431   2.535   5.791   7.500  0.0529  0.1954 -0.4188
   47CHL1  H18A 3432   2.476   5.736   7.576 -0.3376  1.3262  0.1078
   47CHL1  H18B 3433   2.568   5.881   7.555  0.7202 -0.7033  0.7165
   47CHL1  H18C 3434   2.479   5.820   7.409 -0.6286  0.3961  0.0624
   47CHL1   C12 3435   2.759   5.809   7.378  0.3370  0.2136 -0.0847
   47CHL1  H12A 3436   2.785   5.907   7.422  1.5567 -0.2079  0.1984
   47CHL1  H12B 3437   2.854   5.765   7.338  0.3425  1.9580 -2.1721
   47CHL1   C11 3438   2.681   5.844   7.244 -0.2939 -0.4267 -0.0111
   47CHL1  H11A 3439   2.585   5.896   7.263 -0.8660 -1.5095  0.1777
   47CHL1  H11B 3440   2.757   5.904   7.189  1.0710 -1.4263  0.7312
   47CHL1    C9 3441   2.660   5.731   7.150 -0.9550  0.2478  0.8498
   47CHL1    H9 3442   2.763   5.690   7.141  0.7867  3.9863  1.9527
   47CHL1   C10 3443   2.601   5.750   7.009  0.2552 -1.3686 -0.5386
   47CHL1   C19 3444   2.476   5.844   7.005 -0.9581  0.3619 -1.4254
   47CHL1  H19A 3445   2.511   5.946   7.032  2.2396 -1.1026  0.5030
   47CHL1  H19B 3446   2.433   5.859   6.904  0.5252 -0.3454 -2.1959
   47CHL1  H19C 3447   2.392   5.827   7.075 -1.2423  1.9394 -1.3654
   47CHL1    C1 3448   2.718   5.799   6.915 -0.2519 -0.7891  0.0144
   47CHL1   H1A 3449   2.749   5.902   6.944 -0.0406 -1.1016  0.9514
   47CHL1   H1B 3450   2.812   5.741   6.932 -0.5187 -1.1678  0.2042
   47CHL1    C2 3451   2.681   5.813   6.767  0.1887 -0.4483 -0.0566
   47CHL1   H2A 3452   2.761   5.844   6.696 -0.6547 -0.2728 -0.9470
   47CHL1   H2B 3453   2.604   5.892   6.753 -0.2599 -1.0595 -1.0983
   47CHL1   C20 3454   2.736   5.731   7.720  0.1596  0.1294  0.2384
   47CHL1   H20 3455   2.659   5.809   7.734  0.6745  0.5678  0.6595
   47CHL1   C21 3456   2.875   5.807   7.709  0.4483 -0.5597 -0.6423
   47CHL1  H21A 3457   2.886   5.865   7.615 -0.9253 -0.1993 -0.6030
   47CHL1  H21B 3458   2.953   5.729   7.718  0.8336 -0.2466 -1.2348
   47CHL1  H21C 3459   2.901   5.865   7.801  0.2133  0.2759 -1.0909
   47CHL1   C22 3460   2.728   5.645   7.846  0.0736  0.1975  0.1969
   47CHL1  H22A 3461   2.640   5.578   7.838  0.3503 -0.2228  0.6197
   47CHL1  H22B 3462   2.815   5.577   7.849  0.4012  0.3422 -2.8704
   47CHL1   C23 3463   2.713   5.729   7.973  0.6212  0.2250 -0.0876
   47CHL1  H23A 3464   2.779   5.818   7.975 -0.3008  0.9090  0.9006
   47CHL1  H23B 3465   2.608   5.764   7.965  1.2822  2.2481 -0.6341
   47CHL1   C24 3466   2.720   5.658   8.110  0.5983  0.1975 -0.4363
   47CHL1  H24A 3467   2.615   5.636   8.138  1.0473 -0.9156  0.4692
   47CHL1  H24B 3468   2.779   5.564   8.107 -1.0264 -0.8426 -1.8993
   47CHL1   C25 3469   2.761   5.734   8.237  0.4578  0.8145  0.0695
   47CHL1   H25 3470   2.703   5.829   8.240 -1.8212 -0.5104  0.5938
   47CHL1   C26 3471   2.712   5.658   8.366 -0.0950 -0.6737 -0.1405
   47CHL1  H26A 3472   2.601   5.664   8.371 -0.1160 -1.6207  0.8936
   47CHL1  H26B 3473   2.741   5.551   8.356  1.0590 -0.2519 -1.8046
   47CHL1  H26C 3474   2.757   5.709   8.454 -1.2750  0.0975  0.0411
   47CHL1   C27 3475   2.912   5.769   8.238  0.4146  0.3605  0.3889
   47CHL1  H27A 3476   2.945   5.819   8.332 -2.0902  1.3149  0.8261
   47CHL1  H27B 3477   2.957   5.668   8.241 -0.9074 -0.2194  1.5860
   47CHL1  H27C 3478   2.945   5.827   8.149  0.9918 -0.4335  0.0758
   48CHL1    C3 3479   4.386   2.612   6.199  0.1564 -0.2605  0.1781
   48CHL1    H3 3480   4.338   2.513   6.187  0.4022 -0.3319 -0.2145
   48CHL1    O3 3481   4.396   2.658   6.065 -0.1840  0.1479 -0.0978
   48CHL1   H3' 3482   4.488   2.686   6.060 -1.0359  3.4108  0.1371
   48CHL1    C4 3483   4.300   2.702   6.301 -1.5848 -0.1421  0.4664
   48CHL1   H4A 3484   4.360   2.794   6.311 -1.3033 -0.3780  0.9887
   48CHL1   H4B 3485   4.200   2.736   6.265 -0.6281  1.3945 -0.8592
   48CHL1    C5 3486   4.297   2.647   6.443 -0.3224 -1.1860 -0.1650
   48CHL1    C6 3487   4.186   2.621   6.501 -0.0908  0.3114  0.4302
   48CHL1    H6 3488   4.092   2.647   6.450 -0.3544 -3.5393 -1.3718
   48CHL1    C7 3489   4.175   2.564   6.641  0.2911  0.6936  0.1525
   48CHL1   H7A 3490   4.094   2.620   6.693 -0.5256  1.7029 -2.0778
   48CHL1   H7B 3491   4.154   2.455   6.646 -0.6504  0.8217 -0.6966
   48CHL1    C8 3492   4.309   2.574   6.720  0.6794 -0.7903  0.6429
   48CHL1    H8 3493   4.312   2.684   6.736 -2.5595  0.2044 -3.5807
   48CHL1   C14 3494   4.310   2.495   6.853 -0.1383  0.0446 -0.3723
   48CHL1   H14 3495   4.300   2.391   6.815 -0.3366 -0.7471  1.7261
   48CHL1   C15 3496   4.193   2.523   6.952  0.1363 -0.0725  0.1584
   48CHL1  H15A 3497   4.182   2.632   6.971  2.2828  0.0529  0.9285
   48CHL1  H15B 3498   4.105   2.468   6.914 -0.4772  2.7230 -3.0174
   48CHL1   C16 3499   4.251   2.452   7.079  0.0290 -0.5946  0.1361
   48CHL1  H16A 3500   4.256   2.521   7.165  0.1838  1.2197 -1.2769
   48CHL1  H16B 3501   4.195   2.360   7.110  0.4477 -1.6505 -2.0525
   48CHL1   C17 3502   4.395   2.409   7.051 -0.2605 -0.0262 -0.2208
   48CHL1   H17 3503   4.395   2.309   7.002  2.5591  0.3180 -1.1123
   48CHL1   C13 3504   4.440   2.496   6.930  0.5742 -0.1797 -0.7549
   48CHL1   C18 3505   4.463   2.639   6.995 -0.3069 -0.2740  0.0112
   48CHL1  H18A 3506   4.564   2.639   7.041 -0.8480  0.5305  1.2601
   48CHL1  H18B 3507   4.479   2.712   6.913 -0.4032 -2.0838 -1.7086
   48CHL1  H18C 3508   4.386   2.677   7.065 -0.5916  0.7973 -0.8563
   48CHL1   C12 3509   4.560   2.450   6.837  0.4024  0.2585  0.2351
   48CHL1  H12A 3510   4.664   2.454   6.874  0.4492 -0.3558  0.1716
   48CHL1  H12B 3511   4.548   2.345   6.803 -0.4692 -0.4818  2.5873
   48CHL1   C11 3512   4.563   2.541   6.711 -0.1808  0.3662 -0.2456
   48CHL1  H11A 3513   4.599   2.642   6.742  0.3346  0.8202 -2.1489
   48CHL1  H11B 3514   4.636   2.498   6.639  0.3675 -0.0268  0.5316
   48CHL1    C9 3515   4.429   2.538   6.635  0.7871  0.4161  0.5677
   48CHL1    H9 3516   4.407   2.435   6.600  0.0588  0.9559 -0.6423
   48CHL1   C10 3517   4.434   2.625   6.503 -0.1091  0.7527 -0.3984
   48CHL1   C19 3518   4.502   2.761   6.526  0.4399 -0.2735  1.0235
   48CHL1  H19A 3519   4.458   2.812   6.614 -1.5898  0.8562 -0.5578
   48CHL1  H19B 3520   4.611   2.754   6.548  0.3141  0.4436  1.9197
   48CHL1  H19C 3521   4.484   2.842   6.451 -1.6550  0.8905  2.6948
   48CHL1    C1 3522   4.514   2.536   6.401 -0.1530 -0.2618 -0.2277
   48CHL1   H1A 3523   4.616   2.510   6.436 -1.1059 -2.0216  1.3751
   48CHL1   H1B 3524   4.470   2.436   6.384  2.1571 -1.6199  1.3705
   48CHL1    C2 3525   4.522   2.598   6.257 -0.1619  0.1495 -0.4909
   48CHL1   H2A 3526   4.572   2.519   6.197  1.3360  0.7372 -0.0514
   48CHL1   H2B 3527   4.575   2.695   6.249 -1.3270  0.7717 -0.9329
   48CHL1   C20 3528   4.480   2.400   7.180 -0.3031  0.4844  0.0587
   48CHL1   H20 3529   4.490   2.501   7.226 -0.7220  1.1032 -1.1727
   48CHL1   C21 3530   4.626   2.353   7.151  0.9834  0.6519 -0.2452
   48CHL1  H21A 3531   4.664   2.327   7.252 -1.4399 -2.9394 -0.0603
   48CHL1  H21B 3532   4.681   2.440   7.109 -1.3337  1.7472 -1.2182
   48CHL1  H21C 3533   4.632   2.267   7.081  3.4578 -1.5638  2.4308
   48CHL1   C22 3534   4.412   2.311   7.293 -0.1085 -0.6331  0.1036
   48CHL1  H22A 3535   4.305   2.340   7.292  0.0426  0.1048 -3.1517
   48CHL1  H22B 3536   4.423   2.206   7.259 -0.3491 -0.1746 -1.4702
   48CHL1   C23 3537   4.472   2.341   7.431 -0.3458 -0.1281  0.3859
   48CHL1  H23A 3538   4.579   2.311   7.433 -0.6276 -1.1728  1.5032
   48CHL1  H23B 3539   4.461   2.450   7.448 -2.1594 -0.4404  1.4806
   48CHL1   C24 3540   4.401   2.278   7.537 -0.2929 -0.1781 -0.2754
   48CHL1  H24A 3541   4.292   2.302   7.537 -0.7029 -1.7820  2.0806
   48CHL1  H24B 3542   4.408   2.169   7.517 -0.5247 -0.5020  1.2533
   48CHL1   C25 3543   4.449   2.293   7.681 -0.2773 -0.2131 -0.1459
   48CHL1   H25 3544   4.478   2.399   7.702  2.2919 -0.7567 -0.5698
   48CHL1   C26 3545   4.333   2.264   7.780 -0.4734 -0.0556 -0.0430
   48CHL1  H26A 3546   4.300   2.158   7.782 -1.5992  0.2957  1.4006
   48CHL1  H26B 3547   4.364   2.279   7.886 -0.1200 -0.1529 -0.1309
   48CHL1  H26C 3548   4.245   2.328   7.757 -0.8501 -1.1892 -2.0282
   48CHL1   C27 3549   4.567   2.197   7.712 -0.0408 -0.0710  0.2739
   48CHL1  H27A 3550   4.528   2.093   7.717 -0.2016  0.0200  0.9801
   48CHL1  H27B 3551   4.632   2.192   7.623 -0.8025  0.8508 -0.3514
   48CHL1  H27C 3552   4.609   2.227   7.810  0.8716  2.4064 -0.8123
   49CHL1    C3 3553   5.783   3.715   6.534 -0.2034  0.1817 -0.8157
   49CHL1    H3 3554   5.886   3.756   6.532 -0.0333  0.0412  2.0082
   49CHL1    O3 3555   5.731   3.711   6.401  0.3413 -0.2772  0.0451
   49CHL1   H3' 3556   5.807   3.669   6.359  1.0559 -0.4010  1.4134
   49CHL1    C4 3557   5.785   3.565   6.577 -0.8420 -0.9282 -0.9050
   49CHL1   H4A 3558   5.678   3.535   6.571 -0.4250 -3.0281  0.6094
   49CHL1   H4B 3559   5.859   3.523   6.505  2.4652  0.7203  1.2793
   49CHL1    C5 3560   5.832   3.553   6.723 -0.5183 -0.1718 -0.1409
   49CHL1    C6 3561   5.927   3.471   6.762  0.0537 -0.0103 -0.6223
   49CHL1    H6 3562   5.976   3.415   6.681  1.8595  1.0165 -0.3022
   49CHL1    C7 3563   5.981   3.453   6.902 -0.1534 -0.4634  0.6574
   49CHL1   H7A 3564   5.999   3.345   6.921 -0.8039 -1.2172 -2.4801
   49CHL1   H7B 3565   6.087   3.486   6.913 -0.2965 -0.1809  1.2404
   49CHL1    C8 3566   5.893   3.523   7.008 -0.8491 -0.0776  0.1003
   49CHL1    H8 3567   5.816   3.445   7.026  0.0877 -0.9388  0.4934
   49CHL1   C14 3568   5.970   3.540   7.139  0.3773 -0.6935  0.7772
   49CHL1   H14 3569   6.040   3.618   7.104 -1.9025  0.0572 -2.6416
   49CHL1   C15 3570   6.039   3.414   7.190 -0.1851 -0.0733  0.0280
   49CHL1  H15A 3571   5.967   3.330   7.180  0.3264 -0.7374  1.6096
   49CHL1  H15B 3572   6.134   3.394   7.135 -0.7083  1.2652 -1.4425
   49CHL1   C16 3573   6.065   3.449   7.340 -0.3469 -0.1323  0.3912
   49CHL1  H16A 3574   6.017   3.362   7.390  0.3372 -1.4232 -1.1164
   49CHL1  H16B 3575   6.174   3.451   7.364  0.0639 -1.6874 -1.0994
   49CHL1   C17 3576   5.997   3.587   7.372 -0.1565  0.0558 -0.0405
   49CHL1   H17 3577   6.074   3.661   7.343  0.0279 -0.3809 -0.6948
   49CHL1   C13 3578   5.892   3.597   7.258 -0.3959  0.4314 -0.5028
   49CHL1   C18 3579   5.765   3.514   7.295 -0.5356 -0.4833  0.1342
   49CHL1  H18A 3580   5.805   3.414   7.322  0.3768 -0.1057  0.1930
   49CHL1  H18B 3581   5.707   3.568   7.373 -1.2140  0.0425 -0.7231
   49CHL1  H18C 3582   5.696   3.490   7.211 -0.3836 -0.9342  0.1352
   49CHL1   C12 3583   5.855   3.743   7.213 -0.5932 -0.2894  0.5052
   49CHL1  H12A 3584   5.800   3.811   7.282  0.9743  0.2734  1.2491
   49CHL1  H12B 3585   5.952   3.791   7.189 -0.6081  0.7277  2.2895
   49CHL1   C11 3586   5.775   3.736   7.080  0.1145  0.7521 -0.2523
   49CHL1  H11A 3587   5.679   3.681   7.097  0.7766 -0.2905  0.2264
   49CHL1  H11B 3588   5.753   3.842   7.058  0.1304  1.0216  0.9510
   49CHL1    C9 3589   5.842   3.663   6.966 -0.2790 -0.1088 -0.1987
   49CHL1    H9 3590   5.936   3.719   6.946  0.1188 -0.0808  1.5639
   49CHL1   C10 3591   5.758   3.648   6.830 -0.7666  0.4102  0.3884
   49CHL1   C19 3592   5.619   3.591   6.853  0.0446 -0.7575 -0.0092
   49CHL1  H19A 3593   5.621   3.485   6.888 -0.0169 -0.3267  1.3546
   49CHL1  H19B 3594   5.566   3.662   6.920  1.9005  0.0079  0.6835
   49CHL1  H19C 3595   5.558   3.576   6.760  0.5897 -0.2611 -0.4522
   49CHL1    C1 3596   5.748   3.794   6.779 -0.2845  0.2372  0.1625
   49CHL1   H1A 3597   5.681   3.849   6.848  1.4508  0.2440  1.9359
   49CHL1   H1B 3598   5.842   3.852   6.787  1.1547 -2.0552  1.1097
   49CHL1    C2 3599   5.698   3.801   6.632 -0.0647  0.5544 -0.0984
   49CHL1   H2A 3600   5.699   3.909   6.604  0.3579  1.2051  2.2431
   49CHL1   H2B 3601   5.589   3.781   6.631  0.0427 -0.1686 -2.0043
   49CHL1   C20 3602   5.950   3.601   7.518  0.0581  0.8884 -0.4449
   49CHL1   H20 3603   5.869   3.533   7.550  0.3833 -0.1774 -1.7908
   49CHL1   C21 3604   5.890   3.741   7.541 -0.2730 -0.6018 -0.3881
   49CHL1  H21A 3605   5.975   3.809   7.518  0.5608 -1.8206 -0.9884
   49CHL1  H21B 3606   5.861   3.751   7.648  0.7477  0.4934 -0.1902
   49CHL1  H21C 3607   5.811   3.777   7.472 -0.3903  0.2409  0.1631
   49CHL1   C22 3608   6.073   3.585   7.611  0.1418  0.2647 -0.0945
   49CHL1  H22A 3609   6.114   3.483   7.599  0.9199  0.1819  2.5335
   49CHL1  H22B 3610   6.156   3.653   7.582 -0.0589  0.0929 -1.0791
   49CHL1   C23 3611   6.043   3.598   7.759 -0.4087  0.1439 -0.3604
   49CHL1  H23A 3612   6.149   3.594   7.793  0.2867 -2.9135 -2.3977
   49CHL1  H23B 3613   5.995   3.694   7.787 -0.7940 -0.4808  1.2401
   49CHL1   C24 3614   5.982   3.481   7.829  0.2158  0.7153  0.1324
   49CHL1  H24A 3615   5.872   3.498   7.829  0.0974  0.0853 -1.2842
   49CHL1  H24B 3616   6.012   3.387   7.779 -0.4207  0.0505  0.9745
   49CHL1   C25 3617   6.034   3.444   7.971  0.2155  0.0828  0.1074
   49CHL1   H25 3618   6.141   3.415   7.965 -0.0240 -0.5504 -1.5087
   49CHL1   C26 3619   6.009   3.565   8.070 -0.4718  0.5360 -0.0038
   49CHL1  H26A 3620   5.902   3.593   8.072 -0.5529  0.2083  0.3090
   49CHL1  H26B 3621   6.042   3.538   8.173  0.1674 -0.3723 -0.4316
   49CHL1  H26C 3622   6.067   3.653   8.033  1.0819 -1.2839 -2.1828
   49CHL1   C27 3623   5.965   3.318   8.026 -0.5174  0.4367  0.0767
   49CHL1  H27A 3624   5.998   3.234   7.962 -0.6205  0.3473  0.1407
   49CHL1  H27B 3625   5.985   3.299   8.134 -1.9529 -3.9719 -0.2310
   49CHL1  H27C 3626   5.855   3.324   8.006 -0.3266  0.0432 -1.1400
   50CHL1    C3 3627   6.362   4.538   6.750 -0.2797  0.0380 -0.0956
   50CHL1    H3 3628   6.259   4.508   6.719 -1.3311  2.9672  0.2446
   50CHL1    O3 3629   6.421   4.585   6.635 -0.0608 -0.2279 -0.3224
   50CHL1   H3' 3630   6.482   4.649   6.674 -1.5924  0.8634  0.3781
   50CHL1    C4 3631   6.338   4.656   6.841 -0.2931 -0.3131 -0.3253
   50CHL1   H4A 3632   6.429   4.718   6.847 -0.2898 -0.4089  0.6715
   50CHL1   H4B 3633   6.263   4.728   6.803  0.5183  1.0596  0.6216
   50CHL1    C5 3634   6.310   4.617   6.983  0.1568  0.2566  0.0464
   50CHL1    C6 3635   6.199   4.645   7.049  0.3412 -0.3038 -0.2656
   50CHL1    H6 3636   6.136   4.718   6.996  1.0036  0.0764 -0.5303
   50CHL1    C7 3637   6.177   4.621   7.197 -0.2087 -0.1560 -1.0772
   50CHL1   H7A 3638   6.146   4.715   7.247  2.7926  1.0870 -1.3043
   50CHL1   H7B 3639   6.100   4.543   7.214 -0.6212 -0.0170 -2.1985
   50CHL1    C8 3640   6.311   4.581   7.270  0.5249  0.6959 -0.0302
   50CHL1    H8 3641   6.377   4.670   7.279 -0.2281  1.1848  0.6760
   50CHL1   C14 3642   6.282   4.524   7.412  0.2812  0.6484 -0.2047
   50CHL1   H14 3643   6.235   4.424   7.404 -0.1931  0.7907  0.6547
   50CHL1   C15 3644   6.190   4.624   7.498  0.1387 -0.2043 -0.1286
   50CHL1  H15A 3645   6.220   4.730   7.491 -2.4653  0.6744  0.7010
   50CHL1  H15B 3646   6.086   4.606   7.463  0.9767  1.0653 -3.6402
   50CHL1   C16 3647   6.218   4.570   7.646 -0.9921  0.0325 -0.4946
   50CHL1  H16A 3648   6.272   4.649   7.703 -0.8118 -0.8215  0.5622
   50CHL1  H16B 3649   6.126   4.535   7.697 -1.5420  1.0000 -0.8038
   50CHL1   C17 3650   6.327   4.451   7.633  0.0209  0.0948 -0.4326
   50CHL1   H17 3651   6.259   4.368   7.604  1.4938 -0.4611 -2.5813
   50CHL1   C13 3652   6.400   4.486   7.501  0.3125  0.0873 -0.3956
   50CHL1   C18 3653   6.499   4.604   7.518 -0.5721  0.1883  0.1878
   50CHL1  H18A 3654   6.443   4.694   7.551 -1.0112  0.7271 -1.8876
   50CHL1  H18B 3655   6.580   4.576   7.589  0.4999  0.4748 -0.9044
   50CHL1  H18C 3656   6.543   4.626   7.418 -2.1497 -1.1612 -0.8500
   50CHL1   C12 3657   6.469   4.367   7.414  0.1670  0.7418 -0.4945
   50CHL1  H12A 3658   6.565   4.346   7.466  0.7569 -0.8173 -2.1025
   50CHL1  H12B 3659   6.408   4.274   7.407  1.8910 -0.5319  0.5049
   50CHL1   C11 3660   6.503   4.415   7.271  0.1211 -0.2359 -0.3429
   50CHL1  H11A 3661   6.578   4.496   7.283 -0.2035  0.4842 -2.7606
   50CHL1  H11B 3662   6.547   4.335   7.207 -0.4824 -0.3839 -0.5881
   50CHL1    C9 3663   6.386   4.477   7.199 -0.5408 -0.0519  0.4269
   50CHL1    H9 3664   6.319   4.389   7.184  1.6015 -1.6632 -0.0355
   50CHL1   C10 3665   6.416   4.524   7.047  0.5644  0.1148  0.0846
   50CHL1   C19 3666   6.555   4.593   7.054 -1.0550  0.1889 -0.2927
   50CHL1  H19A 3667   6.587   4.639   6.959  1.4151  1.8451  1.2191
   50CHL1  H19B 3668   6.562   4.686   7.114  1.3324 -0.6177  0.8253
   50CHL1  H19C 3669   6.633   4.520   7.085 -2.1956 -1.3973 -1.0201
   50CHL1    C1 3670   6.411   4.393   6.960 -0.7914  0.0877 -0.2884
   50CHL1   H1A 3671   6.485   4.313   6.982  1.2396  1.4858 -1.6173
   50CHL1   H1B 3672   6.308   4.353   6.968 -1.2557  0.9590 -1.5629
   50CHL1    C2 3673   6.441   4.425   6.815  0.1799 -0.4543 -0.5142
   50CHL1   H2A 3674   6.431   4.334   6.752 -0.1504 -2.2593  1.9677
   50CHL1   H2B 3675   6.547   4.457   6.808  0.7661 -1.5664  1.9787
   50CHL1   C20 3676   6.403   4.423   7.765  0.2113  0.0426  0.3930
   50CHL1   H20 3677   6.433   4.517   7.815  0.1020 -0.3919  1.2891
   50CHL1   C21 3678   6.532   4.342   7.728 -0.3509 -0.1072  0.5979
   50CHL1  H21A 3679   6.611   4.405   7.681  1.5036 -2.5555  0.2057
   50CHL1  H21B 3680   6.506   4.257   7.662  0.2189  1.0837 -1.2324
   50CHL1  H21C 3681   6.572   4.302   7.824 -0.0343  2.1385  1.4462
   50CHL1   C22 3682   6.313   4.359   7.872  0.2681  0.2846 -0.0490
   50CHL1  H22A 3683   6.224   4.422   7.893  0.6117  0.5602  0.6134
   50CHL1  H22B 3684   6.272   4.262   7.835 -2.7126  1.6944 -0.7155
   50CHL1   C23 3685   6.383   4.353   8.011  1.3158 -0.3375 -0.8207
   50CHL1  H23A 3686   6.482   4.303   8.008  0.9629 -1.1546  0.3319
   50CHL1  H23B 3687   6.399   4.460   8.036 -0.2854  0.3560 -2.5401
   50CHL1   C24 3688   6.293   4.284   8.120 -0.3712 -0.0332 -0.5845
   50CHL1  H24A 3689   6.263   4.181   8.092  2.3585 -0.8673 -0.6995
   50CHL1  H24B 3690   6.348   4.275   8.217 -1.9119  0.1503  0.3415
   50CHL1   C25 3691   6.179   4.380   8.160 -0.1827 -0.3506  0.3097
   50CHL1   H25 3692   6.122   4.411   8.069  0.1131 -1.0651 -0.1288
   50CHL1   C26 3693   6.084   4.306   8.252 -0.4847  0.8081  0.1309
   50CHL1  H26A 3694   6.000   4.375   8.274  0.0289  1.7560 -0.7516
   50CHL1  H26B 3695   6.047   4.217   8.197  1.1234  1.1893 -1.6878
   50CHL1  H26C 3696   6.138   4.275   8.344  0.9246 -4.1331 -2.0359
   50CHL1   C27 3697   6.215   4.511   8.222 -0.3012  0.2973  0.6235
   50CHL1  H27A 3698   6.272   4.488   8.314  1.7142  2.4154 -0.0078
   50CHL1  H27B 3699   6.271   4.576   8.151 -1.7340 -0.8513 -1.7129
   50CHL1  H27C 3700   6.123   4.574   8.230  0.3488  1.3726 -0.1094
   51CHL1    C3 3701   5.703   1.970   6.828  0.0717  0.1055 -0.1002
   51CHL1    H3 3702   5.754   2.069   6.827 -1.3632  0.9090  1.8610
   51CHL1    O3 3703   5.697   1.912   6.700  0.6323 -0.7370  0.3896
   51CHL1   H3' 3704   5.638   1.967   6.648  1.4259 -2.0940 -2.1096
   51CHL1    C4 3705   5.769   1.864   6.921 -0.4760  0.3180 -0.8018
   51CHL1   H4A 3706   5.717   1.766   6.915  0.1921 -0.3019  2.0830
   51CHL1   H4B 3707   5.877   1.857   6.899 -0.1952 -0.5620  0.7712
   51CHL1    C5 3708   5.752   1.888   7.072  0.0353 -0.9837 -0.0719
   51CHL1    C6 3709   5.852   1.870   7.157 -0.0395  0.4567 -0.0800
   51CHL1    H6 3710   5.947   1.829   7.119 -0.4580  0.0205 -0.6870
   51CHL1    C7 3711   5.839   1.899   7.304 -0.3037 -0.2372  0.2064
   51CHL1   H7A 3712   5.918   1.842   7.358 -1.3661 -0.0675  2.0203
   51CHL1   H7B 3713   5.874   2.002   7.324  1.6924 -1.0353  1.1345
   51CHL1    C8 3714   5.701   1.890   7.367 -0.4046  0.0873  0.4466
   51CHL1    H8 3715   5.669   1.784   7.369  0.8895 -0.3131  1.4614
   51CHL1   C14 3716   5.699   1.952   7.505  0.2481  0.0534  0.1408
   51CHL1   H14 3717   5.729   2.058   7.489 -1.8332  0.5427 -0.8007
   51CHL1   C15 3718   5.794   1.903   7.611  0.4130 -0.0158 -0.4374
   51CHL1  H15A 3719   5.809   1.794   7.591 -1.6175 -0.5179  0.5271
   51CHL1  H15B 3720   5.886   1.965   7.622 -0.0755  0.6974 -0.3374
   51CHL1   C16 3721   5.721   1.926   7.745  0.7239 -0.0156 -0.2229
   51CHL1  H16A 3722   5.700   1.832   7.801 -1.5033  1.4791  1.6209
   51CHL1  H16B 3723   5.776   1.989   7.817 -0.4905 -1.2137  1.8869
   51CHL1   C17 3724   5.587   1.996   7.714  0.3469  0.3230 -0.0552
   51CHL1   H17 3725   5.608   2.105   7.720  1.4561  0.1166  0.1249
   51CHL1   C13 3726   5.552   1.951   7.566 -0.5192 -0.2092 -0.6130
   51CHL1   C18 3727   5.498   1.810   7.575 -0.1113  0.5471 -0.7753
   51CHL1  H18A 3728   5.570   1.739   7.623  0.9971  2.3571  0.4004
   51CHL1  H18B 3729   5.408   1.793   7.637  1.0411 -2.9911  0.1780
   51CHL1  H18C 3730   5.475   1.773   7.473  0.5884  2.0317 -1.4952
   51CHL1   C12 3731   5.451   2.032   7.476  0.4693 -0.3674 -0.0102
   51CHL1  H12A 3732   5.348   2.002   7.505  0.8922 -1.0405  0.8447
   51CHL1  H12B 3733   5.462   2.141   7.493 -1.6451  0.1385 -1.4998
   51CHL1   C11 3734   5.462   1.987   7.329 -0.3313 -0.4322 -0.8550
   51CHL1  H11A 3735   5.406   1.891   7.339 -1.2950  0.2275  0.3991
   51CHL1  H11B 3736   5.393   2.050   7.269 -0.6688 -1.7116 -1.8549
   51CHL1    C9 3737   5.608   1.973   7.277 -1.1507 -0.0889  0.3160
   51CHL1    H9 3738   5.659   2.072   7.279  4.1325 -2.4548  3.1748
   51CHL1   C10 3739   5.609   1.926   7.124 -0.8590 -0.4767 -0.0807
   51CHL1   C19 3740   5.532   1.788   7.111 -0.0479  0.1599 -0.2145
   51CHL1  H19A 3741   5.425   1.803   7.139  0.3343  0.4991  1.1412
   51CHL1  H19B 3742   5.536   1.745   7.009  1.6181  0.6861 -0.3865
   51CHL1  H19C 3743   5.577   1.708   7.174  0.4993 -1.9441 -3.0675
   51CHL1    C1 3744   5.548   2.032   7.037 -0.1597 -0.3035  0.6426
   51CHL1   H1A 3745   5.447   2.060   7.072 -0.3798  0.9092 -0.8759
   51CHL1   H1B 3746   5.608   2.121   7.064 -0.9640  0.3718  0.2244
   51CHL1    C2 3747   5.561   2.004   6.880 -0.2886  0.3297 -0.5829
   51CHL1   H2A 3748   5.507   2.075   6.814  2.1437  0.0497 -3.0713
   51CHL1   H2B 3749   5.502   1.911   6.864  0.6155 -0.3990  0.1722
   51CHL1   C20 3750   5.479   1.971   7.822  0.9046  0.2479  0.0488
   51CHL1   H20 3751   5.452   1.864   7.829  1.3872  0.1086 -0.2194
   51CHL1   C21 3752   5.360   2.062   7.790  0.5491 -0.4261 -0.4615
   51CHL1  H21A 3753   5.302   2.072   7.884  1.5474 -0.1411  0.1326
   51CHL1  H21B 3754   5.302   2.023   7.703  1.7658  1.1779 -2.0863
   51CHL1  H21C 3755   5.403   2.160   7.759  0.8859 -0.3087  0.3622
   51CHL1   C22 3756   5.526   1.994   7.964  0.4214 -0.1203  0.1108
   51CHL1  H22A 3757   5.438   1.976   8.028  0.8015  1.3719  1.1079
   51CHL1  H22B 3758   5.598   1.921   8.006  0.3935  0.8358  1.8951
   51CHL1   C23 3759   5.573   2.141   7.987  0.7141 -0.1610 -0.7865
   51CHL1  H23A 3760   5.651   2.165   7.911  0.1669  3.0194 -0.4999
   51CHL1  H23B 3761   5.482   2.200   7.965  1.1838  0.0166 -2.4005
   51CHL1   C24 3762   5.628   2.168   8.129  0.1552 -0.1497  0.0865
   51CHL1  H24A 3763   5.560   2.132   8.209 -0.1622 -0.5371 -0.3504
   51CHL1  H24B 3764   5.733   2.132   8.144  0.5972  1.7322  2.0507
   51CHL1   C25 3765   5.633   2.321   8.156  0.7836  0.3725 -1.1782
   51CHL1   H25 3766   5.528   2.354   8.170  0.0221 -1.9931 -0.7789
   51CHL1   C26 3767   5.708   2.359   8.285 -0.4256  0.3224  0.1656
   51CHL1  H26A 3768   5.662   2.452   8.324 -1.2716 -0.7767  1.8933
   51CHL1  H26B 3769   5.703   2.280   8.362 -0.7682  0.0400 -0.1373
   51CHL1  H26C 3770   5.811   2.371   8.246 -1.2647 -1.3497 -2.9400
   51CHL1   C27 3771   5.705   2.391   8.035  0.5425  0.3869  0.3855
   51CHL1  H27A 3772   5.763   2.480   8.066 -0.6837  1.2281  0.3407
   51CHL1  H27B 3773   5.783   2.322   7.998  0.9301  0.7280  0.5587
   51CHL1  H27C 3774   5.634   2.428   7.958  1.3714  0.5370 -0.3134
   52CHL1    C3 3775   1.256   3.479   6.999  0.5753 -0.4053 -0.6592
   52CHL1    H3 3776   1.146   3.495   7.004  0.7536  1.3497 -1.6450
   52CHL1    O3 3777   1.289   3.544   6.875  0.5999  0.1848 -0.1697
   52CHL1   H3' 3778   1.208   3.537   6.825  0.1583 -0.2396  0.5836
   52CHL1    C4 3779   1.323   3.556   7.116 -0.2631 -0.4861  0.8232
   52CHL1   H4A 3780   1.426   3.567   7.078 -0.2146 -0.2210  1.0265
   52CHL1   H4B 3781   1.272   3.655   7.116  1.0843  0.2545 -0.8663
   52CHL1    C5 3782   1.320   3.494   7.245  0.0933  0.0899 -0.6590
   52CHL1    C6 3783   1.277   3.562   7.357  0.6574  0.6468 -0.2800
   52CHL1    H6 3784   1.254   3.670   7.350  2.5773  0.9995 -2.0344
   52CHL1    C7 3785   1.266   3.500   7.495  0.1219  0.0526  0.1537
   52CHL1   H7A 3786   1.309   3.574   7.566 -1.6913  0.7902  0.5341
   52CHL1   H7B 3787   1.159   3.482   7.517 -0.1617 -0.2114 -1.3061
   52CHL1    C8 3788   1.349   3.371   7.513  0.4597 -0.4436 -0.1177
   52CHL1    H8 3789   1.454   3.406   7.526  0.4397 -0.4763  0.1370
   52CHL1   C14 3790   1.315   3.300   7.647  0.0178 -0.2692  0.5959
   52CHL1   H14 3791   1.213   3.261   7.625  0.6378 -1.2480 -0.6574
   52CHL1   C15 3792   1.301   3.367   7.783  0.2409 -0.1380 -0.8454
   52CHL1  H15A 3793   1.386   3.426   7.822 -0.3033 -1.5260  2.8290
   52CHL1  H15B 3794   1.204   3.416   7.805  0.2041  0.7388 -2.7561
   52CHL1   C16 3795   1.297   3.248   7.885  0.1670 -0.2486  0.2119
   52CHL1  H16A 3796   1.370   3.266   7.968 -1.3433  2.5445  1.0599
   52CHL1  H16B 3797   1.195   3.234   7.927 -1.2038  2.2462 -1.9903
   52CHL1   C17 3798   1.333   3.121   7.799  0.2542 -0.8488 -0.3794
   52CHL1   H17 3799   1.238   3.077   7.762  0.1271 -0.3052 -0.7023
   52CHL1   C13 3800   1.400   3.175   7.674 -0.5829  0.0913  0.1865
   52CHL1   C18 3801   1.550   3.205   7.689 -0.1627  0.7690 -0.5435
   52CHL1  H18A 3802   1.595   3.259   7.603  0.6296 -1.8507 -1.8606
   52CHL1  H18B 3803   1.572   3.259   7.784 -2.3010  0.7893 -0.0159
   52CHL1  H18C 3804   1.597   3.105   7.701  0.0010  0.7543 -1.2818
   52CHL1   C12 3805   1.386   3.071   7.550 -0.0694 -0.5424  0.3339
   52CHL1  H12A 3806   1.449   2.983   7.577 -3.0117 -2.3317  1.8063
   52CHL1  H12B 3807   1.283   3.033   7.559 -0.6220  0.8952  0.4248
   52CHL1   C11 3808   1.406   3.138   7.412 -0.4077  0.0152  0.0689
   52CHL1  H11A 3809   1.516   3.151   7.418 -0.1133 -2.5828  2.7522
   52CHL1  H11B 3810   1.374   3.071   7.330  1.4688  1.8241 -2.2969
   52CHL1    C9 3811   1.337   3.276   7.401  0.1404 -0.2891 -0.3149
   52CHL1    H9 3812   1.227   3.261   7.403 -0.0979  1.4138  1.1128
   52CHL1   C10 3813   1.366   3.344   7.255  0.2902 -0.6336 -0.5184
   52CHL1   C19 3814   1.517   3.340   7.230 -0.4168 -0.1986 -0.3514
   52CHL1  H19A 3815   1.570   3.400   7.307 -0.0681 -1.8781  0.7590
   52CHL1  H19B 3816   1.555   3.236   7.231  2.5742  0.7869 -0.4229
   52CHL1  H19C 3817   1.550   3.380   7.131  1.7422 -1.0631 -0.0373
   52CHL1    C1 3818   1.291   3.274   7.141  0.3893  0.3696  0.7364
   52CHL1   H1A 3819   1.325   3.168   7.136 -0.0577  0.2350  0.3612
   52CHL1   H1B 3820   1.186   3.260   7.175 -0.6394  1.5412 -1.7032
   52CHL1    C2 3821   1.297   3.333   6.996  0.2552 -0.5581 -0.8210
   52CHL1   H2A 3822   1.235   3.276   6.924  1.2761 -0.7627 -1.5659
   52CHL1   H2B 3823   1.401   3.330   6.955  0.6469  0.1127  0.0809
   52CHL1   C20 3824   1.400   3.005   7.874 -0.2257  0.9549 -0.1699
   52CHL1   H20 3825   1.445   2.946   7.791 -1.2621  0.3200 -0.2997
   52CHL1   C21 3826   1.284   2.916   7.939 -0.9352  0.1991  0.1251
   52CHL1  H21A 3827   1.184   2.907   7.890 -1.6863 -2.4790  1.9229
   52CHL1  H21B 3828   1.259   2.966   8.035  1.1098  0.8464  0.3672
   52CHL1  H21C 3829   1.326   2.817   7.963 -1.1581 -0.1267 -0.7820
   52CHL1   C22 3830   1.509   3.041   7.978  0.3698  0.3003  0.2298
   52CHL1  H22A 3831   1.570   3.129   7.949  0.8750  1.0042  3.1243
   52CHL1  H22B 3832   1.457   3.068   8.072 -0.9112  0.2808 -0.4585
   52CHL1   C23 3833   1.603   2.920   7.993 -0.4406  0.2657  0.5751
   52CHL1  H23A 3834   1.561   2.837   8.054  0.8222 -0.0727  1.0193
   52CHL1  H23B 3835   1.628   2.878   7.893 -0.5956 -1.7894  1.3496
   52CHL1   C24 3836   1.736   2.963   8.057 -0.0894 -0.5194 -0.0875
   52CHL1  H24A 3837   1.775   3.041   7.988 -1.5378  1.1813  0.9526
   52CHL1  H24B 3838   1.716   3.019   8.151  1.2367  2.5412 -1.4781
   52CHL1   C25 3839   1.853   2.863   8.092 -0.1534  0.2347 -0.2448
   52CHL1   H25 3840   1.872   2.804   7.999 -1.6049  0.3589 -0.6454
   52CHL1   C26 3841   1.990   2.937   8.119  0.0611 -0.1086 -0.0421
   52CHL1  H26A 3842   2.042   2.974   8.028  0.5782  1.6280  0.9080
   52CHL1  H26B 3843   1.974   3.028   8.180 -1.8373 -0.5679  0.2047
   52CHL1  H26C 3844   2.060   2.867   8.168  1.5855  1.2968 -0.1042
   52CHL1   C27 3845   1.804   2.790   8.215  0.3878  0.0722  0.4147
   52CHL1  H27A 3846   1.853   2.696   8.247 -0.9372 -1.1904 -1.0954
   52CHL1  H27B 3847   1.803   2.860   8.302 -1.0248  0.6340 -0.0262
   52CHL1  H27C 3848   1.696   2.775   8.194  0.3087  0.9886  0.1428
   53CHL1    C3 3849   3.952   0.010   6.955  0.4822  0.2121  0.5333
   53CHL1    H3 3850   4.058   0.043   6.963  0.4992  0.0994  0.7686
   53CHL1    O3 3851   3.911  -0.033   6.820  0.1465  0.1847 -0.0230
   53CHL1   H3' 3852   3.924   0.045   6.766 -0.4805 -0.2038 -0.7703
   53CHL1    C4 3853   3.938  -0.113   7.047  0.8742  0.8557  0.2874
   53CHL1   H4A 3854   3.845  -0.171   7.027  1.8874 -0.7513  0.0588
   53CHL1   H4B 3855   4.018  -0.185   7.019  0.2350 -0.6459  2.0746
   53CHL1    C5 3856   3.941  -0.076   7.190 -0.0579  0.0204 -0.6357
   53CHL1    C6 3857   4.029  -0.132   7.276  1.1274 -0.9375  0.3421
   53CHL1    H6 3858   4.093  -0.214   7.241  1.2186 -1.0542  0.7743
   53CHL1    C7 3859   4.021  -0.105   7.425 -0.0492  0.3228 -0.4631
   53CHL1   H7A 3860   4.029  -0.201   7.481  1.1392  1.4868  1.4704
   53CHL1   H7B 3861   4.109  -0.051   7.465  0.2384  0.2487 -0.9796
   53CHL1    C8 3862   3.883  -0.050   7.469 -0.5630  0.3701  0.0193
   53CHL1    H8 3863   3.813  -0.136   7.466 -2.7286  1.9498  1.8195
   53CHL1   C14 3864   3.896  -0.009   7.611 -0.0205 -0.5265 -0.4648
   53CHL1   H14 3865   3.980   0.064   7.613 -1.4049  1.2767 -2.6019
   53CHL1   C15 3866   3.934  -0.111   7.722  0.0429 -0.2277  0.4495
   53CHL1  H15A 3867   3.890  -0.210   7.693 -3.0251  0.5747  1.9213
   53CHL1  H15B 3868   4.043  -0.122   7.737  0.3282 -0.3118 -1.4493
   53CHL1   C16 3869   3.873  -0.061   7.850 -0.6952  0.4226 -0.5712
   53CHL1  H16A 3870   3.811  -0.143   7.893 -0.9368  0.9725  0.1563
   53CHL1  H16B 3871   3.941  -0.026   7.931 -0.7406  1.1752 -0.8517
   53CHL1   C17 3872   3.799   0.071   7.815  0.1824 -0.3258  0.0144
   53CHL1   H17 3873   3.870   0.156   7.816 -0.0224 -0.1216 -1.1436
   53CHL1   C13 3874   3.771   0.053   7.665 -0.7971 -0.4311 -1.1988
   53CHL1   C18 3875   3.656  -0.049   7.655  0.4003 -0.5228  0.2012
   53CHL1  H18A 3876   3.566   0.005   7.692  1.9787  2.2796  0.2232
   53CHL1  H18B 3877   3.638  -0.066   7.547  1.2804  1.5885 -0.3210
   53CHL1  H18C 3878   3.676  -0.148   7.701 -1.7727 -0.1427  2.1694
   53CHL1   C12 3879   3.750   0.183   7.580  0.9328 -0.0334 -0.4960
   53CHL1  H12A 3880   3.664   0.239   7.622  1.0450 -0.4912  0.3818
   53CHL1  H12B 3881   3.831   0.255   7.604 -0.5127  1.8704 -1.1378
   53CHL1   C11 3882   3.741   0.169   7.431 -0.6156  0.2230  0.8682
   53CHL1  H11A 3883   3.645   0.113   7.421  0.2303 -1.4649  1.6621
   53CHL1  H11B 3884   3.735   0.257   7.365 -2.1689 -1.2971 -1.1514
   53CHL1    C9 3885   3.849   0.075   7.378  0.0927  0.3264  0.4849
   53CHL1    H9 3886   3.936   0.145   7.377 -0.1821  0.6805 -1.4815
   53CHL1   C10 3887   3.837   0.028   7.235 -0.8152 -0.5380  0.2437
   53CHL1   C19 3888   3.691  -0.018   7.214  0.0478  0.3844  0.1153
   53CHL1  H19A 3889   3.674  -0.072   7.118 -2.0259  1.0409  0.0612
   53CHL1  H19B 3890   3.667  -0.095   7.290 -0.9550 -1.5810 -2.0609
   53CHL1  H19C 3891   3.625   0.071   7.213 -0.7066 -0.1678  0.3538
   53CHL1    C1 3892   3.858   0.156   7.144 -0.3488 -0.0409 -0.0281
   53CHL1   H1A 3893   3.776   0.230   7.158  0.8401  1.3443 -0.1570
   53CHL1   H1B 3894   3.959   0.194   7.166 -0.4137 -1.1123  2.4057
   53CHL1    C2 3895   3.863   0.125   6.987 -0.1479  0.1241 -0.9420
   53CHL1   H2A 3896   3.904   0.214   6.934 -1.2780  1.7958  0.8622
   53CHL1   H2B 3897   3.757   0.115   6.957 -0.0439 -1.7825 -0.7759
   53CHL1   C20 3898   3.680   0.097   7.918  0.5409  0.1182  0.8175
   53CHL1   H20 3899   3.606   0.014   7.917 -1.5041  1.8276 -1.0629
   53CHL1   C21 3900   3.604   0.226   7.887  0.3429  0.1237  0.2656
   53CHL1  H21A 3901   3.663   0.320   7.882  0.5367 -0.0187 -3.3823
   53CHL1  H21B 3902   3.531   0.240   7.969  0.3795 -4.4694  1.3070
   53CHL1  H21C 3903   3.545   0.231   7.793  2.0109  0.4523 -0.8170
   53CHL1   C22 3904   3.732   0.109   8.059 -0.6157  0.4195  0.2952
   53CHL1  H22A 3905   3.833   0.156   8.061 -0.8389  1.0972 -1.9893
   53CHL1  H22B 3906   3.664   0.185   8.102 -1.3547  0.5737 -1.0828
   53CHL1   C23 3907   3.744  -0.019   8.135  0.4378 -0.0827 -0.1638
   53CHL1  H23A 3908   3.640  -0.058   8.132  0.2021 -0.0634  3.2099
   53CHL1  H23B 3909   3.817  -0.094   8.098 -0.4428 -0.1570 -1.8078
   53CHL1   C24 3910   3.769   0.008   8.285  0.1479  0.4876  0.3853
   53CHL1  H24A 3911   3.865   0.061   8.304  0.5843  0.3790 -1.3485
   53CHL1  H24B 3912   3.693   0.081   8.319  1.5106  2.5096 -0.6615
   53CHL1   C25 3913   3.778  -0.126   8.373  0.1648 -0.2232  0.5923
   53CHL1   H25 3914   3.709  -0.188   8.312  2.3329  0.8694 -3.3130
   53CHL1   C26 3915   3.919  -0.181   8.356 -0.3781  0.3656 -0.0468
   53CHL1  H26A 3916   3.955  -0.166   8.252 -1.4121 -2.6432 -0.9490
   53CHL1  H26B 3917   3.976  -0.121   8.431 -1.1746  0.2927  0.6375
   53CHL1  H26C 3918   3.940  -0.286   8.385  0.0930  0.7791  1.2012
   53CHL1   C27 3919   3.749  -0.090   8.516  0.5898 -0.6319  0.0833
   53CHL1  H27A 3920   3.824  -0.024   8.563 -1.9354  1.3138  1.6206
   53CHL1  H27B 3921   3.653  -0.034   8.519  0.2849 -0.9483 -1.9774
   53CHL1  H27C 3922   3.733  -0.179   8.581 -0.4118  0.6892  1.7277
   54CHL1    C3 3923   3.142   2.450   7.006 -0.1773 -1.5333  0.3404
   54CHL1    H3 3924   3.068   2.521   7.047  1.9574  1.5565 -0.7698
   54CHL1    O3 3925   3.151   2.466   6.865 -0.1991 -0.1631  0.1653
   54CHL1   H3' 3926   3.246   2.456   6.853  0.5485  2.3107  3.0009
   54CHL1    C4 3927   3.272   2.507   7.072 -0.1789 -0.3156  0.0323
   54CHL1   H4A 3928   3.360   2.458   7.024 -1.1533 -1.3679 -0.7201
   54CHL1   H4B 3929   3.278   2.617   7.055 -1.0304 -0.1811  0.5784
   54CHL1    C5 3930   3.273   2.464   7.222 -0.3408  0.6075 -0.4539
   54CHL1    C6 3931   3.291   2.563   7.311 -0.0063  0.5356 -0.2354
   54CHL1    H6 3932   3.300   2.667   7.278  0.0593  0.0917 -1.6602
   54CHL1    C7 3933   3.308   2.539   7.462  0.7606  0.3214 -0.0977
   54CHL1   H7A 3934   3.398   2.591   7.499  1.2271  0.4216 -1.3235
   54CHL1   H7B 3935   3.215   2.569   7.515  0.7451 -1.7559  1.1755
   54CHL1    C8 3936   3.318   2.384   7.503  0.6206  0.0018 -0.4417
   54CHL1    H8 3937   3.421   2.345   7.484  0.9443  0.2458  0.7526
   54CHL1   C14 3938   3.292   2.375   7.655 -0.4188  0.3788 -0.3621
   54CHL1   H14 3939   3.183   2.397   7.664 -0.5505 -0.0360 -0.8843
   54CHL1   C15 3940   3.363   2.470   7.756 -0.2778 -0.1697 -0.5476
   54CHL1  H15A 3941   3.470   2.490   7.733  0.3284 -1.6429  0.7819
   54CHL1  H15B 3942   3.324   2.574   7.756  2.5010  1.1208  3.1773
   54CHL1   C16 3943   3.340   2.406   7.900  0.4401  0.8466  0.7513
   54CHL1  H16A 3944   3.438   2.384   7.948  1.2324  0.5739 -0.9327
   54CHL1  H16B 3945   3.277   2.465   7.970  0.1457 -0.5715  1.7437
   54CHL1   C17 3946   3.272   2.264   7.869 -0.4365 -0.2164  0.6264
   54CHL1   H17 3947   3.163   2.283   7.868 -0.1167  1.9623  1.6601
   54CHL1   C13 3948   3.302   2.235   7.711 -0.3819  0.3619 -0.2411
   54CHL1   C18 3949   3.447   2.190   7.700 -0.4211 -0.2300 -0.4116
   54CHL1  H18A 3950   3.454   2.094   7.755  2.1825  0.6567  0.9586
   54CHL1  H18B 3951   3.482   2.167   7.597  0.2544  1.1975 -0.5298
   54CHL1  H18C 3952   3.521   2.265   7.734 -0.4113  1.2412 -3.3567
   54CHL1   C12 3953   3.201   2.149   7.624  0.2536 -0.4011 -0.3068
   54CHL1  H12A 3954   3.208   2.045   7.662  1.7145  0.7463  3.0638
   54CHL1  H12B 3955   3.099   2.189   7.645  0.9174  0.8399  0.8031
   54CHL1   C11 3956   3.230   2.150   7.475 -0.2187  0.1899  0.4088
   54CHL1  H11A 3957   3.336   2.116   7.471  0.5618  2.3462  1.4182
   54CHL1  H11B 3958   3.170   2.077   7.417 -1.3758  0.8224  0.7821
   54CHL1    C9 3959   3.228   2.301   7.423 -0.5662 -0.3534 -0.3181
   54CHL1    H9 3960   3.128   2.350   7.436 -0.6081 -0.8538  1.3867
   54CHL1   C10 3961   3.246   2.312   7.271 -0.1042 -0.3159  0.0229
   54CHL1   C19 3962   3.367   2.223   7.220  0.4161 -0.0312  0.4864
   54CHL1  H19A 3963   3.379   2.236   7.111 -1.3640  0.3447  0.2888
   54CHL1  H19B 3964   3.460   2.260   7.269  0.1623  0.7230  0.4148
   54CHL1  H19C 3965   3.351   2.117   7.247 -1.6738  0.4323  1.2817
   54CHL1    C1 3966   3.119   2.286   7.198  0.1346  0.1617  0.6256
   54CHL1   H1A 3967   3.094   2.178   7.208  2.3127 -0.6033 -1.3748
   54CHL1   H1B 3968   3.027   2.324   7.249 -0.8787 -2.0109  0.5434
   54CHL1    C2 3969   3.106   2.306   7.040 -0.6619 -0.6430 -0.2137
   54CHL1   H2A 3970   3.010   2.267   7.002 -0.2653 -1.4936 -0.3847
   54CHL1   H2B 3971   3.183   2.234   7.004 -0.2571 -0.4257  0.1888
   54CHL1   C20 3972   3.316   2.166   7.982  0.1412 -0.6262 -0.1525
   54CHL1   H20 3973   3.426   2.150   7.973  0.2690  0.6253 -1.1491
   54CHL1   C21 3974   3.237   2.038   7.966  0.1443 -0.1389  0.2616
   54CHL1  H21A 3975   3.255   2.004   7.862 -0.7119  0.3189 -0.0450
   54CHL1  H21B 3976   3.129   2.062   7.978  1.0808  3.4595  3.5408
   54CHL1  H21C 3977   3.265   1.969   8.048 -3.3740 -2.8226 -0.5563
   54CHL1   C22 3978   3.293   2.227   8.120  0.2871  0.2742 -0.4492
   54CHL1  H22A 3979   3.313   2.145   8.192  3.1095  0.6305 -0.7115
   54CHL1  H22B 3980   3.363   2.313   8.133 -0.6253  1.3046 -1.9316
   54CHL1   C23 3981   3.147   2.279   8.150  0.7190  0.0445 -0.4822
   54CHL1  H23A 3982   3.106   2.339   8.066  2.8364  1.0640 -0.8583
   54CHL1  H23B 3983   3.083   2.189   8.146  0.9884 -0.1093 -1.9435
   54CHL1   C24 3984   3.136   2.351   8.287  0.7130 -0.0718 -0.3766
   54CHL1  H24A 3985   3.170   2.294   8.376  0.6991 -1.6413 -1.3289
   54CHL1  H24B 3986   3.209   2.435   8.283 -0.6861  1.1496 -2.6295
   54CHL1   C25 3987   2.997   2.420   8.312 -0.3070 -0.1286 -0.5821
   54CHL1   H25 3988   2.968   2.462   8.214  2.8503 -1.3748 -2.2017
   54CHL1   C26 3989   2.898   2.318   8.365 -0.2171 -0.2530 -0.1764
   54CHL1  H26A 3990   2.910   2.224   8.307 -1.2560 -1.9202  2.1468
   54CHL1  H26B 3991   2.897   2.304   8.475  0.3560 -1.0470 -0.2690
   54CHL1  H26C 3992   2.793   2.356   8.358 -0.0856  0.7028  2.1007
   54CHL1   C27 3993   3.002   2.537   8.415 -0.2531  0.5836 -0.4368
   54CHL1  H27A 3994   3.083   2.610   8.390  3.2418 -2.5466  0.7903
   54CHL1  H27B 3995   2.903   2.587   8.421 -0.9162 -0.6555 -0.8150
   54CHL1  H27C 3996   3.032   2.499   8.514 -1.1663  3.3939  1.0109
   55CHL1    C3 3997   3.985   4.495   6.957  0.5201 -0.1821  0.3866
   55CHL1    H3 3998   3.987   4.604   6.976  0.2476 -0.1665  0.3305
   55CHL1    O3 3999   3.951   4.466   6.824  0.0269  0.3853  0.0819
   55CHL1   H3' 4000   3.913   4.379   6.839  1.4283  0.1503  3.0181
   55CHL1    C4 4001   4.113   4.423   7.005 -0.1330 -0.3133  0.0842
   55CHL1   H4A 4002   4.088   4.316   6.988  1.3074 -1.0895  2.3463
   55CHL1   H4B 4003   4.187   4.458   6.930 -1.6882  0.9877 -0.9109
   55CHL1    C5 4004   4.144   4.443   7.146  0.4364 -0.3173 -1.1470
   55CHL1    C6 4005   4.266   4.485   7.186 -0.1195  0.1097  0.0011
   55CHL1    H6 4006   4.346   4.494   7.111 -0.6243 -2.0424 -0.8605
   55CHL1    C7 4007   4.304   4.504   7.329  0.1963  0.1850 -0.1960
   55CHL1   H7A 4008   4.395   4.443   7.352 -0.4757 -1.1106 -0.8674
   55CHL1   H7B 4009   4.298   4.613   7.350  0.0533  0.4890 -1.6590
   55CHL1    C8 4010   4.204   4.441   7.422  0.2078 -0.2043 -0.3994
   55CHL1    H8 4011   4.219   4.331   7.415 -1.2716 -0.4667  0.1256
   55CHL1   C14 4012   4.235   4.474   7.565  0.2559  0.7501  0.1215
   55CHL1   H14 4013   4.193   4.576   7.574 -2.1551 -0.2050  0.6623
   55CHL1   C15 4014   4.375   4.477   7.609  0.0660 -0.2490 -0.2505
   55CHL1  H15A 4015   4.442   4.391   7.586 -0.6737 -1.3687  1.5269
   55CHL1  H15B 4016   4.427   4.567   7.572  0.2107  0.2059  1.0155
   55CHL1   C16 4017   4.360   4.478   7.764  0.2950 -0.2011 -0.0188
   55CHL1  H16A 4018   4.407   4.384   7.800  1.0608 -0.7346 -2.2660
   55CHL1  H16B 4019   4.417   4.561   7.812  0.4835  1.1160 -2.3679
   55CHL1   C17 4020   4.210   4.491   7.799  0.0233  0.1947  0.3011
   55CHL1   H17 4021   4.177   4.597   7.802 -4.7589 -1.1255  1.4621
   55CHL1   C13 4022   4.145   4.418   7.675  0.7380  0.0602 -0.2541
   55CHL1   C18 4023   4.166   4.268   7.686  0.4361  0.7970 -0.4231
   55CHL1  H18A 4024   4.128   4.214   7.597 -0.6062  0.4727  0.1970
   55CHL1  H18B 4025   4.274   4.243   7.693  0.1799  0.0068  1.0138
   55CHL1  H18C 4026   4.125   4.213   7.773 -0.7953  1.2005 -0.7135
   55CHL1   C12 4027   3.998   4.457   7.641 -0.5006  0.7068  0.4210
   55CHL1  H12A 4028   3.930   4.406   7.713  0.8390 -0.2965  1.0244
   55CHL1  H12B 4029   3.990   4.568   7.642 -0.3904  0.7179  0.1256
   55CHL1   C11 4030   3.960   4.414   7.493  0.5302 -0.4958 -0.5347
   55CHL1  H11A 4031   3.957   4.303   7.491  0.5665 -0.5494  1.2883
   55CHL1  H11B 4032   3.857   4.454   7.478  0.6605  0.0278 -0.0825
   55CHL1    C9 4033   4.058   4.459   7.387  0.2337 -0.9436  0.2319
   55CHL1    H9 4034   4.056   4.570   7.389  0.6913 -0.9328  0.1878
   55CHL1   C10 4035   4.032   4.415   7.243 -0.8585  0.4427 -0.0077
   55CHL1   C19 4036   4.015   4.265   7.242 -0.5923  0.0038 -0.7585
   55CHL1  H19A 4037   3.995   4.228   7.139 -2.7500  1.2839 -0.8537
   55CHL1  H19B 4038   4.110   4.217   7.275 -0.5052  1.1245  0.7141
   55CHL1  H19C 4039   3.934   4.224   7.305 -1.8404  3.1305 -0.1600
   55CHL1    C1 4040   3.900   4.485   7.197  0.3558 -0.0362 -0.4627
   55CHL1   H1A 4041   3.810   4.456   7.254 -0.1930  2.5337  0.1254
   55CHL1   H1B 4042   3.909   4.593   7.225  2.5716 -0.4661  0.6933
   55CHL1    C2 4043   3.870   4.456   7.047 -0.1434  0.1734 -0.4899
   55CHL1   H2A 4044   3.785   4.522   7.018 -0.9878  0.0416  1.5291
   55CHL1   H2B 4045   3.849   4.350   7.023  1.7350 -0.1366 -0.8897
   55CHL1   C20 4046   4.178   4.446   7.938  0.1445  0.2469 -0.2637
   55CHL1   H20 4047   4.178   4.335   7.945 -1.0566  0.2103 -0.6681
   55CHL1   C21 4048   4.042   4.485   7.992  0.7329 -1.0557 -0.4288
   55CHL1  H21A 4049   4.018   4.425   8.082 -1.9102  1.6094  0.8136
   55CHL1  H21B 4050   3.963   4.475   7.914 -0.9850 -3.7560  1.4950
   55CHL1  H21C 4051   4.050   4.588   8.032 -0.4889 -1.6416  1.4410
   55CHL1   C22 4052   4.284   4.482   8.040  0.4755 -0.3396  0.2122
   55CHL1  H22A 4053   4.388   4.453   8.012  1.2105 -1.0525  3.3133
   55CHL1  H22B 4054   4.293   4.591   8.059  1.0971 -0.5581  1.2319
   55CHL1   C23 4055   4.276   4.411   8.174 -0.2671  0.7739 -0.1871
   55CHL1  H23A 4056   4.177   4.429   8.222 -0.5804  1.7644 -1.1647
   55CHL1  H23B 4057   4.271   4.302   8.152  0.1158  0.9672 -1.2850
   55CHL1   C24 4058   4.400   4.438   8.274  0.1234  0.2585  0.1277
   55CHL1  H24A 4059   4.485   4.418   8.206  0.5420  2.1596  0.0406
   55CHL1  H24B 4060   4.416   4.545   8.297  2.9755  0.2074 -1.2211
   55CHL1   C25 4061   4.393   4.356   8.405  0.3369 -0.3526  0.4469
   55CHL1   H25 4062   4.339   4.260   8.386  0.0412 -0.4927  1.8603
   55CHL1   C26 4063   4.536   4.326   8.443  0.2394 -0.5239 -0.6669
   55CHL1  H26A 4064   4.531   4.261   8.533  0.3161  0.6821  0.2388
   55CHL1  H26B 4065   4.596   4.275   8.364 -1.0125 -1.4093 -1.0688
   55CHL1  H26C 4066   4.590   4.419   8.471 -1.3703  0.5000 -0.9131
   55CHL1   C27 4067   4.319   4.430   8.518 -0.7814  0.3544 -0.7623
   55CHL1  H27A 4068   4.282   4.351   8.586 -2.4100  1.2489 -0.5547
   55CHL1  H27B 4069   4.379   4.501   8.578 -1.4860  0.5931 -0.3314
   55CHL1  H27C 4070   4.233   4.489   8.478 -2.6654 -1.9109 -0.2525
   56CHL1    C3 4071   3.279   1.560   6.846 -0.2431 -0.1589  0.3919
   56CHL1    H3 4072   3.214   1.647   6.868  1.7159  1.2318  0.9041
   56CHL1    O3 4073   3.300   1.544   6.703  0.6047 -0.5133  0.1008
   56CHL1   H3' 4074   3.370   1.479   6.710 -0.4633 -1.6304  1.0540
   56CHL1    C4 4075   3.408   1.583   6.926 -0.7591  0.1515  0.1854
   56CHL1   H4A 4076   3.481   1.504   6.900 -0.0413  0.1404  2.0342
   56CHL1   H4B 4077   3.448   1.679   6.887  1.4135 -0.6440  0.3386
   56CHL1    C5 4078   3.387   1.599   7.077 -0.2816  0.0236  0.2517
   56CHL1    C6 4079   3.431   1.707   7.143 -0.3381 -0.9871 -0.0060
   56CHL1    H6 4080   3.489   1.788   7.098  3.1341 -2.5021  1.4401
   56CHL1    C7 4081   3.393   1.732   7.286 -0.0918  0.3724 -0.0244
   56CHL1   H7A 4082   3.470   1.797   7.333 -2.4066  2.9073  0.5534
   56CHL1   H7B 4083   3.307   1.803   7.289  1.7153  2.7697 -1.5292
   56CHL1    C8 4084   3.343   1.610   7.371 -0.2109  0.1203 -0.7410
   56CHL1    H8 4085   3.435   1.558   7.403 -0.2699  1.1435  1.2754
   56CHL1   C14 4086   3.263   1.662   7.491 -0.3759 -0.4198  0.5171
   56CHL1   H14 4087   3.165   1.696   7.451  1.1086  2.7122 -0.7599
   56CHL1   C15 4088   3.321   1.768   7.585 -1.0691  0.2441 -0.1155
   56CHL1  H15A 4089   3.428   1.749   7.607 -0.7738  1.5996 -0.3169
   56CHL1  H15B 4090   3.326   1.873   7.548  1.0722 -0.1582 -1.1025
   56CHL1   C16 4091   3.246   1.755   7.713 -0.6483  0.3099  0.4331
   56CHL1  H16A 4092   3.332   1.737   7.781  0.6698 -0.1424 -1.2803
   56CHL1  H16B 4093   3.173   1.835   7.740 -3.1673 -1.7245  0.0577
   56CHL1   C17 4094   3.148   1.635   7.694 -0.3104  0.7362 -0.3126
   56CHL1   H17 4095   3.055   1.669   7.645  0.5919  0.7878 -2.0722
   56CHL1   C13 4096   3.215   1.552   7.582  0.4423  0.4471  0.2981
   56CHL1   C18 4097   3.341   1.474   7.636 -0.2136  0.8566 -0.5394
   56CHL1  H18A 4098   3.380   1.520   7.730  1.3438 -0.3099 -0.5835
   56CHL1  H18B 4099   3.289   1.388   7.684  0.9964 -0.0578 -0.8270
   56CHL1  H18C 4100   3.417   1.440   7.562 -0.7065 -0.2025 -0.5733
   56CHL1   C12 4101   3.125   1.457   7.499  0.0765  0.0394  1.0331
   56CHL1  H12A 4102   3.091   1.368   7.557 -1.4563 -0.3831 -0.4083
   56CHL1  H12B 4103   3.036   1.520   7.475  0.6918  2.6034  4.7191
   56CHL1   C11 4104   3.188   1.411   7.366  0.2994 -0.2134 -0.2591
   56CHL1  H11A 4105   3.277   1.355   7.400 -0.4605 -0.6817  0.9902
   56CHL1  H11B 4106   3.112   1.355   7.307 -2.0033  2.8417 -0.4754
   56CHL1    C9 4107   3.245   1.530   7.285  0.0471 -0.1211  0.3956
   56CHL1    H9 4108   3.161   1.596   7.256  0.2374 -0.2502 -0.4891
   56CHL1   C10 4109   3.302   1.489   7.143 -0.4290 -0.3616 -0.4525
   56CHL1   C19 4110   3.383   1.361   7.157  0.6556  0.3648 -0.7379
   56CHL1  H19A 4111   3.319   1.276   7.189  2.7113 -0.6042  1.1135
   56CHL1  H19B 4112   3.425   1.329   7.060 -1.3547 -4.0787 -0.4148
   56CHL1  H19C 4113   3.467   1.370   7.230  1.2510 -0.9114 -1.2382
   56CHL1    C1 4114   3.180   1.470   7.052 -0.3066 -0.3104 -0.0350
   56CHL1   H1A 4115   3.120   1.386   7.094 -0.5864 -0.4906 -0.7761
   56CHL1   H1B 4116   3.118   1.562   7.053  0.2442  0.2288  4.1781
   56CHL1    C2 4117   3.203   1.447   6.901  0.1107 -0.0501 -0.1557
   56CHL1   H2A 4118   3.104   1.443   6.851 -0.5558  0.8527  1.0293
   56CHL1   H2B 4119   3.260   1.352   6.894 -1.6173 -1.1227 -0.1280
   56CHL1   C20 4120   3.102   1.572   7.828  0.5546  0.1202  0.2096
   56CHL1   H20 4121   3.184   1.513   7.876  0.9558 -0.1120 -0.7267
   56CHL1   C21 4122   2.984   1.472   7.792 -0.1682  0.1728 -0.7598
   56CHL1  H21A 4123   2.903   1.522   7.737  0.4475  2.2104  0.1036
   56CHL1  H21B 4124   2.936   1.435   7.885  0.4552 -1.2430 -0.9592
   56CHL1  H21C 4125   3.025   1.381   7.743  2.1146 -0.7105  2.4149
   56CHL1   C22 4126   3.055   1.683   7.928 -0.9517  0.8877  0.5658
   56CHL1  H22A 4127   3.150   1.740   7.943 -1.2299  2.2137 -2.2092
   56CHL1  H22B 4128   2.988   1.743   7.864 -0.4590 -1.1955 -2.0761
   56CHL1   C23 4129   2.993   1.647   8.057  0.1808  0.5354 -0.3426
   56CHL1  H23A 4130   2.885   1.620   8.056 -0.1710  1.8473 -0.1385
   56CHL1  H23B 4131   3.051   1.564   8.102 -0.1146  1.3310  1.6145
   56CHL1   C24 4132   3.005   1.761   8.161 -0.5369  0.2834  0.6985
   56CHL1  H24A 4133   3.112   1.782   8.179 -0.4919  0.5817  0.1289
   56CHL1  H24B 4134   2.961   1.853   8.117  0.9720  0.5328 -0.3464
   56CHL1   C25 4135   2.936   1.729   8.292  0.1449  0.3894 -0.4287
   56CHL1   H25 4136   2.827   1.730   8.272  0.2116 -0.9689 -0.9165
   56CHL1   C26 4137   2.982   1.596   8.353 -0.2042  0.4524 -0.3026
   56CHL1  H26A 4138   2.942   1.582   8.456 -0.6339  1.9040 -0.2586
   56CHL1  H26B 4139   3.093   1.591   8.361 -0.3431 -0.6334  1.6459
   56CHL1  H26C 4140   2.954   1.508   8.291  0.6601 -0.6913  0.8559
   56CHL1   C27 4141   2.957   1.837   8.392  0.2472 -0.1554  0.1143
   56CHL1  H27A 4142   3.066   1.837   8.417 -0.0873  0.7826  1.7910
   56CHL1  H27B 4143   2.932   1.936   8.348  1.3745 -0.0702 -0.3796
   56CHL1  H27C 4144   2.901   1.826   8.488 -0.3113  1.1011 -0.0442
   57SAPC     N 4145   4.182   5.186  10.624  0.5938 -0.6897  0.0955
   57SAPC   C12 4146   4.146   5.078  10.730 -1.1050  0.2681 -1.1153
   57SAPC  H12A 4147   4.043   5.090  10.759 -0.3337  2.5981  0.9866
   57SAPC  H12B 4148   4.200   5.099  10.821 -0.3129 -1.8230 -1.0235
   57SAPC   C13 4149   4.329   5.212  10.616  0.0877 -0.0950  0.0458
   57SAPC  H13A 4150   4.341   5.291  10.544 -0.6234  0.0694  0.1024
   57SAPC  H13B 4151   4.374   5.243  10.710  0.0413 -0.5158  0.2101
   57SAPC  H13C 4152   4.382   5.120  10.594 -0.0858 -0.9426  2.7429
   57SAPC   C14 4153   4.132   5.152  10.485 -0.3509  0.0768 -0.5998
   57SAPC  H14A 4154   4.025   5.165  10.481 -0.2702  1.4869  0.7522
   57SAPC  H14B 4155   4.179   5.209  10.406 -0.4570 -0.9642 -1.4231
   57SAPC  H14C 4156   4.148   5.051  10.453 -1.4956 -0.1236 -0.5650
   57SAPC   C15 4157   4.116   5.321  10.664 -0.5250  0.8202 -0.0219
   57SAPC  H15A 4158   4.121   5.392  10.582  0.1484  1.1246  0.2718
   57SAPC  H15B 4159   4.017   5.303  10.701 -0.4127  0.0639 -0.0755
   57SAPC  H15C 4160   4.162   5.362  10.753  1.6304 -2.0496  0.3240
   57SAPC   C11 4161   4.172   4.934  10.708 -0.2320  0.3736  0.1661
   57SAPC  H11A 4162   4.096   4.885  10.644 -1.9142 -0.2112  2.4720
   57SAPC  H11B 4163   4.170   4.881  10.805 -2.9725 -1.4786 -0.7943
   57SAPC     P 4164   4.333   4.784  10.573  0.3105 -0.4692 -0.0871
   57SAPC   O13 4165   4.469   4.789  10.518 -0.0389 -0.1347  0.2400
   57SAPC   O14 4166   4.304   4.664  10.658 -0.2824  0.1850  0.1958
   57SAPC   O12 4167   4.306   4.917  10.659  0.4435  0.1700 -0.3387
   57SAPC   O11 4168   4.224   4.803  10.469 -0.6301 -0.1990  0.2144
   57SAPC    C1 4169   4.245   4.856  10.339  0.9043 -0.7495  0.0186
   57SAPC    HA 4170   4.148   4.894  10.301  0.8819 -1.6935 -0.9268
   57SAPC    HB 4171   4.321   4.937  10.332  0.3700 -0.1052  1.3319
   57SAPC    C2 4172   4.263   4.746  10.234 -0.1007 -0.4844 -0.0555
   57SAPC    HS 4173   4.360   4.694  10.252  0.7671  1.3864  0.9183
   57SAPC   O21 4174   4.252   4.804  10.104 -0.2330 -0.0452 -0.0507
   57SAPC   C21 4175   4.361   4.864  10.071  0.2610 -0.0649 -0.3198
   57SAPC   O22 4176   4.464   4.862  10.137  0.3086 -0.2215  0.0793
   57SAPC   C22 4177   4.342   4.906   9.922 -0.2062 -0.3331  0.0385
   57SAPC   H2R 4178   4.358   4.823   9.850 -0.0671  2.1879 -3.0570
   57SAPC   H2S 4179   4.235   4.935   9.911  0.4512  2.1689 -0.4593
   57SAPC    C3 4180   4.158   4.640  10.238  0.4004 -0.1685  0.1584
   57SAPC    HX 4181   4.058   4.680  10.210 -0.2011 -1.6112  0.1621
   57SAPC    HY 4182   4.145   4.621  10.347 -1.5509  0.6172  0.0975
   57SAPC   O31 4183   4.184   4.521  10.165 -0.2492 -0.0494 -0.0090
   57SAPC   C31 4184   4.177   4.403  10.213  0.1996  0.5990  0.1268
   57SAPC   O32 4185   4.171   4.372  10.330 -0.2447  0.2105  0.1539
   57SAPC   C32 4186   4.170   4.303  10.093 -0.8105  0.0767  0.7695
   57SAPC   H2X 4187   4.246   4.226  10.117  0.0868 -0.1589 -2.3999
   57SAPC   H2Y 4188   4.205   4.352  10.000 -0.7485  1.8619  1.7018
   57SAPC   C23 4189   4.425   5.029   9.880 -0.1109  0.5736 -0.9798
   57SAPC   H3R 4190   4.532   5.009   9.901 -0.3826 -2.9030 -2.2520
   57SAPC   H3S 4191   4.385   5.110   9.946 -3.9841 -0.9603 -1.1633
   57SAPC   C24 4192   4.405   5.068   9.732  0.0490 -0.2771  0.4310
   57SAPC   H4R 4193   4.486   5.138   9.704 -0.2593 -0.0190  0.1739
   57SAPC   H4S 4194   4.307   5.121   9.729  1.0331  1.5922 -0.2475
   57SAPC   C25 4195   4.404   4.951   9.639  0.3238  0.0694 -0.0618
   57SAPC   H5R 4196   4.508   4.915   9.629  0.2080 -0.0640 -0.8109
   57SAPC   C26 4197   4.296   4.901   9.579  0.1136  0.0462  0.6216
   57SAPC   H6R 4198   4.300   4.813   9.514  0.1113 -0.1098  0.8342
   57SAPC   C27 4199   4.152   4.938   9.605  0.1814 -0.3340  0.3347
   57SAPC   H7R 4200   4.104   4.980   9.514  3.9849  1.7096 -0.9215
   57SAPC   H7S 4201   4.138   5.029   9.668  3.0662  1.1011 -0.9033
   57SAPC   C28 4202   4.072   4.819   9.653  1.0765 -0.5634 -0.1454
   57SAPC   H8R 4203   4.123   4.721   9.654 -0.6386 -1.5115  2.1344
   57SAPC   C29 4204   3.958   4.828   9.723 -0.1054 -1.0243  0.7225
   57SAPC   H9R 4205   3.906   4.736   9.755 -1.5867 -0.4569  0.0434
   57SAPC  C210 4206   3.882   4.960   9.747 -0.2444  0.0822 -0.1417
   57SAPC  H10R 4207   3.785   4.947   9.693 -0.2986  1.1843 -0.3302
   57SAPC  H10S 4208   3.932   5.050   9.707  1.1046 -0.4944  0.2093
   57SAPC  C211 4209   3.848   4.980   9.888 -0.5126 -0.0480  0.8082
   57SAPC  H11R 4210   3.744   4.956   9.914 -0.4882 -0.7717  0.2569
   57SAPC  C212 4211   3.913   5.056   9.975 -0.0398 -0.5969  0.1440
   57SAPC  H12R 4212   3.876   5.059  10.079 -0.1180  0.0085  0.1020
   57SAPC  C213 4213   4.047   5.125   9.960 -0.3604  0.2581  0.1795
   57SAPC  H13R 4214   4.080   5.126   9.854  1.0491 -2.8175  0.4707
   57SAPC  H13S 4215   4.119   5.069  10.023 -0.1227 -0.5373 -0.7716
   57SAPC  C214 4216   4.070   5.272   9.986  0.0556  0.3748  0.4407
   57SAPC  H14R 4217   4.151   5.297  10.056  1.6087  1.1002 -1.5128
   57SAPC  C215 4218   4.019   5.381   9.923  0.5891 -0.7103  0.0153
   57SAPC  H15R 4219   4.032   5.482   9.965  2.5141 -1.1418  0.5472
   57SAPC  C216 4220   3.926   5.369   9.802 -0.0132 -0.6048 -0.4333
   57SAPC  H16R 4221   3.921   5.266   9.763 -2.6912 -1.0753  0.9258
   57SAPC  H16S 4222   3.972   5.419   9.714 -0.3849  0.6689  0.0674
   57SAPC  C217 4223   3.783   5.414   9.847 -0.2611  0.1904  0.5552
   57SAPC  H17R 4224   3.755   5.360   9.941 -0.5507 -1.3363 -0.3714
   57SAPC  H17S 4225   3.716   5.387   9.762 -0.1123 -1.0583  0.8150
   57SAPC  C218 4226   3.765   5.565   9.870 -0.2666  0.2853  1.1945
   57SAPC  H18R 4227   3.783   5.611   9.771  2.2623 -2.9965 -0.0605
   57SAPC  H18S 4228   3.847   5.600   9.938  0.2623  1.3829  0.0274
   57SAPC  C219 4229   3.626   5.605   9.927 -1.3275 -0.1121  0.3762
   57SAPC  H19R 4230   3.624   5.715   9.945 -0.6788 -0.1178  0.5180
   57SAPC  H19S 4231   3.620   5.546  10.020  1.5485 -0.1971  0.5901
   57SAPC  C220 4232   3.508   5.571   9.846  0.8839 -0.3014 -0.0732
   57SAPC  H20R 4233   3.507   5.632   9.752  0.8533 -1.4861 -0.8669
   57SAPC  H20S 4234   3.410   5.595   9.893  1.3447 -1.1537  1.3874
   57SAPC  H20T 4235   3.510   5.464   9.818  0.0811 -1.0474  2.4398
   57SAPC   C33 4236   4.030   4.257  10.068  0.1983  0.8595 -0.3826
   57SAPC   H3X 4237   3.982   4.233  10.165  0.1042 -1.1652 -0.8959
   57SAPC   H3Y 4238   4.042   4.161  10.014  2.8489  1.0332 -0.2180
   57SAPC   C34 4239   3.942   4.346   9.980  0.1937 -0.2192  0.8797
   57SAPC   H4X 4240   3.889   4.431  10.029 -0.8684 -0.7735  0.7251
   57SAPC   H4Y 4241   3.848   4.291   9.955 -1.1796  1.3168  2.3565
   57SAPC   C35 4242   3.995   4.390   9.842 -0.5769  0.6049 -0.3496
   57SAPC   H5X 4243   4.060   4.317   9.790 -1.0539 -0.8222  0.9919
   57SAPC   H5Y 4244   4.062   4.479   9.848 -2.9132  2.3967  2.9924
   57SAPC   C36 4245   3.886   4.435   9.743  0.4131  0.5157 -0.0072
   57SAPC   H6X 4246   3.835   4.520   9.793 -2.4937 -0.8168 -0.4905
   57SAPC   H6Y 4247   3.810   4.360   9.711 -0.7472  2.6495 -2.6804
   57SAPC   C37 4248   3.944   4.480   9.607  0.7591  0.1060 -0.0027
   57SAPC   H7X 4249   3.974   4.387   9.554  0.8867 -0.2191  0.6292
   57SAPC   H7Y 4250   4.040   4.533   9.625  0.9613 -0.5212  0.8380
   57SAPC   C38 4251   3.849   4.568   9.516  0.1430  0.0658  0.3156
   57SAPC   H8X 4252   3.821   4.649   9.587  0.4285 -0.8648  1.5222
   57SAPC   H8Y 4253   3.758   4.506   9.498  0.0029  0.6468 -1.0582
   57SAPC   C39 4254   3.917   4.624   9.382 -0.1676  0.9281 -0.0659
   57SAPC   H9X 4255   3.958   4.537   9.327 -2.8091 -0.1470 -0.4834
   57SAPC   H9Y 4256   3.998   4.693   9.414  2.1672 -0.7453 -1.9891
   57SAPC  C310 4257   3.825   4.696   9.293 -0.1280  0.5500 -0.1720
   57SAPC  H10X 4258   3.799   4.783   9.357 -1.5003  2.1176 -2.6679
   57SAPC  H10Y 4259   3.738   4.635   9.259  0.5523  0.8244 -2.6093
   57SAPC  C311 4260   3.898   4.761   9.171 -0.4262 -0.2888 -0.5437
   57SAPC  H11X 4261   3.992   4.815   9.194  0.0436 -0.6794 -1.4935
   57SAPC  H11Y 4262   3.828   4.838   9.132  0.1452  0.1649 -0.6869
   57SAPC  C312 4263   3.922   4.646   9.068 -0.5817 -0.6720  0.0259
   57SAPC  H12X 4264   3.825   4.599   9.039 -0.6552 -1.0267  0.8165
   57SAPC  H12Y 4265   3.974   4.558   9.112 -0.1518 -1.3282 -1.7151
   57SAPC  C313 4266   3.994   4.701   8.943  0.4661 -0.2872 -0.7844
   57SAPC  H13X 4267   4.047   4.617   8.892  2.7594 -0.3138  1.4440
   57SAPC  H13Y 4268   4.070   4.780   8.963  1.2507 -0.5585 -2.4895
   57SAPC  C314 4269   3.913   4.787   8.835  1.1751 -0.0167  0.2974
   57SAPC  H14X 4270   3.885   4.885   8.880  2.5761  0.8206 -0.5972
   57SAPC  H14Y 4271   3.813   4.742   8.820 -0.9276  4.0540  0.5524
   57SAPC  C315 4272   3.980   4.817   8.699 -0.0659  0.7007  0.6744
   57SAPC  H15X 4273   4.069   4.880   8.722 -1.2665  2.4612  0.6943
   57SAPC  H15Y 4274   3.919   4.877   8.628  2.6427  1.2749 -1.3111
   57SAPC  C316 4275   4.022   4.691   8.622 -0.5774 -0.5192 -0.3110
   57SAPC  H16X 4276   4.111   4.640   8.664  0.9121  1.0966 -1.3577
   57SAPC  H16Y 4277   4.060   4.728   8.524  0.3231  3.2583  1.2923
   57SAPC  C317 4278   3.910   4.587   8.600  0.0434  0.1409 -0.0229
   57SAPC  H17X 4279   3.826   4.644   8.556 -0.5273  0.9413  2.0033
   57SAPC  H17Y 4280   3.875   4.542   8.695  0.6663 -0.5520 -0.1109
   57SAPC  C318 4281   3.947   4.467   8.515  0.0786  0.2435  0.3310
   57SAPC  H18X 4282   3.848   4.416   8.504 -1.0131  2.5636 -1.6405
   57SAPC  H18Y 4283   4.030   4.404   8.555  1.8178  1.3821 -1.3284
   57SAPC  H18Z 4284   3.986   4.481   8.412  1.1015 -2.5424  0.2489
   58SAPC     N 4285   6.020   2.939  10.852  0.4663  0.0628 -0.4629
   58SAPC   C12 4286   6.154   2.975  10.776  0.7863  0.4618  0.6591
   58SAPC  H12A 4287   6.135   2.963  10.670  0.7935 -1.4404  0.8475
   58SAPC  H12B 4288   6.227   2.896  10.772  1.9472  1.4961 -2.7361
   58SAPC   C13 4289   6.052   2.895  10.987 -0.5580  0.0069 -0.4105
   58SAPC  H13A 4290   6.090   2.974  11.049  0.5038  0.0114 -1.0384
   58SAPC  H13B 4291   5.967   2.848  11.033  0.7661 -1.4331  0.6692
   58SAPC  H13C 4292   6.125   2.815  10.980  0.2538  0.7560 -0.7133
   58SAPC   C14 4293   5.941   3.064  10.851  0.1447  0.0691 -0.2598
   58SAPC  H14A 4294   5.907   3.079  10.749  0.0078  0.5773 -0.1424
   58SAPC  H14B 4295   5.849   3.063  10.908  0.1872  0.2653 -0.1860
   58SAPC  H14C 4296   5.997   3.153  10.874 -0.5417  0.1404  1.1939
   58SAPC   C15 4297   5.936   2.837  10.779 -0.0170 -0.7266  0.2122
   58SAPC  H15A 4298   5.853   2.802  10.838 -0.2137 -0.9013 -0.1656
   58SAPC  H15B 4299   5.895   2.875  10.687  0.9428 -0.3111 -0.0578
   58SAPC  H15C 4300   5.994   2.752  10.745  1.1969 -1.7170  4.2254
   58SAPC   C11 4301   6.218   3.114  10.799  0.5096  0.2263 -0.0060
   58SAPC  H11A 4302   6.328   3.114  10.781  0.6618 -0.7081  0.8691
   58SAPC  H11B 4303   6.218   3.138  10.907 -0.6853  0.8258 -0.1265
   58SAPC     P 4304   6.206   3.365  10.697 -0.3722 -0.1404 -0.3879
   58SAPC   O13 4305   6.095   3.450  10.647 -0.1263  0.1768  0.4698
   58SAPC   O14 4306   6.284   3.425  10.811  0.9084 -0.5515 -0.4340
   58SAPC   O12 4307   6.152   3.217  10.724  0.1665  0.3101  0.6935
   58SAPC   O11 4308   6.309   3.339  10.578 -0.1486  0.2699  0.2007
   58SAPC    C1 4309   6.270   3.373  10.442 -0.0740  1.1677 -0.0168
   58SAPC    HA 4310   6.336   3.311  10.377 -3.4610  0.3349 -3.0253
   58SAPC    HB 4311   6.173   3.331  10.407  0.4246 -0.1914  0.1681
   58SAPC    C2 4312   6.283   3.520  10.408  0.0201 -0.1062 -0.4653
   58SAPC    HS 4313   6.225   3.587  10.476  0.9453  0.2231  0.0104
   58SAPC   O21 4314   6.233   3.543  10.280 -0.2310 -0.7356  0.2052
   58SAPC   C21 4315   6.201   3.665  10.247 -0.2307 -0.7801 -0.5242
   58SAPC   O22 4316   6.190   3.760  10.326 -0.3139  0.1719  0.4544
   58SAPC   C22 4317   6.172   3.678  10.095 -0.3631  1.0494 -0.3214
   58SAPC   H2R 4318   6.265   3.641  10.046 -0.0706  0.0935  0.8839
   58SAPC   H2S 4319   6.086   3.613  10.069 -1.7235  2.2520  1.0436
   58SAPC    C3 4320   6.429   3.559  10.437 -0.1406 -0.5953  0.0579
   58SAPC    HX 4321   6.455   3.539  10.544 -0.1081 -1.5118 -0.1075
   58SAPC    HY 4322   6.441   3.668  10.422 -4.2493 -0.0149 -0.3115
   58SAPC   O31 4323   6.529   3.469  10.372  0.2147 -0.1463 -0.0556
   58SAPC   C31 4324   6.560   3.503  10.248  0.3445 -0.0839 -0.6168
   58SAPC   O32 4325   6.529   3.603  10.189  0.4748  0.1928  0.3023
   58SAPC   C32 4326   6.642   3.380  10.193 -0.0110  0.4483  0.4644
   58SAPC   H2X 4327   6.577   3.301  10.149  2.7699 -0.8484 -1.6291
   58SAPC   H2Y 4328   6.699   3.337  10.278 -1.4644  0.9805  1.7503
   58SAPC   C23 4329   6.159   3.827  10.056 -0.1440  0.2587  0.5314
   58SAPC   H3R 4330   6.254   3.880  10.082  0.7072 -1.3763  0.8788
   58SAPC   H3S 4331   6.080   3.877  10.116  1.1675  2.1302  0.8089
   58SAPC   C24 4332   6.135   3.847   9.909  0.0316 -1.0351  0.7896
   58SAPC   H4R 4333   6.111   3.953   9.890  2.3114 -0.6010  0.0339
   58SAPC   H4S 4334   6.041   3.794   9.883  0.1518 -1.1479  0.5776
   58SAPC   C25 4335   6.245   3.810   9.807  0.0285 -0.6232  0.3733
   58SAPC   H5R 4336   6.342   3.770   9.842  1.0229 -2.4761 -3.9147
   58SAPC   C26 4337   6.224   3.808   9.674  0.6020 -0.0364  0.2075
   58SAPC   H6R 4338   6.313   3.783   9.615 -0.3190 -0.2198 -1.1414
   58SAPC   C27 4339   6.097   3.837   9.595  0.0653 -0.1032  0.0024
   58SAPC   H7R 4340   6.124   3.919   9.525 -1.2796  1.5635  1.3409
   58SAPC   H7S 4341   6.015   3.865   9.664 -0.3888  1.0928 -0.9715
   58SAPC   C28 4342   6.064   3.705   9.520  0.5027 -1.0418 -1.4201
   58SAPC   H8R 4343   6.042   3.622   9.589 -2.2911  2.3981  2.2736
   58SAPC   C29 4344   6.066   3.694   9.389 -0.3359 -0.5180  0.4054
   58SAPC   H9R 4345   6.052   3.601   9.332  0.0217 -0.5262  0.3252
   58SAPC  C210 4346   6.102   3.808   9.304 -0.0392 -0.6449  0.4949
   58SAPC  H10R 4347   6.202   3.843   9.340  0.9947 -3.4365  0.6161
   58SAPC  H10S 4348   6.020   3.882   9.299 -0.7779 -1.5096 -3.0217
   58SAPC  C211 4349   6.123   3.775   9.163  0.9417  0.1814 -0.0110
   58SAPC  H11R 4350   6.046   3.812   9.093  0.6417 -1.1796 -0.4321
   58SAPC  C212 4351   6.231   3.706   9.113  0.8432 -0.0749  0.8430
   58SAPC  H12R 4352   6.236   3.693   9.004  0.2495 -0.2990  0.8376
   58SAPC  C213 4353   6.343   3.647   9.186  0.2483  0.1929 -0.2679
   58SAPC  H13R 4354   6.333   3.676   9.293  2.1025  2.0160 -0.5363
   58SAPC  H13S 4355   6.432   3.706   9.156 -1.1194  2.3621 -0.3062
   58SAPC  C214 4356   6.357   3.492   9.169  0.7600 -0.3277  0.0180
   58SAPC  H14R 4357   6.357   3.459   9.064 -0.8874  1.3475 -0.5604
   58SAPC  C215 4358   6.368   3.406   9.269  0.1404  0.3797  0.0542
   58SAPC  H15R 4359   6.394   3.300   9.255 -0.1129  0.3006  0.1638
   58SAPC  C216 4360   6.355   3.446   9.418 -0.3019  0.0638  0.1657
   58SAPC  H16R 4361   6.249   3.443   9.450  0.2259  2.8774  2.6328
   58SAPC  H16S 4362   6.391   3.550   9.436  2.4279 -0.3447 -2.2019
   58SAPC  C217 4363   6.450   3.362   9.505 -0.7194  0.1690  0.1253
   58SAPC  H17R 4364   6.552   3.369   9.461 -1.6432 -1.7534 -2.5547
   58SAPC  H17S 4365   6.422   3.255   9.512  1.5750 -0.3856  2.4054
   58SAPC  C218 4366   6.458   3.402   9.650 -0.8098 -0.2751 -0.4393
   58SAPC  H18R 4367   6.500   3.503   9.668 -3.0633  0.3663  1.6409
   58SAPC  H18S 4368   6.509   3.313   9.693 -0.9694 -0.0661  0.1859
   58SAPC  C219 4369   6.318   3.411   9.713 -0.0000 -0.8451 -0.4671
   58SAPC  H19R 4370   6.251   3.328   9.681 -0.4552 -1.6685  2.3211
   58SAPC  H19S 4371   6.289   3.508   9.668  2.4258 -0.1764 -0.7295
   58SAPC  C220 4372   6.320   3.421   9.864  0.8908 -0.1686 -0.0949
   58SAPC  H20R 4373   6.410   3.365   9.899  0.9107  1.0376  1.9835
   58SAPC  H20S 4374   6.225   3.395   9.916 -0.3044  0.0622 -2.0581
   58SAPC  H20T 4375   6.345   3.524   9.899  0.6752  0.5947 -2.0719
   58SAPC   C33 4376   6.730   3.426  10.074  0.6591 -0.0276 -0.3557
   58SAPC   H3X 4377   6.812   3.495  10.103 -0.4939  2.1896 -2.0251
   58SAPC   H3Y 4378   6.662   3.479  10.004  1.1045  0.2598 -0.5833
   58SAPC   C34 4379   6.793   3.309   9.993 -0.3028  0.6738 -0.0264
   58SAPC   H4X 4380   6.709   3.248   9.954 -0.7286  1.1910  0.0764
   58SAPC   H4Y 4381   6.846   3.252  10.072 -1.5685 -1.6405 -0.7482
   58SAPC   C35 4382   6.898   3.349   9.893 -0.5958 -0.4649 -0.1478
   58SAPC   H5X 4383   6.944   3.255   9.854  1.7273  0.8455 -0.7299
   58SAPC   H5Y 4384   6.981   3.398   9.948  0.0324 -1.7806  0.1380
   58SAPC   C36 4385   6.862   3.447   9.781  0.5392  0.6151  0.4543
   58SAPC   H6X 4386   6.902   3.546   9.810 -1.4629  2.0530 -1.3906
   58SAPC   H6Y 4387   6.752   3.461   9.788  0.5691  1.2231 -0.1645
   58SAPC   C37 4388   6.907   3.400   9.639  0.5874  0.0382  0.3367
   58SAPC   H7X 4389   6.897   3.290   9.631 -0.4476  0.2436 -1.9818
   58SAPC   H7Y 4390   7.013   3.433   9.626  0.0957  1.7678  0.3628
   58SAPC   C38 4391   6.839   3.472   9.523  0.2182  0.5240  0.0221
   58SAPC   H8X 4392   6.877   3.576   9.514  1.4536 -0.0361 -2.1286
   58SAPC   H8Y 4393   6.729   3.471   9.539  0.2680 -1.5923  0.5700
   58SAPC   C39 4394   6.848   3.390   9.390 -0.2592  0.1989 -0.4723
   58SAPC   H9X 4395   6.780   3.302   9.387  0.1539 -0.1046 -1.2768
   58SAPC   H9Y 4396   6.957   3.366   9.384  0.0528  1.9355 -3.4141
   58SAPC  C310 4397   6.804   3.480   9.273 -0.2595 -0.4021 -0.3936
   58SAPC  H10X 4398   6.839   3.582   9.300  1.5394 -0.6487 -1.6056
   58SAPC  H10Y 4399   6.694   3.470   9.285 -0.0598  0.2008  2.7788
   58SAPC  C311 4400   6.867   3.446   9.142 -0.1305 -0.2634  0.5700
   58SAPC  H11X 4401   6.830   3.348   9.104  1.0453 -0.2597 -0.6691
   58SAPC  H11Y 4402   6.976   3.435   9.163 -0.1811 -2.1652  0.0673
   58SAPC  C312 4403   6.839   3.544   9.025 -0.0137 -0.1662 -0.5937
   58SAPC  H12X 4404   6.883   3.506   8.931 -0.2512 -0.5002 -0.5731
   58SAPC  H12Y 4405   6.881   3.643   9.051 -0.7158  0.5695 -2.1168
   58SAPC  C313 4406   6.689   3.571   9.002 -0.5246 -0.9655  0.0734
   58SAPC  H13X 4407   6.646   3.619   9.092 -2.4653 -2.0836 -0.2142
   58SAPC  H13Y 4408   6.640   3.472   8.994 -2.1206 -0.2071  0.0251
   58SAPC  C314 4409   6.669   3.640   8.868 -0.8375  0.3493  0.2105
   58SAPC  H14X 4410   6.704   3.563   8.796 -0.1557 -0.2653  1.1693
   58SAPC  H14Y 4411   6.738   3.727   8.871 -1.0458  0.5183  0.1187
   58SAPC  C315 4412   6.529   3.696   8.833 -0.1801  0.2038  0.2980
   58SAPC  H15X 4413   6.504   3.766   8.915 -2.7634  0.1280 -0.3238
   58SAPC  H15Y 4414   6.457   3.612   8.839 -1.6646  1.5269  1.9586
   58SAPC  C316 4415   6.509   3.757   8.695  0.6827  0.3388  0.6538
   58SAPC  H16X 4416   6.503   3.672   8.625 -0.4877  0.2148  0.8740
   58SAPC  H16Y 4417   6.594   3.824   8.668  0.0869  1.5257  1.6003
   58SAPC  C317 4418   6.376   3.832   8.679 -0.9057 -1.1092 -0.3014
   58SAPC  H17X 4419   6.370   3.908   8.760 -1.3331 -1.9284  0.4495
   58SAPC  H17Y 4420   6.288   3.765   8.694  0.3306 -2.9052 -0.7295
   58SAPC  C318 4421   6.353   3.887   8.537 -0.7457  0.5848 -0.2378
   58SAPC  H18X 4422   6.430   3.962   8.507 -0.4930  0.6345  0.5134
   58SAPC  H18Y 4423   6.251   3.928   8.517 -0.9978 -0.4665 -1.1865
   58SAPC  H18Z 4424   6.364   3.800   8.469  1.3583  1.0943 -0.6425
   59SAPC     N 4425   6.075   4.982  11.155  0.0791  0.0164 -0.6450
   59SAPC   C12 4426   6.021   5.113  11.105  0.4962 -0.2097  0.1167
   59SAPC  H12A 4427   5.922   5.132  11.145  1.5866  2.1514  1.9461
   59SAPC  H12B 4428   6.005   5.110  10.998 -2.1087  0.1028  0.4394
   59SAPC   C13 4429   6.099   4.997  11.299  0.2031  0.2332  0.6103
   59SAPC  H13A 4430   6.162   5.082  11.321 -0.1040  0.4073  0.8216
   59SAPC  H13B 4431   6.005   5.015  11.350  0.4274  0.9248  0.7964
   59SAPC  H13C 4432   6.151   4.911  11.339  0.3027  0.3671  0.7723
   59SAPC   C14 4433   5.965   4.874  11.136  0.2852 -0.1823  0.3073
   59SAPC  H14A 4434   5.933   4.867  11.033  1.2082  0.5117 -0.0336
   59SAPC  H14B 4435   5.994   4.778  11.179  0.2780 -0.9875 -1.4019
   59SAPC  H14C 4436   5.878   4.897  11.196  1.5737 -3.1874  3.7999
   59SAPC   C15 4437   6.198   4.942  11.077 -0.2268 -0.6208  0.3636
   59SAPC  H15A 4438   6.227   4.847  11.119 -0.6936 -0.3722  1.2798
   59SAPC  H15B 4439   6.187   4.947  10.969 -0.0857 -1.3743  0.3085
   59SAPC  H15C 4440   6.269   5.018  11.105 -1.1337 -0.2173  1.6445
   59SAPC   C11 4441   6.105   5.235  11.128 -0.3450  0.0415 -0.1604
   59SAPC  H11A 4442   6.107   5.269  11.234  2.6101  0.4652 -0.2548
   59SAPC  H11B 4443   6.055   5.324  11.085  0.9345 -0.2056 -2.2795
   59SAPC     P 4444   6.277   5.274  10.938  0.0916  0.3262  0.1161
   59SAPC   O13 4445   6.319   5.416  10.924  0.7201  0.1223 -0.2880
   59SAPC   O14 4446   6.363   5.168  10.877  0.1286  0.4357 -0.7471
   59SAPC   O12 4447   6.239   5.233  11.082 -0.0591 -0.3177 -0.8145
   59SAPC   O11 4448   6.135   5.265  10.872  0.4332  0.0998  0.5325
   59SAPC    C1 4449   6.107   5.172  10.771 -0.2664  0.4496 -0.4919
   59SAPC    HA 4450   6.141   5.069  10.795  0.2303  0.0381 -2.7785
   59SAPC    HB 4451   5.996   5.168  10.761 -0.0410 -1.2813 -3.5124
   59SAPC    C2 4452   6.169   5.207  10.629  0.3167  0.2480 -0.4528
   59SAPC    HS 4453   6.280   5.206  10.641  0.1271  0.0681  1.8238
   59SAPC   O21 4454   6.122   5.336  10.594  0.0874  0.3158  0.2321
   59SAPC   C21 4455   6.208   5.431  10.558  0.8388  0.5485  0.8684
   59SAPC   O22 4456   6.328   5.414  10.554 -0.3747 -0.1258  0.1016
   59SAPC   C22 4457   6.124   5.549  10.504 -0.3931  0.1891  0.3802
   59SAPC   H2R 4458   6.080   5.613  10.584  0.6498  0.7351  0.5402
   59SAPC   H2S 4459   6.203   5.601  10.445  0.0898  0.5363  1.2959
   59SAPC    C3 4460   6.132   5.103  10.515 -0.6026 -0.0494  0.9165
   59SAPC    HX 4461   6.022   5.092  10.520 -0.9364  2.4627  0.5831
   59SAPC    HY 4462   6.170   5.002  10.539 -0.7943 -0.0838  1.0766
   59SAPC   O31 4463   6.164   5.154  10.379  0.0650 -0.5368  0.1230
   59SAPC   C31 4464   6.285   5.122  10.343 -0.3148 -0.6614  0.1501
   59SAPC   O32 4465   6.363   5.043  10.396  0.1102 -0.6218  0.3031
   59SAPC   C32 4466   6.320   5.191  10.213 -0.2750  0.0338  0.2488
   59SAPC   H2X 4467   6.429   5.172  10.199 -0.5689 -0.5016 -1.5312
   59SAPC   H2Y 4468   6.311   5.301  10.201  2.8068  0.2096 -1.5555
   59SAPC   C23 4469   6.023   5.513  10.391  0.0149 -0.2493 -0.4368
   59SAPC   H3R 4470   5.970   5.420  10.419 -0.8583  0.5852  0.8439
   59SAPC   H3S 4471   6.083   5.487  10.301  1.1801  1.2447 -0.1346
   59SAPC   C24 4472   5.916   5.609  10.360  0.0776 -0.0307 -0.1433
   59SAPC   H4R 4473   5.885   5.639  10.462 -0.3369  0.8880 -0.5227
   59SAPC   H4S 4474   5.829   5.560  10.310 -0.2527 -0.6700  1.0265
   59SAPC   C25 4475   5.965   5.736  10.283  0.1420  0.1171  0.0043
   59SAPC   H5R 4476   5.974   5.830  10.340  1.2206  0.8046 -1.2547
   59SAPC   C26 4477   6.000   5.740  10.153 -0.5458  1.3706  0.4399
   59SAPC   H6R 4478   6.044   5.831  10.109 -0.0013  1.1225  0.4641
   59SAPC   C27 4479   6.008   5.612  10.073  0.0725 -0.4789 -1.2300
   59SAPC   H7R 4480   5.961   5.525  10.123  5.3808 -2.4759  1.1042
   59SAPC   H7S 4481   6.116   5.584  10.070  0.6995  1.0024  2.1601
   59SAPC   C28 4482   5.963   5.635   9.933 -0.0139  0.4329  0.6145
   59SAPC   H8R 4483   5.862   5.679   9.930 -1.0539 -1.8350 -0.8021
   59SAPC   C29 4484   6.025   5.610   9.817 -0.3934  1.0011 -0.0100
   59SAPC   H9R 4485   5.972   5.653   9.731 -1.2057 -0.5235 -0.3148
   59SAPC  C210 4486   6.158   5.540   9.803  0.3280  0.5003  0.0110
   59SAPC  H10R 4487   6.172   5.447   9.863 -1.1603  0.5705  0.5002
   59SAPC  H10S 4488   6.233   5.613   9.841  1.5468  0.0886 -1.4894
   59SAPC  C211 4489   6.194   5.502   9.661 -0.2825 -0.3945  0.1621
   59SAPC  H11R 4490   6.109   5.477   9.595 -1.0386  0.3867  0.8189
   59SAPC  C212 4491   6.315   5.506   9.602  0.4164  0.0388 -0.2593
   59SAPC  H12R 4492   6.338   5.462   9.504 -2.7485 -1.7841 -0.3429
   59SAPC  C213 4493   6.436   5.555   9.662 -0.8582 -0.3660 -0.1556
   59SAPC  H13R 4494   6.414   5.624   9.746  0.3459 -0.3879  0.1960
   59SAPC  H13S 4495   6.494   5.610   9.585 -1.3280  0.9726  0.4149
   59SAPC  C214 4496   6.508   5.433   9.718  0.7582  0.5612  0.2346
   59SAPC  H14R 4497   6.489   5.336   9.670  1.1101  0.8427 -0.4773
   59SAPC  C215 4498   6.595   5.444   9.820 -0.5205  0.3709  0.3440
   59SAPC  H15R 4499   6.632   5.348   9.861 -3.2399 -0.2952  1.5227
   59SAPC  C216 4500   6.626   5.571   9.893 -0.3175  0.2284 -0.2086
   59SAPC  H16R 4501   6.581   5.659   9.841 -2.1249 -1.4730 -1.7192
   59SAPC  H16S 4502   6.735   5.593   9.889 -0.0518 -1.1039 -0.5319
   59SAPC  C217 4503   6.592   5.581  10.042  0.2873 -0.5060  0.1343
   59SAPC  H17R 4504   6.642   5.664  10.096  1.3945 -0.1555 -1.3583
   59SAPC  H17S 4505   6.628   5.493  10.100 -0.8610  0.1538  1.9521
   59SAPC  C218 4506   6.444   5.592  10.071  0.7773  0.6586 -0.3365
   59SAPC  H18R 4507   6.398   5.500  10.030 -0.5241  0.4214  1.4980
   59SAPC  H18S 4508   6.388   5.671  10.017  0.9771  0.7553 -0.4018
   59SAPC  C219 4509   6.397   5.611  10.217 -0.5327  0.1129 -0.6291
   59SAPC  H19R 4510   6.431   5.523  10.277  0.7331 -1.6964 -3.7815
   59SAPC  H19S 4511   6.286   5.600  10.217 -0.7387  1.9698 -0.6208
   59SAPC  C220 4512   6.444   5.742  10.288 -0.2002  0.5311 -0.1998
   59SAPC  H20R 4513   6.414   5.829  10.226 -1.2204  0.8993  0.7843
   59SAPC  H20S 4514   6.554   5.737  10.300 -0.1715  0.6223 -0.4226
   59SAPC  H20T 4515   6.395   5.749  10.387  0.0747 -1.0017  0.0696
   59SAPC   C33 4516   6.251   5.111  10.103  0.4034  0.5140  0.5072
   59SAPC   H3X 4517   6.141   5.117  10.114  0.4021  1.1220  0.2417
   59SAPC   H3Y 4518   6.288   5.007  10.113  1.1811  0.7508  0.2082
   59SAPC   C34 4519   6.300   5.165   9.964  0.5975  0.1796 -0.6961
   59SAPC   H4X 4520   6.410   5.174   9.952  0.6040  1.1658 -0.0552
   59SAPC   H4Y 4521   6.267   5.271   9.961 -1.8254 -0.4979  0.1481
   59SAPC   C35 4522   6.237   5.086   9.843 -0.3868  0.3752  0.2283
   59SAPC   H5X 4523   6.126   5.087   9.841 -0.3714  1.2778 -0.8968
   59SAPC   H5Y 4524   6.285   4.986   9.851  2.0896  1.4135 -0.5101
   59SAPC   C36 4525   6.288   5.132   9.708  0.3682  0.1647  0.4045
   59SAPC   H6X 4526   6.399   5.124   9.711  0.3574 -0.0781  0.2100
   59SAPC   H6Y 4527   6.259   5.238   9.695 -0.7888 -0.4319 -2.6937
   59SAPC   C37 4528   6.242   5.050   9.585 -0.2361 -0.2558 -0.8679
   59SAPC   H7X 4529   6.135   5.078   9.584 -0.0566  0.4618 -0.6646
   59SAPC   H7Y 4530   6.263   4.941   9.594  1.7128  0.0360 -1.3340
   59SAPC   C38 4531   6.287   5.126   9.461 -0.1890  0.8484  0.0742
   59SAPC   H8X 4532   6.397   5.112   9.449 -0.5790 -1.4958 -1.4172
   59SAPC   H8Y 4533   6.257   5.231   9.481 -1.4436  0.9858 -2.1775
   59SAPC   C39 4534   6.220   5.061   9.340  0.3835 -0.2699 -0.1160
   59SAPC   H9X 4535   6.213   5.144   9.267  0.5689  1.5452  1.8096
   59SAPC   H9Y 4536   6.117   5.035   9.372  0.8756 -0.8294  1.1252
   59SAPC  C310 4537   6.306   4.943   9.295  0.3880 -0.3004  0.5029
   59SAPC  H10X 4538   6.305   4.867   9.377 -0.3591  0.7046  1.4495
   59SAPC  H10Y 4539   6.409   4.979   9.276  0.6747 -0.8398  0.9862
   59SAPC  C311 4540   6.251   4.868   9.165  0.1855 -0.1895  0.2143
   59SAPC  H11X 4541   6.140   4.874   9.170  0.1244 -1.3835  0.5026
   59SAPC  H11Y 4542   6.284   4.763   9.175 -1.1401 -0.6753 -0.3537
   59SAPC  C312 4543   6.302   4.939   9.035  0.1468 -0.7281  0.3224
   59SAPC  H12X 4544   6.406   4.900   9.024  0.4725  0.6056 -2.0616
   59SAPC  H12Y 4545   6.298   5.049   9.051  0.1748 -0.5947 -0.5503
   59SAPC  C313 4546   6.229   4.890   8.908  0.0584 -0.0462  0.3905
   59SAPC  H13X 4547   6.121   4.908   8.925  0.6518  0.7951  3.8547
   59SAPC  H13Y 4548   6.235   4.779   8.904 -0.8389 -0.1793  1.8785
   59SAPC  C314 4549   6.279   4.954   8.784 -0.6292 -0.7696 -0.5356
   59SAPC  H14X 4550   6.273   4.892   8.692  0.4448  1.4544 -2.2027
   59SAPC  H14Y 4551   6.389   4.967   8.791 -0.6892  0.2741 -1.2679
   59SAPC  C315 4552   6.230   5.092   8.763 -0.2676  0.6099  0.0338
   59SAPC  H15X 4553   6.273   5.149   8.848  0.9602 -2.6850  1.8194
   59SAPC  H15Y 4554   6.121   5.084   8.783 -0.6469  2.1112 -1.2633
   59SAPC  C316 4555   6.266   5.152   8.629  0.0734  0.5889 -0.4116
   59SAPC  H16X 4556   6.212   5.096   8.550  2.1147 -1.0177 -0.7575
   59SAPC  H16Y 4557   6.371   5.153   8.592 -0.7532  0.1125 -2.9594
   59SAPC  C317 4558   6.198   5.289   8.624  0.1314 -0.2806 -0.4551
   59SAPC  H17X 4559   6.234   5.357   8.705  0.3661  0.5278 -1.2201
   59SAPC  H17Y 4560   6.091   5.268   8.643  0.9529 -0.9096  5.6443
   59SAPC  C318 4561   6.225   5.361   8.492  0.4830  0.3637  0.4479
   59SAPC  H18X 4562   6.186   5.295   8.412  0.6866 -0.1308  0.7478
   59SAPC  H18Y 4563   6.330   5.380   8.463  0.0559  1.3544 -0.5599
   59SAPC  H18Z 4564   6.170   5.458   8.487  1.3746  0.9059  0.8919
   60SAPC     N 4565   3.232   3.734  11.189 -0.0405  0.3405  0.6336
   60SAPC   C12 4566   3.200   3.860  11.106  0.1468 -0.5331 -0.2849
   60SAPC  H12A 4567   3.208   3.943  11.175  1.5978 -0.1529 -0.8774
   60SAPC  H12B 4568   3.096   3.869  11.078 -0.7034 -0.0100  2.6494
   60SAPC   C13 4569   3.108   3.674  11.258 -0.2220 -0.1442 -0.0978
   60SAPC  H13A 4570   3.125   3.590  11.324 -2.8124  0.0671  0.9553
   60SAPC  H13B 4571   3.065   3.747  11.325  1.4280 -1.9613  3.2056
   60SAPC  H13C 4572   3.032   3.637  11.190 -0.9172  2.7867 -1.0713
   60SAPC   C14 4573   3.284   3.625  11.109  0.5727 -0.2393  0.0749
   60SAPC  H14A 4574   3.212   3.580  11.043 -0.9937  1.0020  0.8845
   60SAPC  H14B 4575   3.354   3.672  11.042 -0.8983  0.5350 -0.9779
   60SAPC  H14C 4576   3.332   3.543  11.162 -1.3346 -0.9081  0.8444
   60SAPC   C15 4577   3.331   3.784  11.294 -0.3043  0.1445  0.0883
   60SAPC  H15A 4578   3.363   3.711  11.367 -3.3800 -2.9481 -1.3529
   60SAPC  H15B 4579   3.409   3.828  11.234  0.9073 -1.6980  0.2315
   60SAPC  H15C 4580   3.278   3.860  11.349  0.9278  0.8162  0.3935
   60SAPC   C11 4581   3.289   3.889  10.984 -0.4734  0.0004  0.2500
   60SAPC  H11A 4582   3.394   3.886  11.018  0.4546  0.5112 -2.3221
   60SAPC  H11B 4583   3.265   3.991  10.950 -0.4212 -0.0367  0.1030
   60SAPC     P 4584   3.364   3.751  10.772 -0.4940  0.0179  0.2117
   60SAPC   O13 4585   3.474   3.683  10.839  0.4499  0.4834 -0.3939
   60SAPC   O14 4586   3.301   3.672  10.662  0.6422 -0.3030  0.0708
   60SAPC   O12 4587   3.254   3.798  10.878 -0.4939  0.3246 -0.5159
   60SAPC   O11 4588   3.416   3.882  10.709 -0.1758  0.4400 -0.5640
   60SAPC    C1 4589   3.317   3.969  10.652  0.0601 -0.2186 -0.2319
   60SAPC    HA 4590   3.219   3.922  10.632  0.2819 -2.3300  3.0073
   60SAPC    HB 4591   3.303   4.061  10.714  1.8076 -0.3892  0.4721
   60SAPC    C2 4592   3.374   4.008  10.509  0.5233 -0.2499  0.0761
   60SAPC    HS 4593   3.298   4.075  10.465  0.3297 -0.0773  0.6676
   60SAPC   O21 4594   3.399   3.890  10.427 -0.4117 -0.0519 -0.4382
   60SAPC   C21 4595   3.286   3.833  10.395  0.7677  0.0205  0.5990
   60SAPC   O22 4596   3.174   3.874  10.410 -0.0773  0.3407  0.1586
   60SAPC   C22 4597   3.331   3.700  10.312  0.6483 -1.1099 -0.1212
   60SAPC   H2R 4598   3.404   3.640  10.370  1.2639  1.5333  2.0246
   60SAPC   H2S 4599   3.237   3.643  10.293  0.0626 -0.9365  1.9766
   60SAPC    C3 4600   3.499   4.100  10.516 -0.1014 -0.8600 -0.2490
   60SAPC    HX 4601   3.584   4.034  10.541 -1.4644 -1.5958  2.8721
   60SAPC    HY 4602   3.481   4.167  10.603  0.8310 -0.6478 -0.2041
   60SAPC   O31 4603   3.512   4.178  10.394 -0.0263  0.4976 -0.0345
   60SAPC   C31 4604   3.614   4.155  10.314  0.2590  0.3650 -0.0026
   60SAPC   O32 4605   3.703   4.078  10.326  0.3901  0.4966 -0.1027
   60SAPC   C32 4606   3.614   4.247  10.196 -0.0675 -0.2442 -1.0159
   60SAPC   H2X 4607   3.706   4.304  10.220  0.4818 -0.8141 -1.7009
   60SAPC   H2Y 4608   3.523   4.310  10.207 -0.6240 -1.4991  5.1805
   60SAPC   C23 4609   3.395   3.727  10.174  0.0362  0.4279  1.2761
   60SAPC   H3R 4610   3.334   3.813  10.139 -1.4636 -1.3773 -0.8425
   60SAPC   H3S 4611   3.351   3.651  10.105  2.0559  0.2798  0.0867
   60SAPC   C24 4612   3.539   3.739  10.161 -0.5473 -0.5039 -0.2818
   60SAPC   H4R 4613   3.583   3.816  10.227  1.6217 -2.3292  0.5601
   60SAPC   H4S 4614   3.548   3.772  10.055 -3.1883  1.1179 -0.0824
   60SAPC   C25 4615   3.616   3.611  10.180  0.1532  0.3611 -0.3898
   60SAPC   H5R 4616   3.572   3.554  10.263 -2.7911 -0.7356 -2.4940
   60SAPC   C26 4617   3.720   3.572  10.110 -0.0137  0.6563  0.1099
   60SAPC   H6R 4618   3.768   3.478  10.141  1.7059  0.1094 -3.6113
   60SAPC   C27 4619   3.780   3.640   9.989 -0.0091 -0.1975  0.1793
   60SAPC   H7R 4620   3.864   3.577   9.951 -1.8267 -0.9783 -2.9159
   60SAPC   H7S 4621   3.819   3.743  10.007 -0.6519 -0.2061  1.7216
   60SAPC   C28 4622   3.694   3.635   9.868  0.2794  0.1181  0.1553
   60SAPC   H8R 4623   3.597   3.587   9.886  1.3119 -1.8427  0.6918
   60SAPC   C29 4624   3.712   3.700   9.752 -0.3554 -0.6252  0.1262
   60SAPC   H9R 4625   3.645   3.690   9.665  1.3841 -0.2347 -1.3215
   60SAPC  C210 4626   3.838   3.783   9.720 -0.1444  1.3391 -0.0513
   60SAPC  H10R 4627   3.867   3.777   9.613  0.6338  1.2115  0.1635
   60SAPC  H10S 4628   3.924   3.735   9.772 -2.1163 -1.0768  1.2511
   60SAPC  C211 4629   3.830   3.927   9.759 -0.7988 -0.6065 -0.8523
   60SAPC  H11R 4630   3.729   3.961   9.788 -0.7378 -2.1455  1.4768
   60SAPC  C212 4631   3.930   4.018   9.749 -0.3459 -0.0159  0.2267
   60SAPC  H12R 4632   3.906   4.115   9.795 -3.7610 -1.0631  0.9300
   60SAPC  C213 4633   4.071   3.988   9.697 -0.0806  0.6856 -0.0721
   60SAPC  H13R 4634   4.083   3.883   9.662  0.3023  0.1104  1.6801
   60SAPC  H13S 4635   4.137   3.990   9.786 -0.1917 -1.9162  0.1352
   60SAPC  C214 4636   4.127   4.083   9.599  0.0933  0.5853  0.2401
   60SAPC  H14R 4637   4.199   4.158   9.635 -2.0008  2.0277  1.6362
   60SAPC  C215 4638   4.081   4.096   9.475  0.3589  1.2747 -0.0380
   60SAPC  H15R 4639   4.145   4.154   9.407 -0.8325  0.4621 -1.9344
   60SAPC  C216 4640   3.955   4.043   9.414 -0.2772 -0.3496  0.5420
   60SAPC  H16R 4641   3.868   4.104   9.445 -1.7465 -1.2960 -1.4461
   60SAPC  H16S 4642   3.937   3.936   9.441  0.0844 -0.3817  0.6622
   60SAPC  C217 4643   3.947   4.030   9.260  0.0971 -0.2370 -0.7181
   60SAPC  H17R 4644   3.853   3.973   9.244 -2.0516  2.7662  0.1659
   60SAPC  H17S 4645   4.038   3.981   9.220  1.3864  0.2811  1.4223
   60SAPC  C218 4646   3.946   4.160   9.182  0.1162 -0.8876 -0.4883
   60SAPC  H18R 4647   4.049   4.200   9.192  0.4284 -2.0624  1.4507
   60SAPC  H18S 4648   3.878   4.227   9.239  0.9828  0.5189 -1.0424
   60SAPC  C219 4649   3.888   4.152   9.049  0.0482 -0.3862 -0.4604
   60SAPC  H19R 4650   3.873   4.255   9.012  1.1125  0.6668  1.8996
   60SAPC  H19S 4651   3.792   4.097   9.063 -0.1255  0.2563  0.9360
   60SAPC  C220 4652   3.970   4.062   8.956  0.0025 -0.3013 -0.0010
   60SAPC  H20R 4653   4.069   4.108   8.932 -1.1038  1.3324 -1.6738
   60SAPC  H20S 4654   3.921   4.035   8.860  0.9785 -1.0695 -0.3073
   60SAPC  H20T 4655   3.985   3.957   8.989  1.2349 -0.5534 -1.2475
   60SAPC   C33 4656   3.626   4.193  10.056  0.4839 -0.1817 -0.1989
   60SAPC   H3X 4657   3.714   4.125  10.048  0.4477 -0.2212 -0.2605
   60SAPC   H3Y 4658   3.645   4.280   9.989  0.7539 -0.7216 -0.8405
   60SAPC   C34 4659   3.487   4.117  10.028 -0.3119 -0.4673  0.8515
   60SAPC   H4X 4660   3.403   4.174  10.072 -0.2667  0.6403 -0.4353
   60SAPC   H4Y 4661   3.489   4.021  10.085  0.7812  0.0100  1.6575
   60SAPC   C35 4662   3.452   4.091   9.886 -0.8602 -0.1862  1.0654
   60SAPC   H5X 4663   3.536   4.030   9.848 -0.6811 -0.6937  2.2460
   60SAPC   H5Y 4664   3.443   4.189   9.833 -2.1366 -0.7081  0.2518
   60SAPC   C36 4665   3.322   4.009   9.864  0.0263  0.1357  0.2995
   60SAPC   H6X 4666   3.240   4.065   9.915  1.8924  1.8681  1.5981
   60SAPC   H6Y 4667   3.330   3.905   9.900 -0.9899 -0.2435 -0.5178
   60SAPC   C37 4668   3.277   3.998   9.710  0.8589  0.4489  0.5997
   60SAPC   H7X 4669   3.272   4.102   9.673 -1.4728 -0.0736 -0.7434
   60SAPC   H7Y 4670   3.169   3.976   9.705  0.3886  2.2118  2.0610
   60SAPC   C38 4671   3.353   3.904   9.618 -0.0258 -0.0408  0.3189
   60SAPC   H8X 4672   3.384   3.811   9.670  1.3895  1.4806  2.3708
   60SAPC   H8Y 4673   3.453   3.951   9.608 -1.1703  2.3491 -0.7230
   60SAPC   C39 4674   3.301   3.883   9.469  0.2545  0.3112 -0.2332
   60SAPC   H9X 4675   3.307   3.985   9.423 -3.9760  0.4595 -0.9197
   60SAPC   H9Y 4676   3.193   3.859   9.485  0.5280 -0.2129  0.8941
   60SAPC  C310 4677   3.378   3.777   9.391  0.2622  0.1850  0.1435
   60SAPC  H10X 4678   3.315   3.760   9.301 -0.9547  0.0593  0.9953
   60SAPC  H10Y 4679   3.390   3.683   9.450  3.1664  1.5284  1.9686
   60SAPC  C311 4680   3.514   3.822   9.341 -0.2054 -0.0277 -0.6874
   60SAPC  H11X 4681   3.578   3.873   9.416  0.8434 -1.2197 -0.7353
   60SAPC  H11Y 4682   3.495   3.903   9.267 -0.3271 -0.0669 -0.6991
   60SAPC  C312 4683   3.596   3.717   9.260 -0.0318  0.0647  0.0158
   60SAPC  H12X 4684   3.607   3.620   9.314 -3.0750  0.0059  0.7068
   60SAPC  H12Y 4685   3.698   3.760   9.249 -0.0347 -0.1673 -1.0148
   60SAPC  C313 4686   3.547   3.672   9.121 -0.0678 -0.1340  0.3140
   60SAPC  H13X 4687   3.438   3.651   9.119 -0.2724  0.6398  1.6976
   60SAPC  H13Y 4688   3.601   3.584   9.080  0.9484  0.7721 -0.3725
   60SAPC  C314 4689   3.577   3.778   9.009  0.4019 -0.3134 -0.3208
   60SAPC  H14X 4690   3.679   3.819   9.028  0.4348 -0.7461  0.5138
   60SAPC  H14Y 4691   3.510   3.862   9.037 -0.4977 -1.3794  0.8625
   60SAPC  C315 4692   3.562   3.725   8.865 -0.2758 -0.3315  0.1477
   60SAPC  H15X 4693   3.464   3.673   8.856 -0.0361 -0.8808  0.6596
   60SAPC  H15Y 4694   3.636   3.645   8.848  1.0671  1.2003 -1.5932
   60SAPC  C316 4695   3.592   3.830   8.752 -0.0932  0.0229 -0.3937
   60SAPC  H16X 4696   3.602   3.782   8.652  0.5840 -0.3422 -0.1610
   60SAPC  H16Y 4697   3.693   3.871   8.772  0.6984 -0.2849 -3.3255
   60SAPC  C317 4698   3.489   3.940   8.728 -0.0580  0.0248  0.8142
   60SAPC  H17X 4699   3.531   4.031   8.679 -0.6716  1.3543  2.6271
   60SAPC  H17Y 4700   3.443   3.962   8.827 -3.3810 -0.6901 -0.4313
   60SAPC  C318 4701   3.355   3.900   8.649  0.5890  0.0744 -0.6795
   60SAPC  H18X 4702   3.373   3.879   8.541 -0.1215 -1.8911 -0.4631
   60SAPC  H18Y 4703   3.277   3.978   8.656  0.7906  0.2509 -0.3729
   60SAPC  H18Z 4704   3.317   3.806   8.695 -0.5820  1.1202  0.5728
   61SAPC     N 4705   1.967   1.571  10.809  0.8121  0.2690  0.1617
   61SAPC   C12 4706   2.087   1.543  10.724  0.3982  0.1983  0.0353
   61SAPC  H12A 4707   2.166   1.505  10.787 -1.6527 -2.9928  0.8965
   61SAPC  H12B 4708   2.118   1.634  10.676 -2.4838  0.5441 -1.3966
   61SAPC   C13 4709   2.013   1.653  10.925  0.9386  0.1801 -0.8996
   61SAPC  H13A 4710   2.069   1.742  10.901  1.7146  0.1149  0.5290
   61SAPC  H13B 4711   1.928   1.677  10.988  1.9960 -0.7093  0.9573
   61SAPC  H13C 4712   2.084   1.598  10.986  0.1482  1.0292  0.8794
   61SAPC   C14 4713   1.869   1.662  10.737 -0.2558  0.3839  0.1703
   61SAPC  H14A 4714   1.919   1.743  10.685 -0.1348 -0.2831 -0.7774
   61SAPC  H14B 4715   1.814   1.614  10.658 -1.2066  4.8926 -2.2672
   61SAPC  H14C 4716   1.795   1.693  10.810 -0.1739  0.6968  0.1240
   61SAPC   C15 4717   1.899   1.452  10.865 -0.0830  0.0469  0.0916
   61SAPC  H15A 4718   1.956   1.404  10.943  1.6099 -0.6621 -1.5025
   61SAPC  H15B 4719   1.806   1.477  10.913  0.6541  1.4404  0.8431
   61SAPC  H15C 4720   1.874   1.371  10.797  0.2742 -1.4891  1.7228
   61SAPC   C11 4721   2.059   1.446  10.610  0.4561  0.7160 -0.4682
   61SAPC  H11A 4722   2.143   1.467  10.540 -0.5130  1.2255 -1.5055
   61SAPC  H11B 4723   1.962   1.479  10.567  0.6022  1.7718 -0.0094
   61SAPC     P 4724   2.147   1.218  10.715 -0.3631 -0.1211  0.1667
   61SAPC   O13 4725   2.253   1.298  10.785 -0.3515 -0.3216 -0.0407
   61SAPC   O14 4726   2.078   1.114  10.796  0.2109 -0.7868 -0.7628
   61SAPC   O12 4727   2.039   1.314  10.651 -0.4207  0.2361 -0.2413
   61SAPC   O11 4728   2.211   1.157  10.584 -0.4483  0.5271 -0.5589
   61SAPC    C1 4729   2.141   1.086  10.489 -0.3770 -0.4186  0.8314
   61SAPC    HA 4730   2.093   0.993  10.527 -1.4979 -0.3253 -0.3016
   61SAPC    HB 4731   2.061   1.150  10.446  0.4632  0.1247  0.0539
   61SAPC    C2 4732   2.236   1.063  10.365  0.0164  0.6449 -0.2308
   61SAPC    HS 4733   2.171   1.061  10.275  0.6624  1.3192 -0.7195
   61SAPC   O21 4734   2.304   0.937  10.372 -0.2253 -0.0636  0.2273
   61SAPC   C21 4735   2.241   0.827  10.334  0.3516 -0.0251  0.7919
   61SAPC   O22 4736   2.121   0.815  10.306 -0.2232 -0.7523  0.2240
   61SAPC   C22 4737   2.341   0.715  10.331 -0.3763  0.3073 -0.5400
   61SAPC   H2R 4738   2.445   0.748  10.349  0.3221 -3.0394  3.1405
   61SAPC   H2S 4739   2.322   0.665  10.429 -1.7000  1.2003 -0.3083
   61SAPC    C3 4740   2.328   1.182  10.347  0.3067 -0.2007 -1.0478
   61SAPC    HX 4741   2.392   1.190  10.438 -0.5294 -3.1987 -0.0869
   61SAPC    HY 4742   2.269   1.276  10.347 -0.3972 -0.6353 -1.1666
   61SAPC   O31 4743   2.410   1.165  10.237 -0.1963 -0.4518  0.4610
   61SAPC   C31 4744   2.365   1.214  10.126  0.0505  1.2300  0.0678
   61SAPC   O32 4745   2.258   1.270  10.108  0.4355  0.4281  0.8441
   61SAPC   C32 4746   2.461   1.177  10.016 -0.1718 -0.9770 -0.4883
   61SAPC   H2X 4747   2.469   1.066  10.012  1.0790 -0.8664 -1.8975
   61SAPC   H2Y 4748   2.561   1.220  10.040  0.0173 -0.3497 -2.2562
   61SAPC   C23 4749   2.320   0.605  10.222  0.3548 -0.0883  0.4501
   61SAPC   H3R 4750   2.220   0.561  10.245 -0.5292  1.2304 -0.7262
   61SAPC   H3S 4751   2.393   0.522  10.235 -1.9370 -2.2546  0.5001
   61SAPC   C24 4752   2.322   0.664  10.081  0.2487 -0.5065  0.4223
   61SAPC   H4R 4753   2.250   0.747  10.068  0.2794 -0.4945  0.3283
   61SAPC   H4S 4754   2.310   0.577  10.013  1.9236  0.2514 -0.9275
   61SAPC   C25 4755   2.459   0.728  10.048 -0.0686  0.2572  0.1358
   61SAPC   H5R 4756   2.498   0.801  10.121  1.1423  0.5516 -0.7768
   61SAPC   C26 4757   2.536   0.704   9.937 -0.8026  0.1186 -0.1014
   61SAPC   H6R 4758   2.633   0.757   9.937 -0.6298 -0.1855  0.4296
   61SAPC   C27 4759   2.504   0.611   9.820  0.2476 -0.0042 -0.0150
   61SAPC   H7R 4760   2.561   0.654   9.735  4.2347 -1.7895  1.5009
   61SAPC   H7S 4761   2.395   0.600   9.800  0.6825 -4.5817 -0.8691
   61SAPC   C28 4762   2.544   0.470   9.832  0.5431  0.5807 -0.2650
   61SAPC   H8R 4763   2.565   0.428   9.931  1.8208  0.9326 -0.3645
   61SAPC   C29 4764   2.533   0.384   9.730  0.3296 -0.3321  0.3792
   61SAPC   H9R 4765   2.562   0.278   9.734 -0.1005 -0.4208  1.7160
   61SAPC  C210 4766   2.495   0.429   9.591  0.2954 -0.0591  0.2620
   61SAPC  H10R 4767   2.417   0.508   9.590  1.2839  0.9918 -2.4330
   61SAPC  H10S 4768   2.457   0.341   9.535 -0.0495  0.5245 -0.4244
   61SAPC  C211 4769   2.615   0.474   9.510 -0.2564  0.8327 -0.1432
   61SAPC  H11R 4770   2.693   0.535   9.558  1.1571 -1.3498  0.5456
   61SAPC  C212 4771   2.640   0.444   9.381 -0.1987 -0.6868  0.1300
   61SAPC  H12R 4772   2.726   0.489   9.328 -0.9809 -1.6673 -2.1065
   61SAPC  C213 4773   2.550   0.360   9.286  0.6319 -0.0119  0.1715
   61SAPC  H13R 4774   2.468   0.315   9.345  2.4637 -2.2953  1.1394
   61SAPC  H13S 4775   2.607   0.267   9.266 -0.0055 -0.7781  1.7211
   61SAPC  C214 4776   2.510   0.427   9.160 -0.2590 -0.3417 -0.2996
   61SAPC  H14R 4777   2.509   0.536   9.171  0.5378 -0.3982  0.4667
   61SAPC  C215 4778   2.490   0.367   9.042  0.2899  0.1745  0.8237
   61SAPC  H15R 4779   2.468   0.416   8.946  1.4431 -0.7937  0.0317
   61SAPC  C216 4780   2.492   0.223   9.016  0.3950  0.1977  0.3540
   61SAPC  H16R 4781   2.412   0.194   8.944  0.6489 -2.9162  1.1790
   61SAPC  H16S 4782   2.472   0.165   9.108  1.2760 -1.1195 -0.2561
   61SAPC  C217 4783   2.622   0.182   8.945  0.1010  0.5660  0.6460
   61SAPC  H17R 4784   2.607   0.079   8.907  1.1531  0.8535 -0.6089
   61SAPC  H17S 4785   2.708   0.179   9.015  0.6806 -0.0018 -0.0790
   61SAPC  C218 4786   2.670   0.261   8.815 -0.0494 -0.3225  0.4214
   61SAPC  H18R 4787   2.729   0.344   8.859  2.1108 -2.4081  1.6709
   61SAPC  H18S 4788   2.586   0.304   8.757 -0.2079 -0.1230  0.7930
   61SAPC  C219 4789   2.767   0.182   8.730 -0.3913 -0.3456  0.7373
   61SAPC  H19R 4790   2.716   0.087   8.704 -0.7666  0.4420 -1.6879
   61SAPC  H19S 4791   2.853   0.157   8.797  0.3322 -1.1606 -0.4583
   61SAPC  C220 4792   2.806   0.250   8.598  0.6281  0.1236 -0.6600
   61SAPC  H20R 4793   2.887   0.194   8.547  0.5901 -1.1814  0.6449
   61SAPC  H20S 4794   2.825   0.358   8.617  1.3339 -0.3541  1.7142
   61SAPC  H20T 4795   2.715   0.245   8.535 -1.0252  2.2204  1.3488
   61SAPC   C33 4796   2.413   1.229   9.871  0.5356 -0.0371  0.8485
   61SAPC   H3X 4797   2.392   1.337   9.890 -1.8689 -0.4894  1.0295
   61SAPC   H3Y 4798   2.319   1.189   9.827  0.9402  0.5778 -0.6383
   61SAPC   C34 4799   2.526   1.215   9.766 -0.3840  1.2104  0.1139
   61SAPC   H4X 4800   2.628   1.241   9.801  0.4148 -0.4279 -0.8707
   61SAPC   H4Y 4801   2.510   1.282   9.679  0.0089  0.4671 -0.5338
   61SAPC   C35 4802   2.534   1.072   9.706  0.3997  0.4427  0.0491
   61SAPC   H5X 4803   2.429   1.051   9.677 -0.2499  2.0127  1.1020
   61SAPC   H5Y 4804   2.561   1.011   9.794 -0.7975  1.5052  1.2028
   61SAPC   C36 4805   2.627   1.064   9.588  0.4921 -0.1578  1.2831
   61SAPC   H6X 4806   2.730   1.086   9.624 -0.5836  3.1037  2.7952
   61SAPC   H6Y 4807   2.583   1.135   9.514  1.9343 -0.8630 -0.3133
   61SAPC   C37 4808   2.624   0.927   9.513 -0.0909 -0.9508  0.1675
   61SAPC   H7X 4809   2.521   0.883   9.515  0.2263 -1.7981 -1.1566
   61SAPC   H7Y 4810   2.692   0.847   9.549 -0.7715 -1.5874  0.0646
   61SAPC   C38 4811   2.668   0.944   9.365 -0.2222 -0.1530  0.4600
   61SAPC   H8X 4812   2.776   0.970   9.369 -0.5642  1.2682  3.3624
   61SAPC   H8Y 4813   2.622   1.024   9.304 -1.5536 -0.0768  1.5253
   61SAPC   C39 4814   2.676   0.815   9.285 -0.1723  0.2492  0.3721
   61SAPC   H9X 4815   2.577   0.773   9.257 -0.1561  0.3379  0.1812
   61SAPC   H9Y 4816   2.732   0.743   9.348  2.6970  0.7835 -1.3731
   61SAPC  C310 4817   2.755   0.828   9.153 -0.2413 -1.0535  0.1528
   61SAPC  H10X 4818   2.865   0.827   9.164 -0.0867 -2.1471 -1.1327
   61SAPC  H10Y 4819   2.713   0.913   9.095 -0.1210 -0.6394  0.6661
   61SAPC  C311 4820   2.731   0.702   9.061 -0.1613 -0.1342  0.3949
   61SAPC  H11X 4821   2.625   0.714   9.031 -0.9093 -1.2837  2.3625
   61SAPC  H11Y 4822   2.726   0.609   9.121 -2.6329  0.6116  1.4517
   61SAPC  C312 4823   2.825   0.691   8.941  0.2251 -0.2244  0.8102
   61SAPC  H12X 4824   2.784   0.612   8.876 -0.1194 -0.7747  1.6698
   61SAPC  H12Y 4825   2.927   0.663   8.974  0.1093 -1.2450  0.3304
   61SAPC  C313 4826   2.846   0.824   8.861  0.2353  0.5534  0.1283
   61SAPC  H13X 4827   2.911   0.803   8.774  0.0637  0.2902  0.0640
   61SAPC  H13Y 4828   2.900   0.895   8.928  0.1031  0.8567 -0.0813
   61SAPC  C314 4829   2.713   0.884   8.795 -0.3090 -0.1398 -0.9093
   61SAPC  H14X 4830   2.651   0.946   8.862  1.2967  0.5414  0.0051
   61SAPC  H14Y 4831   2.662   0.796   8.750 -0.4733  0.5113 -2.0624
   61SAPC  C315 4832   2.757   0.976   8.672 -0.6221 -0.1222  0.1296
   61SAPC  H15X 4833   2.841   0.920   8.626  1.1534 -0.2968  3.3105
   61SAPC  H15Y 4834   2.802   1.073   8.704  1.8761 -1.0699 -0.3103
   61SAPC  C316 4835   2.629   0.999   8.583 -0.2397  0.3730 -0.4089
   61SAPC  H16X 4836   2.541   1.016   8.647 -0.5434 -1.5234 -0.2733
   61SAPC  H16Y 4837   2.613   0.893   8.552  2.4704 -0.2183 -0.0727
   61SAPC  C317 4838   2.623   1.092   8.466 -0.2792 -0.4556  0.4447
   61SAPC  H17X 4839   2.689   1.047   8.390 -0.4119 -1.4128  0.8844
   61SAPC  H17Y 4840   2.666   1.188   8.501 -0.2506 -1.3770  3.2272
   61SAPC  C318 4841   2.482   1.100   8.406  0.1540 -0.3067 -0.0701
   61SAPC  H18X 4842   2.469   1.204   8.370  0.1676 -0.7846 -1.4968
   61SAPC  H18Y 4843   2.406   1.090   8.487  1.5563 -2.4576  1.0756
   61SAPC  H18Z 4844   2.469   1.016   8.335  1.8988 -2.4917  2.0254
   62SAPC     N 4845   2.152   0.575  10.982 -1.0148  0.2400  0.2109
   62SAPC   C12 4846   2.183   0.432  10.931 -0.9103  0.6086  0.1367
   62SAPC  H12A 4847   2.212   0.377  11.019  0.7221  2.2734  0.7044
   62SAPC  H12B 4848   2.265   0.435  10.861 -1.0278 -1.5858 -0.1674
   62SAPC   C13 4849   2.041   0.572  11.079 -0.0485 -0.0456  0.0733
   62SAPC  H13A 4850   2.035   0.666  11.132 -0.0148  0.0633 -0.1153
   62SAPC  H13B 4851   1.950   0.543  11.029  0.9938  0.5084 -2.2689
   62SAPC  H13C 4852   2.061   0.494  11.151 -0.8746 -0.6916 -0.3829
   62SAPC   C14 4853   2.279   0.625  11.055  0.0125 -0.5796 -0.2552
   62SAPC  H14A 4854   2.369   0.614  10.997  2.1123 -1.6922  2.8945
   62SAPC  H14B 4855   2.269   0.729  11.080 -0.5647 -0.6035 -0.3771
   62SAPC  H14C 4856   2.290   0.562  11.143 -1.2970  1.1824  1.2520
   62SAPC   C15 4857   2.122   0.674  10.877  0.2093  0.3614  0.4864
   62SAPC  H15A 4858   2.035   0.644  10.821 -0.0619  3.1013 -0.7169
   62SAPC  H15B 4859   2.099   0.767  10.927  0.3419 -0.0279  1.2898
   62SAPC  H15C 4860   2.198   0.685  10.801 -1.0152  2.0994 -0.5648
   62SAPC   C11 4861   2.066   0.355  10.858  0.0038 -0.0110 -0.6082
   62SAPC  H11A 4862   1.987   0.336  10.933  0.2599  1.9060  0.1936
   62SAPC  H11B 4863   2.114   0.259  10.829 -0.0445  0.1524 -1.2516
   62SAPC     P 4864   2.068   0.439  10.608  0.2489 -0.3179 -0.2712
   62SAPC   O13 4865   1.985   0.526  10.518 -0.0010 -0.9719 -0.0133
   62SAPC   O14 4866   2.209   0.473  10.624 -0.1030  0.0392 -0.0663
   62SAPC   O12 4867   2.004   0.435  10.751 -0.2701  0.2500 -0.7287
   62SAPC   O11 4868   2.055   0.291  10.566  0.1407  0.3958  0.1800
   62SAPC    C1 4869   1.925   0.231  10.542 -0.0610 -0.3828 -0.0727
   62SAPC    HA 4870   1.908   0.150  10.617 -3.4124 -2.1497 -2.4861
   62SAPC    HB 4871   1.842   0.304  10.550  1.0588  0.8274  0.7734
   62SAPC    C2 4872   1.920   0.153  10.405 -0.0970 -0.1781  0.1393
   62SAPC    HS 4873   1.990   0.068  10.417  1.4476  1.1735  1.0241
   62SAPC   O21 4874   1.961   0.250  10.307 -0.4904 -0.4557  0.2261
   62SAPC   C21 4875   2.053   0.203  10.221  0.0947 -0.3305 -0.2237
   62SAPC   O22 4876   2.091   0.086  10.214  0.3788 -0.2285  0.8842
   62SAPC   C22 4877   2.110   0.313  10.132 -0.1829  0.1821  0.2332
   62SAPC   H2R 4878   2.077   0.412  10.170 -1.2583  0.0886 -0.4328
   62SAPC   H2S 4879   2.221   0.310  10.134  0.0904  1.1296 -4.2893
   62SAPC    C3 4880   1.773   0.100  10.377  0.5655 -0.5946 -0.7765
   62SAPC    HX 4881   1.693   0.177  10.382  1.1273 -0.0398  0.0678
   62SAPC    HY 4882   1.738   0.027  10.452 -2.3785  0.4239 -1.0459
   62SAPC   O31 4883   1.768   0.040  10.250  0.0833  0.3562  0.0226
   62SAPC   C31 4884   1.732   0.104  10.143 -0.0009  0.2873 -1.1563
   62SAPC   O32 4885   1.693   0.214  10.145  0.6539 -0.0723 -0.3436
   62SAPC   C32 4886   1.743   0.006  10.023  0.2344 -0.6399  0.5332
   62SAPC   H2X 4887   1.687  -0.088  10.044  0.6616 -1.0925 -0.2786
   62SAPC   H2Y 4888   1.851  -0.018  10.019  0.5240  0.4547  1.5313
   62SAPC   C23 4889   2.049   0.291   9.994 -1.0119  0.2225  0.0946
   62SAPC   H3R 4890   1.938   0.305   9.997 -1.0070  0.4947 -0.8535
   62SAPC   H3S 4891   2.074   0.187   9.966 -0.3277  0.1420  0.9652
   62SAPC   C24 4892   2.101   0.396   9.888  0.2001  0.1201 -0.0396
   62SAPC   H4R 4893   2.059   0.350   9.796 -2.9042  3.3980 -0.4651
   62SAPC   H4S 4894   2.212   0.394   9.881  0.1753 -0.3483 -0.3529
   62SAPC   C25 4895   2.038   0.536   9.902 -0.4361  0.3154 -0.7236
   62SAPC   H5R 4896   1.977   0.552   9.992  0.7521  2.3007 -0.2216
   62SAPC   C26 4897   2.019   0.621   9.804 -0.4781 -0.0909  0.0348
   62SAPC   H6R 4898   1.969   0.717   9.827 -0.0753  0.3357 -0.8461
   62SAPC   C27 4899   2.078   0.595   9.665  0.7450  0.8708  0.9014
   62SAPC   H7R 4900   2.094   0.486   9.649  0.0580  0.6099  1.8563
   62SAPC   H7S 4901   2.183   0.631   9.661  0.6502  0.9958 -0.7957
   62SAPC   C28 4902   2.003   0.656   9.549 -0.2098  0.5981  1.0457
   62SAPC   H8R 4903   1.912   0.709   9.583 -1.4237 -0.8475  0.1943
   62SAPC   C29 4904   2.037   0.650   9.422  0.5457 -0.0752  0.4820
   62SAPC   H9R 4905   1.966   0.693   9.350  0.6722 -1.7617 -0.7175
   62SAPC  C210 4906   2.164   0.583   9.375 -0.0870  0.0353 -0.8927
   62SAPC  H10R 4907   2.182   0.491   9.434 -0.1873  0.0205 -0.8858
   62SAPC  H10S 4908   2.247   0.653   9.400 -1.9454  2.1137 -0.1776
   62SAPC  C211 4909   2.160   0.548   9.227 -0.0947  0.7551  0.0384
   62SAPC  H11R 4910   2.113   0.450   9.206 -0.1810  0.9650 -0.7678
   62SAPC  C212 4911   2.195   0.620   9.116  0.4259  0.0653 -0.3520
   62SAPC  H12R 4912   2.171   0.579   9.016  0.9095 -3.6113  0.9081
   62SAPC  C213 4913   2.254   0.758   9.129 -0.2864  0.3122 -0.1665
   62SAPC  H13R 4914   2.363   0.742   9.144 -0.1929 -0.7725 -1.6965
   62SAPC  H13S 4915   2.231   0.802   9.228  0.7273  1.1437 -0.2895
   62SAPC  C214 4916   2.217   0.856   9.020  0.7875 -0.0811  0.7313
   62SAPC  H14R 4917   2.152   0.937   9.055 -0.5146  0.5478 -2.7022
   62SAPC  C215 4918   2.252   0.866   8.890  0.1108  0.1899  0.4129
   62SAPC  H15R 4919   2.193   0.938   8.831 -0.0899  1.3211  1.9481
   62SAPC  C216 4920   2.351   0.776   8.817  0.1613 -0.2642 -0.4683
   62SAPC  H16R 4921   2.407   0.719   8.894 -0.9002 -0.8293 -0.0963
   62SAPC  H16S 4922   2.424   0.842   8.765 -1.4408  2.6159  0.7100
   62SAPC  C217 4923   2.307   0.673   8.719 -0.0565 -0.1154 -0.6315
   62SAPC  H17R 4924   2.241   0.726   8.647  0.7003 -0.1264 -1.3481
   62SAPC  H17S 4925   2.249   0.603   8.783 -1.0281  1.5263  0.3596
   62SAPC  C218 4926   2.420   0.586   8.656 -0.0978  0.6522  1.0249
   62SAPC  H18R 4927   2.485   0.542   8.735  1.8524  1.9443  0.2126
   62SAPC  H18S 4928   2.490   0.644   8.593 -0.0103 -1.3893 -0.9042
   62SAPC  C219 4929   2.354   0.479   8.565 -0.6255 -0.1108  0.9023
   62SAPC  H19R 4930   2.271   0.525   8.507 -1.1004  0.3625  1.9256
   62SAPC  H19S 4931   2.306   0.403   8.629 -1.4071 -0.1282  0.3068
   62SAPC  C220 4932   2.452   0.425   8.455  0.0663 -0.9548  0.4796
   62SAPC  H20R 4933   2.420   0.327   8.415 -0.2331 -0.7923  0.3162
   62SAPC  H20S 4934   2.553   0.409   8.499 -0.1888 -1.4429  0.9118
   62SAPC  H20T 4935   2.468   0.505   8.380 -1.3821  0.8279  1.9780
   62SAPC   C33 4936   1.711   0.071   9.891 -0.3502  0.0633  0.4796
   62SAPC   H3X 4937   1.784   0.154   9.883 -0.5702  0.1710 -0.5125
   62SAPC   H3Y 4938   1.606   0.106   9.877 -0.3534  0.5766  1.6612
   62SAPC   C34 4939   1.759  -0.014   9.770 -0.3126  0.4086 -0.5157
   62SAPC   H4X 4940   1.700  -0.104   9.742  0.9677 -0.2662 -1.1576
   62SAPC   H4Y 4941   1.859  -0.055   9.795 -0.0736 -0.5669 -2.8353
   62SAPC   C35 4942   1.759   0.074   9.646  0.0783  0.2107  0.5474
   62SAPC   H5X 4943   1.822   0.161   9.676 -0.3255 -0.0560  2.3068
   62SAPC   H5Y 4944   1.653   0.092   9.617  0.7450 -0.4336 -2.6839
   62SAPC   C36 4945   1.817   0.007   9.521 -0.7405 -0.0952 -0.2031
   62SAPC   H6X 4946   1.755  -0.082   9.501 -2.5839  1.3548 -1.2488
   62SAPC   H6Y 4947   1.925  -0.007   9.545 -0.4730  0.9755 -0.6714
   62SAPC   C37 4948   1.842   0.093   9.393 -0.3435 -0.3367  0.1352
   62SAPC   H7X 4949   1.908   0.041   9.321 -0.1331 -0.5696  0.4943
   62SAPC   H7Y 4950   1.885   0.191   9.423 -1.2794 -0.3153  1.4926
   62SAPC   C38 4951   1.717   0.131   9.310  0.4397  0.0070 -0.3436
   62SAPC   H8X 4952   1.652   0.185   9.383  1.0326  1.2769 -0.7217
   62SAPC   H8Y 4953   1.668   0.040   9.269 -1.1065  1.3084 -1.5560
   62SAPC   C39 4954   1.754   0.224   9.190 -0.0643 -0.4155  0.3599
   62SAPC   H9X 4955   1.823   0.183   9.113  2.8676  3.7951  0.3602
   62SAPC   H9Y 4956   1.804   0.321   9.214 -0.4904  0.2611 -1.3785
   62SAPC  C310 4957   1.632   0.246   9.101 -0.6607 -0.1312 -0.5422
   62SAPC  H10X 4958   1.551   0.290   9.163 -1.1637 -0.4867 -0.9297
   62SAPC  H10Y 4959   1.586   0.151   9.066 -0.0465 -0.7516  0.2940
   62SAPC  C311 4960   1.658   0.332   8.976  0.1061 -0.3329 -0.1421
   62SAPC  H11X 4961   1.739   0.288   8.914  0.8715 -1.3928  1.5287
   62SAPC  H11Y 4962   1.700   0.423   9.023 -1.0903 -1.0707  2.5458
   62SAPC  C312 4963   1.541   0.358   8.891  0.6612  0.6153  0.1770
   62SAPC  H12X 4964   1.486   0.264   8.872 -0.1946  0.5124  2.7470
   62SAPC  H12Y 4965   1.587   0.396   8.797  2.0760  0.9989  0.9931
   62SAPC  C313 4966   1.449   0.462   8.963  0.3133  0.2247 -0.5053
   62SAPC  H13X 4967   1.517   0.546   8.986 -1.2253  1.8716 -1.6614
   62SAPC  H13Y 4968   1.414   0.419   9.059  0.6461 -3.5090 -1.9063
   62SAPC  C314 4969   1.325   0.505   8.886 -0.3433 -0.2461 -0.3885
   62SAPC  H14X 4970   1.276   0.590   8.938  0.5980 -0.9167  1.7020
   62SAPC  H14Y 4971   1.258   0.416   8.887  0.1617 -0.6260  0.4884
   62SAPC  C315 4972   1.353   0.554   8.746  0.2235  0.6199 -0.3462
   62SAPC  H15X 4973   1.263   0.592   8.694  0.7345  0.5602 -1.2929
   62SAPC  H15Y 4974   1.401   0.472   8.688  0.2141 -0.8960  1.6575
   62SAPC  C316 4975   1.457   0.670   8.736 -0.5289  0.3002  1.0708
   62SAPC  H16X 4976   1.556   0.652   8.782  0.5956  2.4168 -0.3628
   62SAPC  H16Y 4977   1.411   0.753   8.795  0.4138 -0.0164  2.2947
   62SAPC  C317 4978   1.475   0.718   8.590 -0.4752 -0.7199 -0.3465
   62SAPC  H17X 4979   1.369   0.720   8.555 -1.2799  1.4463  1.9674
   62SAPC  H17Y 4980   1.529   0.646   8.525 -0.0712  0.5359 -1.4615
   62SAPC  C318 4981   1.526   0.866   8.574 -0.5576  0.7042 -0.2948
   62SAPC  H18X 4982   1.461   0.938   8.628  1.8058  2.0170  0.9652
   62SAPC  H18Y 4983   1.528   0.898   8.468  0.9549 -1.2408 -0.9292
   62SAPC  H18Z 4984   1.630   0.887   8.608 -0.6274 -0.2977  0.6172
   63SAPC     N 4985   5.680   0.573   6.145  0.3546 -0.6383 -0.0588
   63SAPC   C12 4986   5.691   0.543   6.292 -0.4827  0.5505  0.3042
   63SAPC  H12A 4987   5.713   0.636   6.343  1.1083 -0.6011  1.8286
   63SAPC  H12B 4988   5.783   0.489   6.309 -0.1273  1.0158 -0.1029
   63SAPC   C13 4989   5.819   0.613   6.102 -0.1618  0.4940  0.2392
   63SAPC  H13A 4990   5.858   0.697   6.158 -0.8279 -0.2810  1.9078
   63SAPC  H13B 4991   5.875   0.524   6.126 -2.7025 -1.2169  0.1625
   63SAPC  H13C 4992   5.823   0.636   5.996 -0.6722  2.1948  0.5541
   63SAPC   C14 4993   5.624   0.454   6.067  0.5792  0.2111  0.3572
   63SAPC  H14A 4994   5.666   0.363   6.107  0.8142  0.8953  1.7398
   63SAPC  H14B 4995   5.518   0.447   6.089  0.5049 -1.3632 -0.4022
   63SAPC  H14C 4996   5.629   0.470   5.961 -1.2519  1.0981  0.3658
   63SAPC   C15 4997   5.586   0.688   6.129  1.1581  0.2285  0.3753
   63SAPC  H15A 4998   5.636   0.780   6.156 -1.0076  0.7903  2.8820
   63SAPC  H15B 4999   5.552   0.696   6.026  0.7401 -2.4234  0.2308
   63SAPC  H15C 5000   5.494   0.672   6.184  1.1268 -1.3700 -0.0927
   63SAPC   C11 5001   5.587   0.456   6.370  0.2769  0.0756 -0.0705
   63SAPC  H11A 5002   5.485   0.498   6.363  0.6468  0.7584 -1.7990
   63SAPC  H11B 5003   5.631   0.456   6.472  0.1159  1.7209  0.0220
   63SAPC     P 5004   5.454   0.239   6.313 -0.0792 -0.1587  0.0453
   63SAPC   O13 5005   5.367   0.315   6.220 -0.4279 -0.2798  0.0720
   63SAPC   O14 5006   5.487   0.100   6.275  0.1639  0.2061 -0.4799
   63SAPC   O12 5007   5.586   0.327   6.316 -0.3084 -0.5043 -0.2080
   63SAPC   O11 5008   5.389   0.240   6.458 -1.0187  0.2440 -0.0664
   63SAPC    C1 5009   5.458   0.167   6.557  0.2722  0.8928 -0.5832
   63SAPC    HA 5010   5.431   0.059   6.555  1.8607  0.4218  0.6435
   63SAPC    HB 5011   5.569   0.175   6.548  0.3450  0.3640 -0.1960
   63SAPC    C2 5012   5.435   0.220   6.711  0.2803 -0.0788  0.7306
   63SAPC    HS 5013   5.325   0.208   6.720 -0.2863  1.9195 -2.1320
   63SAPC   O21 5014   5.464   0.360   6.714 -0.4867  0.1385  0.2471
   63SAPC   C21 5015   5.408   0.429   6.806  0.7097 -0.2716 -0.2845
   63SAPC   O22 5016   5.305   0.400   6.858  0.6313  0.4350 -0.1720
   63SAPC   C22 5017   5.474   0.565   6.827  0.0529  0.0512 -0.1699
   63SAPC   H2R 5018   5.581   0.544   6.847 -0.1533  0.2603  1.2485
   63SAPC   H2S 5019   5.462   0.621   6.731 -0.3023  1.3050  0.5816
   63SAPC    C3 5020   5.526   0.145   6.812 -0.0437 -0.3863 -0.2107
   63SAPC    HX 5021   5.629   0.169   6.776  1.0367 -0.5358  2.5517
   63SAPC    HY 5022   5.502   0.039   6.787  1.0538 -0.4475 -1.1093
   63SAPC   O31 5023   5.499   0.179   6.948  0.7011 -0.2559  0.0827
   63SAPC   C31 5024   5.391   0.121   7.010 -0.1510 -0.1362  0.4406
   63SAPC   O32 5025   5.296   0.065   6.954 -0.4602 -0.1038  0.1208
   63SAPC   C32 5026   5.379   0.164   7.155 -0.9331 -0.1550  0.9937
   63SAPC   H2X 5027   5.462   0.113   7.208 -0.1630  0.6715  0.6094
   63SAPC   H2Y 5028   5.288   0.120   7.200  0.8865 -3.0263  2.1288
   63SAPC   C23 5029   5.412   0.643   6.954  0.0537 -0.3759  0.1230
   63SAPC   H3R 5030   5.402   0.586   7.049 -0.0366  0.9741  0.9490
   63SAPC   H3S 5031   5.311   0.680   6.927  0.7580  2.5410  1.1191
   63SAPC   C24 5032   5.490   0.777   6.994 -0.3021 -0.2273  0.1297
   63SAPC   H4R 5033   5.437   0.807   7.087  1.1277  1.9499  0.3036
   63SAPC   H4S 5034   5.469   0.840   6.905 -0.0882 -0.4291 -0.0678
   63SAPC   C25 5035   5.642   0.770   7.005 -0.1563  0.3857 -0.1437
   63SAPC   H5R 5036   5.690   0.759   6.907 -1.2746  0.1087 -0.6731
   63SAPC   C26 5037   5.716   0.777   7.118  0.2128  0.5041  0.3863
   63SAPC   H6R 5038   5.825   0.765   7.106 -0.1669 -1.9308 -1.3377
   63SAPC   C27 5039   5.655   0.785   7.261  0.6705  0.1194 -0.2996
   63SAPC   H7R 5040   5.735   0.736   7.320  0.3064 -0.5396 -0.3443
   63SAPC   H7S 5041   5.570   0.715   7.275  1.7396 -1.3145 -0.7202
   63SAPC   C28 5042   5.634   0.929   7.312 -0.4830 -0.9243  0.4134
   63SAPC   H8R 5043   5.648   1.010   7.239  3.0196 -0.6566  1.2272
   63SAPC   C29 5044   5.616   0.961   7.443  0.8208  0.0567 -0.1000
   63SAPC   H9R 5045   5.603   1.065   7.477 -0.4369 -0.6654  1.8246
   63SAPC  C210 5046   5.605   0.861   7.558 -0.1835  0.9688 -0.8004
   63SAPC  H10R 5047   5.680   0.877   7.638 -0.6270  0.1607 -0.2104
   63SAPC  H10S 5048   5.618   0.754   7.530 -0.8167 -0.3126  3.1963
   63SAPC  C211 5049   5.463   0.866   7.609 -0.0121 -0.2330 -0.1465
   63SAPC  H11R 5050   5.389   0.861   7.528  0.6531 -1.0124 -0.7138
   63SAPC  C212 5051   5.419   0.876   7.737  0.9541 -1.0884  0.4755
   63SAPC  H12R 5052   5.311   0.869   7.757 -0.0891 -0.7378 -4.0536
   63SAPC  C213 5053   5.501   0.881   7.869 -0.1399  0.2944  0.7531
   63SAPC  H13R 5054   5.609   0.900   7.851 -0.5389  0.7600 -1.3487
   63SAPC  H13S 5055   5.508   0.776   7.905  0.0026  0.0567  0.0293
   63SAPC  C214 5056   5.428   0.971   7.973  0.1201  0.2671 -0.0192
   63SAPC  H14R 5057   5.345   1.029   7.931  0.0136 -1.9179 -3.1371
   63SAPC  C215 5058   5.430   0.947   8.111 -0.4499 -0.0158  0.3268
   63SAPC  H15R 5059   5.366   1.012   8.172 -0.2116 -0.3726  0.9618
   63SAPC  C216 5060   5.508   0.836   8.183  0.2582  0.3285 -0.6044
   63SAPC  H16R 5061   5.547   0.883   8.276 -0.3694  0.8564 -0.5999
   63SAPC  H16S 5062   5.593   0.802   8.120  1.4870  0.2307  1.0272
   63SAPC  C217 5063   5.410   0.720   8.220 -0.6331 -0.3653  0.4413
   63SAPC  H17R 5064   5.460   0.633   8.270 -0.1823  0.4509  1.4522
   63SAPC  H17S 5065   5.365   0.683   8.125 -1.1289  1.4847 -0.0886
   63SAPC  C218 5066   5.281   0.751   8.303  0.4045 -0.1125 -0.1918
   63SAPC  H18R 5067   5.212   0.667   8.279  1.0842 -0.4707 -0.9466
   63SAPC  H18S 5068   5.242   0.852   8.281  2.3224  0.8136  0.4508
   63SAPC  C219 5069   5.293   0.739   8.449  1.0300  0.0080  0.4834
   63SAPC  H19R 5070   5.318   0.635   8.478 -3.6396 -1.1121  1.1850
   63SAPC  H19S 5071   5.194   0.753   8.497  1.1344 -2.9124  1.7119
   63SAPC  C220 5072   5.393   0.835   8.512  0.2526  0.0061 -0.1273
   63SAPC  H20R 5073   5.400   0.812   8.621 -3.2745 -2.5965 -0.2720
   63SAPC  H20S 5074   5.370   0.943   8.498 -0.5301 -0.2551 -0.9793
   63SAPC  H20T 5075   5.492   0.829   8.462 -0.4535  0.0285 -1.5746
   63SAPC   C33 5076   5.405   0.317   7.179 -0.3096  0.1310 -1.1333
   63SAPC   H3X 5077   5.315   0.376   7.155  0.7638  2.3956  0.0527
   63SAPC   H3Y 5078   5.481   0.357   7.109  0.5514  0.3541 -0.1035
   63SAPC   C34 5079   5.449   0.359   7.322  0.7750  0.1780  0.1378
   63SAPC   H4X 5080   5.556   0.387   7.328  0.6324  0.7012  0.2894
   63SAPC   H4Y 5081   5.438   0.275   7.394 -0.4386  0.9727  0.9199
   63SAPC   C35 5082   5.371   0.487   7.365 -0.7377  0.3467 -1.0793
   63SAPC   H5X 5083   5.264   0.496   7.336 -0.6129  1.9184 -1.1636
   63SAPC   H5Y 5084   5.406   0.571   7.301  1.5273  0.2689 -0.0403
   63SAPC   C36 5085   5.400   0.527   7.502 -0.6634  0.5992  0.6057
   63SAPC   H6X 5086   5.376   0.629   7.540 -0.4400  0.5861  0.7870
   63SAPC   H6Y 5087   5.510   0.518   7.515 -0.7969  0.6602  1.9846
   63SAPC   C37 5088   5.351   0.428   7.608 -0.5652 -0.4099  0.2151
   63SAPC   H7X 5089   5.396   0.329   7.588 -1.2977 -0.6033 -0.5281
   63SAPC   H7Y 5090   5.241   0.415   7.602 -0.2121 -3.0886 -2.0464
   63SAPC   C38 5091   5.387   0.478   7.751 -0.3310 -0.6258 -0.1074
   63SAPC   H8X 5092   5.336   0.576   7.763  1.1111 -0.0049  1.3481
   63SAPC   H8Y 5093   5.497   0.492   7.743 -0.0595 -3.3331 -2.8440
   63SAPC   C39 5094   5.340   0.375   7.848 -0.3707  0.4771  0.7282
   63SAPC   H9X 5095   5.420   0.297   7.839 -0.2953  0.5191  1.0086
   63SAPC   H9Y 5096   5.244   0.336   7.809  0.3030  0.5768 -1.1260
   63SAPC  C310 5097   5.331   0.421   7.990  0.2307 -0.9499 -0.7901
   63SAPC  H10X 5098   5.237   0.479   8.000  1.8149  1.6068  0.7535
   63SAPC  H10Y 5099   5.410   0.498   8.011 -1.0745  0.3399 -0.4184
   63SAPC  C311 5100   5.343   0.310   8.087  0.1639  0.8020 -0.4216
   63SAPC  H11X 5101   5.443   0.260   8.085  0.3259  1.0992  0.0948
   63SAPC  H11Y 5102   5.267   0.237   8.051  1.2655 -0.9105  0.5274
   63SAPC  C312 5103   5.291   0.342   8.234  0.1375  0.1474  0.6574
   63SAPC  H12X 5104   5.354   0.420   8.281  0.0653  0.6158 -0.0169
   63SAPC  H12Y 5105   5.296   0.244   8.286  2.2848 -1.0855 -1.6511
   63SAPC  C313 5106   5.142   0.385   8.232  0.0097 -0.3028  0.3958
   63SAPC  H13X 5107   5.082   0.319   8.165 -1.4694 -0.7166  2.0569
   63SAPC  H13Y 5108   5.139   0.482   8.178  0.0662 -0.2629  0.4639
   63SAPC  C314 5109   5.073   0.398   8.364 -0.5409  0.4448  0.5160
   63SAPC  H14X 5110   5.146   0.441   8.436  0.4228  2.6240 -1.6321
   63SAPC  H14Y 5111   5.057   0.300   8.414  2.7954  0.6409  2.3291
   63SAPC  C315 5112   4.953   0.493   8.371  0.4744  0.3721 -0.0948
   63SAPC  H15X 5113   4.872   0.469   8.299  0.3419  0.1776  0.1150
   63SAPC  H15Y 5114   5.000   0.589   8.342  0.4815  0.1452 -0.8513
   63SAPC  C316 5115   4.902   0.494   8.506 -0.5379 -0.1660  0.2891
   63SAPC  H16X 5116   4.983   0.520   8.578 -0.2607  0.4807 -0.2481
   63SAPC  H16Y 5117   4.866   0.393   8.537  0.6120 -0.1129  1.9301
   63SAPC  C317 5118   4.784   0.584   8.524  0.0322  0.7907 -0.4261
   63SAPC  H17X 5119   4.700   0.562   8.455 -1.4053 -0.8276  1.6968
   63SAPC  H17Y 5120   4.820   0.685   8.496 -1.8269  2.3617  2.2909
   63SAPC  C318 5121   4.740   0.575   8.667 -0.8436 -0.0820 -0.8569
   63SAPC  H18X 5122   4.670   0.655   8.699  0.4906  1.0605 -0.7005
   63SAPC  H18Y 5123   4.836   0.594   8.720 -0.8176  2.1788 -1.6127
   63SAPC  H18Z 5124   4.708   0.472   8.694 -2.0545  0.7952  1.3932
   64SAPC     N 5125   1.576   0.995   5.563 -0.7918 -0.3129  0.1233
   64SAPC   C12 5126   1.468   1.062   5.638 -0.5181  0.1641 -0.3811
   64SAPC  H12A 5127   1.422   1.139   5.577 -1.6384 -1.2805 -1.4064
   64SAPC  H12B 5128   1.522   1.113   5.716 -1.3068 -1.8985  1.6289
   64SAPC   C13 5129   1.673   1.104   5.518  0.2298 -0.0533 -0.3603
   64SAPC  H13A 5130   1.697   1.161   5.606 -1.1520  0.5292 -0.3336
   64SAPC  H13B 5131   1.760   1.063   5.468 -0.1350 -0.2818 -0.8168
   64SAPC  H13C 5132   1.630   1.164   5.439  0.2582  2.9980  1.7929
   64SAPC   C14 5133   1.653   0.905   5.649 -0.0872  0.6098 -0.4635
   64SAPC  H14A 5134   1.591   0.850   5.719 -0.5945 -0.2402 -1.5581
   64SAPC  H14B 5135   1.708   0.834   5.590 -0.0991 -2.1421  2.5343
   64SAPC  H14C 5136   1.708   0.960   5.724  0.8209  1.9573 -2.0483
   64SAPC   C15 5137   1.531   0.919   5.443 -0.3584  0.0949  0.3880
   64SAPC  H15A 5138   1.470   0.973   5.372  0.4478  0.0426 -0.3612
   64SAPC  H15B 5139   1.606   0.867   5.385 -1.4246 -1.6140  0.4645
   64SAPC  H15C 5140   1.470   0.840   5.483  0.2229 -0.7101 -0.2716
   64SAPC   C11 5141   1.364   0.978   5.713  0.3963 -0.6981 -0.5758
   64SAPC  H11A 5142   1.306   0.923   5.636  2.5419  0.7690 -3.4549
   64SAPC  H11B 5143   1.290   1.047   5.758  1.6956 -0.6251  1.6223
   64SAPC     P 5144   1.473   0.920   5.958  0.0048 -0.3486 -0.2284
   64SAPC   O13 5145   1.569   0.810   5.982 -0.0746 -0.3579 -0.1612
   64SAPC   O14 5146   1.512   1.061   5.964  0.4935  0.1300 -0.2151
   64SAPC   O12 5147   1.412   0.889   5.816 -0.2881 -0.0993 -0.1527
   64SAPC   O11 5148   1.353   0.897   6.062 -0.4397 -0.7302  0.6703
   64SAPC    C1 5149   1.243   0.817   6.027 -0.2979 -0.0287 -0.3120
   64SAPC    HA 5150   1.173   0.881   5.968 -0.7445 -0.4040 -0.1991
   64SAPC    HB 5151   1.272   0.727   5.968  0.0636  0.5501 -1.0487
   64SAPC    C2 5152   1.165   0.749   6.147  0.1433 -0.0211 -0.5571
   64SAPC    HS 5153   1.073   0.711   6.098 -0.6477  1.3139 -0.1415
   64SAPC   O21 5154   1.137   0.833   6.259 -0.0832  0.5835 -0.2856
   64SAPC   C21 5155   1.022   0.884   6.260  0.6754 -0.4116  0.2353
   64SAPC   O22 5156   0.929   0.875   6.179 -0.4181  0.0022  0.2893
   64SAPC   C22 5157   1.012   0.988   6.373 -0.7117 -0.1430  0.0686
   64SAPC   H2R 5158   1.041   0.927   6.461 -0.7905 -1.5217 -0.8195
   64SAPC   H2S 5159   1.094   1.060   6.355 -1.1273  0.2779 -0.1545
   64SAPC    C3 5160   1.240   0.626   6.202 -0.0934 -0.5640 -0.2491
   64SAPC    HX 5161   1.343   0.648   6.237 -1.7772  1.9784  3.7638
   64SAPC    HY 5162   1.243   0.560   6.112 -0.1279  0.3769 -0.9614
   64SAPC   O31 5163   1.172   0.572   6.318  0.2026 -0.2969 -0.0564
   64SAPC   C31 5164   1.068   0.494   6.290 -0.3064 -0.7794 -0.2908
   64SAPC   O32 5165   1.033   0.467   6.175  0.4187 -0.0097  0.0404
   64SAPC   C32 5166   1.006   0.440   6.420  0.2117  0.3557  0.2867
   64SAPC   H2X 5167   1.078   0.417   6.501 -0.3191 -1.9887  0.1531
   64SAPC   H2Y 5168   0.964   0.340   6.396  1.5885 -0.1975  0.1287
   64SAPC   C23 5169   0.873   1.065   6.396 -0.1387  0.6121  0.0222
   64SAPC   H3R 5170   0.837   1.105   6.298 -1.2735  1.0699  0.5971
   64SAPC   H3S 5171   0.898   1.158   6.452 -1.6693  1.4095 -0.5424
   64SAPC   C24 5172   0.769   0.987   6.467  0.0752 -0.5039  0.4239
   64SAPC   H4R 5173   0.790   0.963   6.573  1.7974 -0.1601  0.1906
   64SAPC   H4S 5174   0.753   0.893   6.410  1.0818 -0.7063  0.4614
   64SAPC   C25 5175   0.636   1.066   6.462  0.9390  0.9911 -0.3499
   64SAPC   H5R 5176   0.610   1.102   6.361  0.6793  1.6620 -0.0523
   64SAPC   C26 5177   0.563   1.113   6.568 -0.3647  0.4142 -0.3737
   64SAPC   H6R 5178   0.471   1.168   6.543 -1.0673 -0.5218  0.0710
   64SAPC   C27 5179   0.587   1.075   6.721 -0.2739  0.0119  0.0307
   64SAPC   H7R 5180   0.684   1.122   6.751  1.8368 -1.8626 -3.1695
   64SAPC   H7S 5181   0.609   0.966   6.726 -0.6830 -0.0491  0.5277
   64SAPC   C28 5182   0.487   1.107   6.827  1.1262  0.9608 -0.0275
   64SAPC   H8R 5183   0.410   1.181   6.802 -1.8052 -2.2772 -1.4933
   64SAPC   C29 5184   0.484   1.052   6.948  0.1825 -0.5134  0.7432
   64SAPC   H9R 5185   0.402   1.093   7.010  0.4321 -0.5215  1.0838
   64SAPC  C210 5186   0.571   0.953   7.010 -0.6044 -0.6138  0.1969
   64SAPC  H10R 5187   0.597   0.866   6.946 -3.1200 -1.7627  0.6003
   64SAPC  H10S 5188   0.505   0.908   7.087 -2.4283  1.0577 -0.3235
   64SAPC  C211 5189   0.701   1.015   7.074  0.6411 -0.6515  0.1597
   64SAPC  H11R 5190   0.790   1.023   7.010  0.8167  1.3621  0.5709
   64SAPC  C212 5191   0.717   1.060   7.203 -0.5109  0.5021 -0.4325
   64SAPC  H12R 5192   0.820   1.075   7.238 -0.4602 -2.8189  1.2342
   64SAPC  C213 5193   0.609   1.057   7.309  0.3910 -0.1435 -0.2044
   64SAPC  H13R 5194   0.509   1.079   7.267  1.0105  4.3619  0.1478
   64SAPC  H13S 5195   0.622   1.154   7.363 -3.0682 -1.1516  2.8141
   64SAPC  C214 5196   0.613   0.937   7.397 -0.1720 -0.6884 -0.0046
   64SAPC  H14R 5197   0.574   0.846   7.348  0.3244 -1.4440  0.9618
   64SAPC  C215 5198   0.658   0.924   7.525 -0.5305  0.1279  0.5822
   64SAPC  H15R 5199   0.658   0.826   7.574 -2.7263  0.0606  0.5565
   64SAPC  C216 5200   0.709   1.032   7.609  0.0355  0.4957 -0.0089
   64SAPC  H16R 5201   0.702   1.136   7.572  0.8621  0.6236  0.1779
   64SAPC  H16S 5202   0.815   1.016   7.635  0.2597  1.4325 -0.3279
   64SAPC  C217 5203   0.641   1.049   7.748  0.1093 -0.0414  0.4223
   64SAPC  H17R 5204   0.710   1.091   7.825  0.2219 -0.5066  0.5779
   64SAPC  H17S 5205   0.594   0.959   7.791  0.6028 -0.1156  0.8093
   64SAPC  C218 5206   0.516   1.146   7.738  0.3503  0.3984  0.0916
   64SAPC  H18R 5207   0.443   1.098   7.670  1.7979 -3.0963  0.8279
   64SAPC  H18S 5208   0.550   1.249   7.714  1.4883  0.6677  2.5122
   64SAPC  C219 5209   0.443   1.168   7.872 -0.4915 -0.3460 -0.1659
   64SAPC  H19R 5210   0.395   1.072   7.898 -2.1447  0.8552  1.5158
   64SAPC  H19S 5211   0.359   1.240   7.867 -2.0686 -2.0715  0.4315
   64SAPC  C220 5212   0.533   1.194   7.995  0.7830 -0.3091  0.2013
   64SAPC  H20R 5213   0.476   1.216   8.088  0.4112  1.9732 -0.4929
   64SAPC  H20S 5214   0.594   1.285   7.973  1.4029 -0.8101 -0.1911
   64SAPC  H20T 5215   0.598   1.107   8.018  0.9561  0.1927  1.7413
   64SAPC   C33 5216   0.886   0.530   6.464  0.1622 -0.1211 -0.5553
   64SAPC   H3X 5217   0.813   0.528   6.381 -2.7147  2.7472  1.6271
   64SAPC   H3Y 5218   0.920   0.636   6.468 -0.1817 -0.0488  1.3853
   64SAPC   C34 5219   0.811   0.479   6.590 -0.4658  0.6189  0.1659
   64SAPC   H4X 5220   0.762   0.387   6.553  0.9572  0.7622 -2.2871
   64SAPC   H4Y 5221   0.731   0.553   6.615 -0.7434  0.4779 -0.2836
   64SAPC   C35 5222   0.912   0.436   6.702 -0.0800 -0.1344 -0.1363
   64SAPC   H5X 5223   1.004   0.498   6.694  0.8587 -1.4734  0.0171
   64SAPC   H5Y 5224   0.945   0.333   6.679  2.1427  0.4985 -0.0490
   64SAPC   C36 5225   0.848   0.446   6.837  0.3819 -0.3711 -0.5071
   64SAPC   H6X 5226   0.762   0.375   6.831  0.6948 -0.8703  0.5449
   64SAPC   H6Y 5227   0.808   0.548   6.852 -1.6576 -1.0496 -1.0082
   64SAPC   C37 5228   0.923   0.380   6.956 -0.7225 -0.0178  1.0310
   64SAPC   H7X 5229   1.028   0.414   6.943 -1.5013  1.7983 -1.1630
   64SAPC   H7Y 5230   0.931   0.269   6.946  1.7045  0.3134 -2.1079
   64SAPC   C38 5231   0.862   0.408   7.097  0.2809  0.5086 -0.0258
   64SAPC   H8X 5232   0.765   0.357   7.118  0.7131 -0.5325 -0.4764
   64SAPC   H8Y 5233   0.842   0.514   7.125 -0.2326  0.3018  0.3915
   64SAPC   C39 5234   0.971   0.368   7.202  0.0434 -0.7700 -0.4018
   64SAPC   H9X 5235   1.053   0.438   7.174  0.7081 -0.2656  2.4868
   64SAPC   H9Y 5236   1.008   0.264   7.191 -0.1819 -1.1792  2.2197
   64SAPC  C310 5237   0.916   0.389   7.340 -0.6274 -0.0533  0.2882
   64SAPC  H10X 5238   0.820   0.333   7.347  0.0058 -1.5877 -2.0603
   64SAPC  H10Y 5239   0.892   0.497   7.350 -0.2722  0.3616 -2.5027
   64SAPC  C311 5240   1.018   0.342   7.447 -0.3129  0.4270  0.0304
   64SAPC  H11X 5241   1.109   0.405   7.439  0.4108 -0.5989  0.0206
   64SAPC  H11Y 5242   1.040   0.235   7.427 -0.5130  0.4686 -0.4153
   64SAPC  C312 5243   0.961   0.348   7.583 -0.3112  0.1745 -0.5974
   64SAPC  H12X 5244   0.872   0.282   7.595 -0.0601 -0.2111 -0.8498
   64SAPC  H12Y 5245   0.912   0.447   7.594  3.2214  1.9663  0.6926
   64SAPC  C313 5246   1.065   0.335   7.694  0.3846  0.4434 -0.2459
   64SAPC  H13X 5247   1.136   0.421   7.685 -0.1011  0.7656 -1.1257
   64SAPC  H13Y 5248   1.122   0.241   7.680 -1.5119 -0.5827 -1.4571
   64SAPC  C314 5249   0.993   0.339   7.826  0.6974 -0.7109 -0.0827
   64SAPC  H14X 5250   0.900   0.280   7.821  0.4944 -0.2564 -2.5236
   64SAPC  H14Y 5251   0.963   0.445   7.839  2.0293 -0.3658  0.4181
   64SAPC  C315 5252   1.077   0.295   7.942 -0.1643  0.2542 -0.8951
   64SAPC  H15X 5253   1.175   0.343   7.924 -0.5262  0.2556 -3.2369
   64SAPC  H15Y 5254   1.112   0.192   7.920 -0.4137 -0.1578  0.5279
   64SAPC  C316 5255   1.007   0.300   8.079  0.5490 -0.2241  0.2743
   64SAPC  H16X 5256   1.074   0.285   8.166  0.0742  0.1973  0.7189
   64SAPC  H16Y 5257   0.926   0.224   8.080 -1.0806  1.4532  0.9991
   64SAPC  C317 5258   0.933   0.438   8.094 -0.1156 -0.4836  0.0662
   64SAPC  H17X 5259   0.853   0.461   8.020  1.1801  2.4791 -0.5461
   64SAPC  H17Y 5260   1.003   0.519   8.064 -0.3918  0.2329  1.3216
   64SAPC  C318 5261   0.873   0.451   8.230 -0.0959  0.1072  0.1884
   64SAPC  H18X 5262   0.782   0.387   8.238 -0.0614  0.1570  1.2080
   64SAPC  H18Y 5263   0.831   0.550   8.257 -0.3232 -0.5729  2.5937
   64SAPC  H18Z 5264   0.942   0.426   8.313 -0.4591 -1.0172  0.1730
   65SAPC     N 5265   0.860   1.202   5.886 -0.2196  0.3410 -1.3891
   65SAPC   C12 5266   0.722   1.257   5.857 -0.3654  0.0489  0.5506
   65SAPC  H12A 5267   0.656   1.178   5.826 -0.6891  1.1231 -1.7240
   65SAPC  H12B 5268   0.741   1.319   5.770 -0.4105  0.8924  1.1268
   65SAPC   C13 5269   0.905   1.103   5.795  0.9864  0.2307  0.3050
   65SAPC  H13A 5270   0.894   1.128   5.691  0.3211 -1.2079 -0.0024
   65SAPC  H13B 5271   1.006   1.083   5.828  0.9299 -0.2456  0.1984
   65SAPC  H13C 5272   0.852   1.009   5.800  0.2566  0.5968 -0.4611
   65SAPC   C14 5273   0.959   1.312   5.886  0.5362 -0.7145  0.3879
   65SAPC  H14A 5274   0.942   1.379   5.968 -0.3309 -0.2842 -0.1218
   65SAPC  H14B 5275   1.064   1.286   5.889  0.9779  1.0534  1.4437
   65SAPC  H14C 5276   0.952   1.371   5.796 -1.0898 -0.7048  0.4860
   65SAPC   C15 5277   0.859   1.124   6.013 -0.1744 -0.8036 -0.6488
   65SAPC  H15A 5278   0.937   1.049   6.005  0.5193 -0.0115 -1.5344
   65SAPC  H15B 5279   0.863   1.190   6.099 -0.9396 -0.0593 -1.1754
   65SAPC  H15C 5280   0.771   1.065   6.029 -0.7558  0.2942  0.3837
   65SAPC   C11 5281   0.655   1.343   5.968 -0.7709 -0.1531  0.4909
   65SAPC  H11A 5282   0.653   1.277   6.058  0.4252 -0.1187  0.5561
   65SAPC  H11B 5283   0.551   1.375   5.947 -0.6359  0.0152  0.0651
   65SAPC     P 5284   0.686   1.599   5.944 -0.2926  0.3858 -0.1187
   65SAPC   O13 5285   0.798   1.699   5.940 -0.0523  0.3828  0.0714
   65SAPC   O14 5286   0.606   1.584   5.819 -1.0544  0.3472  0.3757
   65SAPC   O12 5287   0.738   1.457   6.000 -0.1667 -0.3274 -0.0457
   65SAPC   O11 5288   0.580   1.634   6.055  0.0608 -0.1549 -0.6066
   65SAPC    C1 5289   0.598   1.741   6.151  0.6162  0.0526  0.6862
   65SAPC    HA 5290   0.668   1.818   6.111  0.3202 -0.1926 -0.3330
   65SAPC    HB 5291   0.496   1.784   6.163  0.7080 -0.3706  3.8224
   65SAPC    C2 5292   0.646   1.695   6.289  0.4458 -0.2325  0.1981
   65SAPC    HS 5293   0.633   1.779   6.360  1.9277 -0.2422  0.5209
   65SAPC   O21 5294   0.787   1.660   6.285  0.4927 -0.0106 -0.3056
   65SAPC   C21 5295   0.870   1.757   6.302 -0.7244 -0.0963  0.3919
   65SAPC   O22 5296   0.841   1.875   6.319 -0.2182  0.3092 -0.0008
   65SAPC   C22 5297   1.014   1.699   6.311  0.4075  0.5166 -0.5277
   65SAPC   H2R 5298   1.011   1.601   6.363  0.5059 -0.0781 -1.6119
   65SAPC   H2S 5299   1.037   1.682   6.203 -0.1341 -1.9266 -0.2975
   65SAPC    C3 5300   0.560   1.572   6.334  0.1386  2.0805  0.5824
   65SAPC    HX 5301   0.584   1.481   6.275 -1.6337  2.0155 -0.1100
   65SAPC    HY 5302   0.451   1.584   6.314 -0.3741  2.9344  3.5076
   65SAPC   O31 5303   0.579   1.550   6.480  0.0057  0.1477  0.0303
   65SAPC   C31 5304   0.676   1.469   6.508 -0.2314  0.2083  1.0130
   65SAPC   O32 5305   0.741   1.402   6.426 -0.0786 -0.4137 -0.2760
   65SAPC   C32 5306   0.720   1.486   6.650 -0.0098  0.4449 -0.1175
   65SAPC   H2X 5307   0.780   1.575   6.678 -0.0432 -0.1261  1.9997
   65SAPC   H2Y 5308   0.779   1.400   6.688  1.4596  1.2969 -0.4156
   65SAPC   C23 5309   1.117   1.799   6.374 -0.5983  0.2265  0.0810
   65SAPC   H3R 5310   1.087   1.906   6.370 -0.5318  0.2642  0.5426
   65SAPC   H3S 5311   1.211   1.802   6.314  0.1930 -1.2164  1.1787
   65SAPC   C24 5312   1.142   1.770   6.524 -0.0266  0.3251 -0.5656
   65SAPC   H4R 5313   1.046   1.725   6.558 -1.1011  2.1955 -0.9916
   65SAPC   H4S 5314   1.153   1.862   6.585  0.4012 -0.6983  0.9617
   65SAPC   C25 5315   1.250   1.671   6.549 -0.7876  0.0058  0.0606
   65SAPC   H5R 5316   1.257   1.582   6.485  0.2941 -1.4549  2.1100
   65SAPC   C26 5317   1.338   1.687   6.644 -0.2907  0.4232 -0.1722
   65SAPC   H6R 5318   1.419   1.614   6.657 -1.2720 -0.3576  2.0997
   65SAPC   C27 5319   1.355   1.793   6.750  0.2982  0.4718 -0.3608
   65SAPC   H7R 5320   1.310   1.750   6.842 -1.1344 -0.4187 -1.4248
   65SAPC   H7S 5321   1.288   1.878   6.725 -0.3968 -0.0783 -0.3977
   65SAPC   C28 5322   1.502   1.827   6.774  0.2575 -0.7195  0.4371
   65SAPC   H8R 5323   1.570   1.777   6.703  1.2833  1.4025 -0.1617
   65SAPC   C29 5324   1.550   1.899   6.879  1.1106  0.0122  0.1920
   65SAPC   H9R 5325   1.658   1.905   6.896  1.2980 -1.7122 -0.2244
   65SAPC  C210 5326   1.455   1.943   6.988  0.1934 -0.4321  0.0561
   65SAPC  H10R 5327   1.385   1.858   7.004  1.7442 -1.2585  3.2862
   65SAPC  H10S 5328   1.393   2.024   6.944  2.6547  1.6756  0.2086
   65SAPC  C211 5329   1.516   1.996   7.112  0.0580  0.0480 -0.8506
   65SAPC  H11R 5330   1.606   2.056   7.095  0.5275 -0.8833 -1.8305
   65SAPC  C212 5331   1.479   1.974   7.241  0.2202  0.1317 -0.2042
   65SAPC  H12R 5332   1.540   2.023   7.318  0.8275  1.0101 -1.2305
   65SAPC  C213 5333   1.360   1.888   7.287 -0.3326 -1.1466 -0.3123
   65SAPC  H13R 5334   1.288   1.886   7.202  1.5557  1.8450 -2.1518
   65SAPC  H13S 5335   1.314   1.945   7.370  1.7034  1.8594 -1.0849
   65SAPC  C214 5336   1.392   1.752   7.335  0.0218 -0.7523  0.2018
   65SAPC  H14R 5337   1.361   1.681   7.258 -0.6752  0.6943 -0.9017
   65SAPC  C215 5338   1.460   1.719   7.451 -0.5833  0.2543  1.0516
   65SAPC  H15R 5339   1.511   1.621   7.448  0.6743  0.8722 -2.9344
   65SAPC  C216 5340   1.512   1.821   7.554  0.0252 -0.7647 -0.4312
   65SAPC  H16R 5341   1.588   1.891   7.513  1.0452 -1.8050 -0.3709
   65SAPC  H16S 5342   1.563   1.761   7.633  0.7770 -1.7565 -1.6114
   65SAPC  C217 5343   1.413   1.917   7.623  0.0518  0.1947  0.0382
   65SAPC  H17R 5344   1.364   1.988   7.552  0.6295  1.0447  0.4675
   65SAPC  H17S 5345   1.475   1.983   7.688  0.6165 -0.8191  0.5409
   65SAPC  C218 5346   1.301   1.846   7.709  0.4827  0.0995  0.0206
   65SAPC  H18R 5347   1.261   1.757   7.655 -1.2268  0.2648  0.9434
   65SAPC  H18S 5348   1.223   1.925   7.713  1.7788  1.5061 -1.1407
   65SAPC  C219 5349   1.345   1.815   7.853 -0.0037  0.4904 -0.3727
   65SAPC  H19R 5350   1.377   1.917   7.883 -1.2004  0.6248  0.5390
   65SAPC  H19S 5351   1.439   1.757   7.860  0.8332  1.9813  1.6566
   65SAPC  C220 5352   1.233   1.756   7.938  0.2434  0.2500  0.3966
   65SAPC  H20R 5353   1.262   1.705   8.031  1.7303  0.8077  0.2605
   65SAPC  H20S 5354   1.169   1.680   7.889 -0.9838 -0.5439  3.0417
   65SAPC  H20T 5355   1.155   1.831   7.963 -0.0590  0.1335 -0.1678
   65SAPC   C33 5356   0.603   1.494   6.750 -0.8907  0.3270 -0.2381
   65SAPC   H3X 5357   0.524   1.418   6.729 -1.0502  0.6898 -0.9727
   65SAPC   H3Y 5358   0.543   1.584   6.725  1.8432  2.2991 -0.0690
   65SAPC   C34 5359   0.652   1.477   6.894  0.7608  0.5010  0.4275
   65SAPC   H4X 5360   0.712   1.569   6.911 -0.6660  2.0433 -2.2593
   65SAPC   H4Y 5361   0.704   1.379   6.897  0.4959  0.3863  1.7556
   65SAPC   C35 5362   0.529   1.462   6.984 -0.0440 -1.1073 -0.4995
   65SAPC   H5X 5363   0.471   1.382   6.933 -1.3793 -0.8823  0.6436
   65SAPC   H5Y 5364   0.467   1.553   6.970  1.6728  0.3261  0.7567
   65SAPC   C36 5365   0.550   1.427   7.131  0.1341 -0.2146 -0.4792
   65SAPC   H6X 5366   0.579   1.521   7.182 -0.4949  0.1296 -0.7438
   65SAPC   H6Y 5367   0.634   1.355   7.144  2.1435  2.1559  0.5330
   65SAPC   C37 5368   0.425   1.381   7.203  0.5627  0.6388  0.0754
   65SAPC   H7X 5369   0.392   1.280   7.170 -0.1159  1.6423 -2.6066
   65SAPC   H7Y 5370   0.340   1.447   7.176  1.1671  0.8660 -1.3608
   65SAPC   C38 5371   0.449   1.378   7.352 -0.2447  0.2942 -0.6313
   65SAPC   H8X 5372   0.466   1.484   7.378  0.8736  0.3401 -1.5067
   65SAPC   H8Y 5373   0.543   1.323   7.374 -0.0381  1.1438  0.7373
   65SAPC   C39 5374   0.337   1.312   7.439 -0.5458 -0.3049 -0.1236
   65SAPC   H9X 5375   0.359   1.335   7.545  1.0405 -0.1470 -0.4662
   65SAPC   H9Y 5376   0.353   1.203   7.426 -1.3807 -0.4204 -0.2149
   65SAPC  C310 5377   0.188   1.366   7.409 -0.7293  0.3864 -0.4210
   65SAPC  H10X 5378   0.180   1.347   7.300 -0.5453  0.9525 -0.5353
   65SAPC  H10Y 5379   0.167   1.474   7.422 -1.4493  0.1488  0.5137
   65SAPC  C311 5380   0.077   1.287   7.480 -1.3959 -0.1693 -0.0915
   65SAPC  H11X 5381   0.083   1.190   7.426  1.5877  0.2035 -0.6495
   65SAPC  H11Y 5382  -0.024   1.331   7.472 -0.5620  2.3919  1.8411
   65SAPC  C312 5383   0.101   1.259   7.633 -0.4085  0.0118  0.1581
   65SAPC  H12X 5384   0.211   1.256   7.653 -0.0971 -0.0815 -1.4105
   65SAPC  H12Y 5385   0.058   1.162   7.667 -1.8379  0.0134 -1.5307
   65SAPC  C313 5386   0.025   1.356   7.724  0.2810 -0.4773  0.1228
   65SAPC  H13X 5387  -0.083   1.364   7.697  0.8283  0.5241 -1.9424
   65SAPC  H13Y 5388   0.056   1.459   7.696 -2.5884  0.5299  0.3398
   65SAPC  C314 5389   0.057   1.337   7.869  0.4885 -0.0726  1.0990
   65SAPC  H14X 5390   0.167   1.336   7.887  0.7403  0.3473 -0.3166
   65SAPC  H14Y 5391   0.015   1.240   7.905 -0.6391 -0.2050 -0.5018
   65SAPC  C315 5392   0.003   1.451   7.956 -0.0774  0.3365  0.3826
   65SAPC  H15X 5393  -0.107   1.450   7.936 -0.1920  1.7790  0.7718
   65SAPC  H15Y 5394   0.055   1.543   7.922  0.2883 -0.3928 -1.0925
   65SAPC  C316 5395   0.020   1.429   8.103 -0.3528 -0.5981  0.1094
   65SAPC  H16X 5396   0.127   1.435   8.132  0.1963 -1.8858 -1.5081
   65SAPC  H16Y 5397  -0.005   1.324   8.130 -3.1307 -0.1330 -0.2951
   65SAPC  C317 5398  -0.041   1.536   8.188  0.5872  0.2714 -0.2306
   65SAPC  H17X 5399  -0.151   1.530   8.177  0.7878 -0.2800 -2.4521
   65SAPC  H17Y 5400  -0.021   1.640   8.154 -0.9024  0.2058 -1.4096
   65SAPC  C318 5401  -0.018   1.522   8.340  0.3979 -0.3565 -0.3969
   65SAPC  H18X 5402  -0.068   1.427   8.371  0.8401 -0.0970  1.1548
   65SAPC  H18Y 5403  -0.051   1.605   8.405  1.2964 -1.3245  1.3641
   65SAPC  H18Z 5404   0.091   1.510   8.358  0.3087 -0.4866  0.0559
   66SAPC     N 5405   4.232   2.909   5.890  0.4549 -0.1109  0.0798
   66SAPC   C12 5406   4.382   2.906   5.912 -0.0297 -0.0366  0.1527
   66SAPC  H12A 5407   4.440   2.908   5.821  1.2056 -1.2827  0.8683
   66SAPC  H12B 5408   4.413   2.814   5.961 -0.1099  0.2935  0.8285
   66SAPC   C13 5409   4.201   3.023   5.795  0.2021  0.1217  0.0277
   66SAPC  H13A 5410   4.228   3.117   5.839 -0.8553 -0.2708  1.5905
   66SAPC  H13B 5411   4.254   3.009   5.702 -0.3494 -0.3315 -0.2286
   66SAPC  H13C 5412   4.094   3.028   5.784  0.1323 -0.0936  0.5857
   66SAPC   C14 5413   4.180   2.777   5.825  0.0667 -0.0872 -0.2146
   66SAPC  H14A 5414   4.183   2.689   5.888  1.8342  0.2351  0.2023
   66SAPC  H14B 5415   4.082   2.795   5.782 -0.4179 -0.4671  0.6947
   66SAPC  H14C 5416   4.243   2.750   5.742  0.3379  0.0086 -0.0430
   66SAPC   C15 5417   4.165   2.929   6.026 -0.5953  0.2449 -0.1441
   66SAPC  H15A 5418   4.202   2.847   6.086 -2.5858 -0.7769 -0.2053
   66SAPC  H15B 5419   4.192   3.020   6.077 -1.1054  0.7771 -0.7949
   66SAPC  H15C 5420   4.059   2.923   6.003 -0.3229 -1.3708 -1.1433
   66SAPC   C11 5421   4.432   3.016   6.001 -0.3721 -0.1268 -0.2093
   66SAPC  H11A 5422   4.407   2.994   6.107  1.0146 -0.5692  0.0452
   66SAPC  H11B 5423   4.391   3.111   5.961  0.8528  1.3398  1.8090
   66SAPC     P 5424   4.679   2.897   6.033 -0.0326 -0.3661 -0.3389
   66SAPC   O13 5425   4.614   2.765   5.997  0.4158 -0.1912  0.3755
   66SAPC   O14 5426   4.819   2.927   5.989  0.3124  0.4675 -0.0178
   66SAPC   O12 5427   4.574   3.010   5.989  0.4234 -0.2032  0.3998
   66SAPC   O11 5428   4.679   2.918   6.193 -0.5932  0.4097  0.6694
   66SAPC    C1 5429   4.724   3.036   6.261 -0.0486 -0.2449  0.5283
   66SAPC    HA 5430   4.806   3.088   6.207 -1.0208  1.8653  0.9739
   66SAPC    HB 5431   4.634   3.097   6.282 -0.9834 -2.1802  2.6185
   66SAPC    C2 5432   4.776   3.007   6.403 -0.2619  0.1113 -1.1982
   66SAPC    HS 5433   4.692   2.999   6.475 -0.4967  0.8067 -1.3881
   66SAPC   O21 5434   4.871   3.107   6.448  0.1755 -0.0906 -0.3545
   66SAPC   C21 5435   4.819   3.223   6.486  0.4163  0.6797 -0.6242
   66SAPC   O22 5436   4.700   3.247   6.493  0.5696 -0.0888 -0.0168
   66SAPC   C22 5437   4.921   3.320   6.537  0.9209 -0.4445  1.0542
   66SAPC   H2R 5438   4.987   3.348   6.452  0.2717 -1.2241  0.2781
   66SAPC   H2S 5439   4.864   3.410   6.570  1.2933  0.0040  0.4915
   66SAPC    C3 5440   4.849   2.874   6.413 -1.3116  0.5477 -0.0190
   66SAPC    HX 5441   4.947   2.890   6.364 -0.8761 -1.3319  0.1407
   66SAPC    HY 5442   4.808   2.789   6.353  1.2352 -0.1068 -0.9346
   66SAPC   O31 5443   4.877   2.819   6.548 -0.8532 -0.1133  0.1165
   66SAPC   C31 5444   4.995   2.832   6.606 -0.2919 -0.5744  0.1247
   66SAPC   O32 5445   5.088   2.901   6.566 -0.5105 -0.3841  0.1736
   66SAPC   C32 5446   5.003   2.745   6.726  0.2808 -0.1753 -0.4314
   66SAPC   H2X 5447   5.090   2.676   6.720 -0.7010 -1.4303 -0.9491
   66SAPC   H2Y 5448   4.914   2.679   6.719 -0.8980  1.4950 -2.0920
   66SAPC   C23 5449   5.010   3.271   6.655 -1.1116 -0.0213  1.2191
   66SAPC   H3R 5450   5.095   3.342   6.665 -1.3290  0.5350 -0.4458
   66SAPC   H3S 5451   5.057   3.171   6.638 -0.8998 -0.0364  1.8838
   66SAPC   C24 5452   4.930   3.280   6.781 -0.4373  0.1159 -0.0370
   66SAPC   H4R 5453   4.835   3.223   6.771 -0.1456 -0.3977  0.1144
   66SAPC   H4S 5454   4.894   3.384   6.796 -1.4344 -0.5620  3.0960
   66SAPC   C25 5455   4.990   3.231   6.905 -0.2124 -0.1967 -0.1752
   66SAPC   H5R 5456   4.995   3.121   6.902 -0.2889 -0.3213  2.3384
   66SAPC   C26 5457   5.062   3.308   6.998 -0.7097 -0.1081  0.2795
   66SAPC   H6R 5458   5.101   3.256   7.088  0.5302  1.3897  0.6532
   66SAPC   C27 5459   5.090   3.456   6.990  0.0877 -0.2992 -0.2742
   66SAPC   H7R 5460   5.015   3.511   7.050  1.4629  0.6616  0.6270
   66SAPC   H7S 5461   5.066   3.485   6.885 -0.2950  2.4649  0.5059
   66SAPC   C28 5462   5.233   3.493   7.019 -0.2053  0.3702  0.3637
   66SAPC   H8R 5463   5.291   3.513   6.927  0.2896 -1.0062  0.3441
   66SAPC   C29 5464   5.303   3.489   7.129 -0.8843  0.4542  0.0456
   66SAPC   H9R 5465   5.409   3.521   7.135 -0.1775 -1.4119 -1.6792
   66SAPC  C210 5466   5.249   3.453   7.267  0.4500 -0.2081 -0.2535
   66SAPC  H10R 5467   5.314   3.379   7.318  0.5600 -0.5659 -0.9014
   66SAPC  H10S 5468   5.153   3.398   7.261  1.1810 -1.6435  0.6009
   66SAPC  C211 5469   5.227   3.574   7.364  0.4699  0.0128 -0.5158
   66SAPC  H11R 5470   5.143   3.641   7.342  1.4040  0.8481 -1.6950
   66SAPC  C212 5471   5.301   3.593   7.475  0.2540 -0.8247  0.6169
   66SAPC  H12R 5472   5.290   3.688   7.530 -2.1808  0.0990 -1.2848
   66SAPC  C213 5473   5.409   3.508   7.519 -0.6338 -0.7036  0.0316
   66SAPC  H13R 5474   5.471   3.471   7.434 -1.6074 -0.7601 -0.6630
   66SAPC  H13S 5475   5.364   3.422   7.573 -0.0749 -2.9845 -2.8646
   66SAPC  C214 5476   5.498   3.581   7.612 -0.4366  0.0929  0.1475
   66SAPC  H14R 5477   5.497   3.691   7.608 -2.6486  0.0921 -0.5531
   66SAPC  C215 5478   5.557   3.523   7.722  0.2795 -0.1366  0.4828
   66SAPC  H15R 5479   5.612   3.586   7.794 -0.0370  0.1740  0.4558
   66SAPC  C216 5480   5.539   3.383   7.769 -0.7436  0.5125 -0.5535
   66SAPC  H16R 5481   5.472   3.321   7.706 -0.3495 -0.0852 -0.3915
   66SAPC  H16S 5482   5.502   3.375   7.874 -1.4408 -1.5125 -0.8952
   66SAPC  C217 5483   5.670   3.298   7.761  0.2462 -0.1304 -0.8058
   66SAPC  H17R 5484   5.655   3.204   7.819  3.0946  0.1683  0.6141
   66SAPC  H17S 5485   5.744   3.358   7.819 -0.8288 -0.2510  0.7598
   66SAPC  C218 5486   5.720   3.276   7.617  0.3390 -0.0755 -0.2979
   66SAPC  H18R 5487   5.755   3.365   7.561  0.3745  0.7020  0.9194
   66SAPC  H18S 5488   5.626   3.243   7.567 -1.4588  2.2110  1.3170
   66SAPC  C219 5489   5.819   3.163   7.604 -0.8814  0.0045 -0.7135
   66SAPC  H19R 5490   5.784   3.073   7.659  0.1498 -1.0504 -1.7220
   66SAPC  H19S 5491   5.920   3.194   7.639 -0.8473 -0.7794 -0.0895
   66SAPC  C220 5492   5.845   3.119   7.461 -0.3095  0.2924  0.2081
   66SAPC  H20R 5493   5.868   3.199   7.388  0.1643 -0.3028 -0.3083
   66SAPC  H20S 5494   5.761   3.058   7.421  0.2382 -0.9979  0.9563
   66SAPC  H20T 5495   5.934   3.052   7.463 -1.0235 -0.7646  3.4925
   66SAPC   C33 5496   4.987   2.812   6.863  0.3406  0.8538  0.4386
   66SAPC   H3X 5497   4.899   2.878   6.853 -0.4707 -0.5012 -2.6677
   66SAPC   H3Y 5498   5.076   2.873   6.889  0.5456  0.1696  1.3998
   66SAPC   C34 5499   4.977   2.700   6.977 -0.2617  0.5404  0.4387
   66SAPC   H4X 5500   5.048   2.619   6.948  0.3795  0.7158  1.4903
   66SAPC   H4Y 5501   4.878   2.651   6.986  0.2704 -0.9674 -1.1854
   66SAPC   C35 5502   5.000   2.748   7.122  0.8878  0.0197  0.0268
   66SAPC   H5X 5503   4.934   2.833   7.146  1.1099 -0.4997  2.9109
   66SAPC   H5Y 5504   5.104   2.788   7.128  0.7205  0.4012  0.3853
   66SAPC   C36 5505   4.961   2.643   7.223 -0.4147  0.3959 -0.3130
   66SAPC   H6X 5506   5.023   2.553   7.204 -0.7370 -0.3260  1.8344
   66SAPC   H6Y 5507   4.856   2.616   7.202 -0.4955  1.5612 -1.5818
   66SAPC   C37 5508   4.977   2.684   7.370  0.3061 -0.7917 -0.3177
   66SAPC   H7X 5509   4.920   2.778   7.390 -0.2238 -1.3087  0.6918
   66SAPC   H7Y 5510   5.083   2.710   7.391 -0.0920 -0.4287  1.4230
   66SAPC   C38 5511   4.932   2.570   7.459  0.7984  0.4818 -0.4219
   66SAPC   H8X 5512   4.999   2.485   7.433 -0.1656 -0.0272 -1.3584
   66SAPC   H8Y 5513   4.833   2.523   7.439  1.6656 -1.3785 -0.5084
   66SAPC   C39 5514   4.940   2.601   7.606 -0.5708 -0.7875 -0.6787
   66SAPC   H9X 5515   4.879   2.687   7.642  1.4540 -0.1583  1.5124
   66SAPC   H9Y 5516   5.043   2.642   7.612 -1.4040  1.3734  0.1747
   66SAPC  C310 5517   4.930   2.478   7.696 -0.6811 -0.2838  0.4889
   66SAPC  H10X 5518   5.020   2.419   7.668 -1.0897  0.8639 -3.9528
   66SAPC  H10Y 5519   4.848   2.415   7.656  0.1795 -0.5880 -0.8355
   66SAPC  C311 5520   4.911   2.513   7.844 -0.0535  0.3021  0.3677
   66SAPC  H11X 5521   4.961   2.610   7.862 -1.1863  1.0523 -0.3513
   66SAPC  H11Y 5522   4.949   2.442   7.920  1.2698  0.5700 -0.0239
   66SAPC  C312 5523   4.761   2.536   7.874  0.5521 -0.6853 -0.6698
   66SAPC  H12X 5524   4.706   2.442   7.856 -2.7001  0.9388  0.0518
   66SAPC  H12Y 5525   4.717   2.607   7.800  0.4579 -0.0920 -0.0532
   66SAPC  C313 5526   4.728   2.575   8.023  0.4977  0.4219 -0.0384
   66SAPC  H13X 5527   4.780   2.672   8.042  1.5121  0.7424 -3.6738
   66SAPC  H13Y 5528   4.770   2.497   8.090  1.2579 -0.5506 -1.5602
   66SAPC  C314 5529   4.579   2.586   8.040  0.1252  0.0831  0.3861
   66SAPC  H14X 5530   4.542   2.486   8.008  0.3679 -0.1619  0.8638
   66SAPC  H14Y 5531   4.535   2.664   7.975 -0.7100 -2.6912 -2.6944
   66SAPC  C315 5532   4.548   2.606   8.190 -0.1744  0.9094  0.4229
   66SAPC  H15X 5533   4.602   2.698   8.221  1.6033  0.4459 -1.1076
   66SAPC  H15Y 5534   4.589   2.512   8.234 -1.7158 -0.9453 -1.8793
   66SAPC  C316 5535   4.398   2.614   8.220 -0.3375  0.1563 -0.1277
   66SAPC  H16X 5536   4.345   2.537   8.161 -1.5780 -0.0151  1.1602
   66SAPC  H16Y 5537   4.354   2.714   8.195  1.2407  1.3535  1.6302
   66SAPC  C317 5538   4.367   2.577   8.366  0.2073 -0.0410 -0.2026
   66SAPC  H17X 5539   4.407   2.660   8.429  2.0403 -2.0927  1.4833
   66SAPC  H17Y 5540   4.420   2.484   8.395  2.8883  1.0777 -1.1968
   66SAPC  C318 5541   4.216   2.557   8.394 -0.2271  0.3184 -0.3118
   66SAPC  H18X 5542   4.176   2.468   8.339 -1.0020  0.8751 -0.6792
   66SAPC  H18Y 5543   4.157   2.648   8.371  1.7455  1.3653 -1.4221
   66SAPC  H18Z 5544   4.187   2.539   8.499  1.3572  0.1919  0.1302
   67SAPC     N 5545   1.159   2.244   5.937 -0.9414  0.4377  0.1193
   67SAPC   C12 5546   1.182   2.140   6.045  0.7053 -0.1444 -0.2559
   67SAPC  H12A 5547   1.282   2.101   6.031  0.9676 -0.0403  1.1547
   67SAPC  H12B 5548   1.111   2.061   6.030  0.5779 -0.7625  2.8695
   67SAPC   C13 5549   1.182   2.186   5.805 -1.0202 -0.1092 -0.1911
   67SAPC  H13A 5550   1.151   2.258   5.730 -1.1842  1.6461  1.4931
   67SAPC  H13B 5551   1.286   2.181   5.775 -0.7712  3.3875 -0.3150
   67SAPC  H13C 5552   1.120   2.103   5.776 -1.4807  0.8144 -2.0516
   67SAPC   C14 5553   1.021   2.286   5.947 -0.3165 -0.1911  0.2095
   67SAPC  H14A 5554   0.950   2.211   5.916  0.0283 -0.2647 -0.4311
   67SAPC  H14B 5555   1.001   2.323   6.046 -3.4672  0.2061 -0.4557
   67SAPC  H14C 5556   1.001   2.366   5.876 -1.5194  0.2807  1.0567
   67SAPC   C15 5557   1.251   2.363   5.940  0.3735  0.6086 -0.0833
   67SAPC  H15A 5558   1.238   2.421   5.850  2.4220 -0.2499 -1.0068
   67SAPC  H15B 5559   1.240   2.419   6.032  1.8811  0.8929 -0.0465
   67SAPC  H15C 5560   1.351   2.321   5.938 -0.1607 -0.7453  0.3751
   67SAPC   C11 5561   1.170   2.173   6.193 -0.1376 -0.4157  0.4846
   67SAPC  H11A 5562   1.187   2.081   6.253  1.5354 -0.3960  0.0721
   67SAPC  H11B 5563   1.070   2.212   6.224  0.3062  3.6066 -2.3310
   67SAPC     P 5564   1.403   2.246   6.289  0.5489 -0.1476  0.1606
   67SAPC   O13 5565   1.487   2.179   6.188  0.4772  0.3831  0.1799
   67SAPC   O14 5566   1.458   2.371   6.344  0.2593 -0.2058 -0.4741
   67SAPC   O12 5567   1.261   2.279   6.231  0.4848 -0.1695  0.1076
   67SAPC   O11 5568   1.368   2.152   6.405 -0.4682 -0.2975 -0.2703
   67SAPC    C1 5569   1.261   2.168   6.501  0.1856 -0.2698  0.1671
   67SAPC    HA 5570   1.170   2.210   6.453  0.8798  0.4739 -0.5324
   67SAPC    HB 5571   1.242   2.067   6.543 -3.9804  0.7825  1.2749
   67SAPC    C2 5572   1.303   2.259   6.612  0.1883 -1.0248  0.0239
   67SAPC    HS 5573   1.309   2.362   6.571 -1.6022 -0.4134  1.1440
   67SAPC   O21 5574   1.436   2.214   6.641  0.0043 -0.3875  0.1014
   67SAPC   C21 5575   1.530   2.310   6.678  0.5470  0.2628  0.5482
   67SAPC   O22 5576   1.517   2.428   6.667 -0.5313  0.0766 -0.3964
   67SAPC   C22 5577   1.658   2.245   6.733 -0.1978  0.3169 -0.0940
   67SAPC   H2R 5578   1.642   2.151   6.790  0.0369 -0.0801 -0.6753
   67SAPC   H2S 5579   1.732   2.239   6.650  2.3063 -0.0632  2.0545
   67SAPC    C3 5580   1.207   2.249   6.736  0.7645  0.3045 -0.1173
   67SAPC    HX 5581   1.201   2.138   6.749 -0.2757  0.3810  0.1401
   67SAPC    HY 5582   1.108   2.283   6.696  0.9057 -0.6912 -1.4029
   67SAPC   O31 5583   1.249   2.314   6.857 -0.7308  0.5870  0.7712
   67SAPC   C31 5584   1.215   2.451   6.845  0.0071  0.7633  0.2496
   67SAPC   O32 5585   1.169   2.500   6.746 -0.3756 -0.2575  0.0676
   67SAPC   C32 5586   1.235   2.528   6.978 -0.3723  0.2571  0.2081
   67SAPC   H2X 5587   1.313   2.604   6.958 -0.4496  0.1177 -0.6752
   67SAPC   H2Y 5588   1.268   2.465   7.063 -2.0352 -0.7475  0.1631
   67SAPC   C23 5589   1.738   2.337   6.825 -0.2754 -0.2810 -0.2214
   67SAPC   H3R 5590   1.776   2.426   6.771 -0.5635  0.4057  0.6852
   67SAPC   H3S 5591   1.826   2.280   6.862  0.2962  0.7901  0.0976
   67SAPC   C24 5592   1.651   2.384   6.943 -0.1033  0.1077 -0.5455
   67SAPC   H4R 5593   1.628   2.288   6.994  0.8353 -0.1264 -0.5408
   67SAPC   H4S 5594   1.550   2.422   6.919  0.3366  0.5938 -1.7213
   67SAPC   C25 5595   1.717   2.489   7.033 -0.5238  0.5532 -0.6251
   67SAPC   H5R 5596   1.739   2.584   6.983  0.9192 -0.7992 -2.6922
   67SAPC   C26 5597   1.755   2.464   7.163 -0.1360 -0.0049  0.2942
   67SAPC   H6R 5598   1.781   2.548   7.229 -1.9337 -0.3222  1.4902
   67SAPC   C27 5599   1.740   2.342   7.248  0.8996 -0.7056 -0.2705
   67SAPC   H7R 5600   1.828   2.326   7.313  1.3583  2.1480 -0.0649
   67SAPC   H7S 5601   1.752   2.253   7.183  1.9789  0.0470 -1.1480
   67SAPC   C28 5602   1.612   2.324   7.322  0.0446 -0.1522 -0.4517
   67SAPC   H8R 5603   1.525   2.333   7.256  1.8596  0.2432 -2.9315
   67SAPC   C29 5604   1.604   2.271   7.451 -0.2005  0.8368  0.0355
   67SAPC   H9R 5605   1.505   2.247   7.495  0.0175  0.2116  0.1948
   67SAPC  C210 5606   1.724   2.232   7.535  0.2067 -0.2656  0.0424
   67SAPC  H10R 5607   1.815   2.294   7.523  1.7047 -2.3719 -0.0242
   67SAPC  H10S 5608   1.759   2.135   7.492  1.3328  0.4309 -0.6773
   67SAPC  C211 5609   1.695   2.211   7.672  0.0451 -0.4511 -0.2295
   67SAPC  H11R 5610   1.647   2.115   7.696  0.1116 -0.3151  0.5006
   67SAPC  C212 5611   1.718   2.293   7.774 -0.0779  0.1281 -0.1520
   67SAPC  H12R 5612   1.680   2.259   7.871  1.0300  1.0431  0.6306
   67SAPC  C213 5613   1.773   2.437   7.764 -0.0024 -0.0908  0.1799
   67SAPC  H13R 5614   1.736   2.487   7.672  1.3111  0.7566  0.0798
   67SAPC  H13S 5615   1.880   2.423   7.736 -0.6594 -1.3016 -1.9441
   67SAPC  C214 5616   1.750   2.534   7.878 -0.3596 -0.3042 -0.4595
   67SAPC  H14R 5617   1.828   2.604   7.913  0.1515 -2.2453  2.6913
   67SAPC  C215 5618   1.636   2.559   7.950  0.6065 -0.0538 -0.0399
   67SAPC  H15R 5619   1.636   2.626   8.037  0.5811  1.0319 -0.8486
   67SAPC  C216 5620   1.497   2.495   7.911 -0.8341 -0.6703  0.1831
   67SAPC  H16R 5621   1.499   2.447   7.811  1.3700  0.8151 -0.5578
   67SAPC  H16S 5622   1.421   2.576   7.906 -3.4981 -2.9662  1.0100
   67SAPC  C217 5623   1.449   2.383   8.020 -0.8783 -0.2723  0.3711
   67SAPC  H17R 5624   1.459   2.439   8.116 -1.6397 -1.7840  1.3762
   67SAPC  H17S 5625   1.528   2.306   8.015  1.0098  1.6560 -2.6942
   67SAPC  C218 5626   1.307   2.318   8.017 -0.2234 -0.1239 -0.4611
   67SAPC  H18R 5627   1.235   2.398   8.043 -1.6641 -0.7905 -2.1724
   67SAPC  H18S 5628   1.297   2.237   8.092 -2.5748  1.5635  1.2033
   67SAPC  C219 5629   1.259   2.271   7.880  0.1280  0.0082 -0.2692
   67SAPC  H19R 5630   1.345   2.231   7.822  0.3128 -0.8895  0.5958
   67SAPC  H19S 5631   1.226   2.361   7.823 -0.2250  0.2902  0.3776
   67SAPC  C220 5632   1.155   2.161   7.873  0.4642  0.0828  0.3193
   67SAPC  H20R 5633   1.217   2.071   7.895  1.7166  0.5725 -1.0280
   67SAPC  H20S 5634   1.116   2.135   7.772 -0.3604 -2.5628  1.2104
   67SAPC  H20T 5635   1.075   2.178   7.948  0.2279  1.8031 -0.2863
   67SAPC   C33 5636   1.113   2.625   6.996 -0.1228 -0.4674 -0.0259
   67SAPC   H3X 5637   1.025   2.564   7.026  1.3122 -0.7758  4.2486
   67SAPC   H3Y 5638   1.108   2.693   6.909  1.8125  0.6595  0.6900
   67SAPC   C34 5639   1.125   2.729   7.121 -0.0007  0.2334 -0.5440
   67SAPC   H4X 5640   1.216   2.790   7.106 -0.9296  2.2221  1.3480
   67SAPC   H4Y 5641   1.146   2.674   7.216 -1.4894  1.4235  0.5271
   67SAPC   C35 5642   1.005   2.813   7.148 -0.4149  0.0145  0.0397
   67SAPC   H5X 5643   0.924   2.749   7.187 -0.3270  0.0074  0.2121
   67SAPC   H5Y 5644   0.977   2.850   7.048 -0.5609 -0.8158 -0.2337
   67SAPC   C36 5645   1.033   2.946   7.231  0.5483  0.5960 -0.0356
   67SAPC   H6X 5646   0.956   3.024   7.212  1.7397  1.6658 -0.5845
   67SAPC   H6Y 5647   1.129   2.991   7.196  2.0930 -0.2667  2.8228
   67SAPC   C37 5648   1.038   2.916   7.380 -0.3379 -0.6692  0.5759
   67SAPC   H7X 5649   1.069   3.012   7.426  1.8374 -0.8290 -0.4105
   67SAPC   H7Y 5650   1.133   2.865   7.409  0.1093  0.1473  0.5710
   67SAPC   C38 5651   0.922   2.854   7.452  0.1879  0.8131 -0.4875
   67SAPC   H8X 5652   0.926   2.747   7.423  2.6614  0.5505  0.5166
   67SAPC   H8Y 5653   0.829   2.898   7.412 -1.1512 -0.6889  0.8051
   67SAPC   C39 5654   0.927   2.866   7.601 -0.2387 -0.2990 -0.9399
   67SAPC   H9X 5655   1.027   2.846   7.646  0.2881  0.1693 -1.8608
   67SAPC   H9Y 5656   0.840   2.815   7.647 -0.1181  0.6531  0.4185
   67SAPC  C310 5657   0.895   3.010   7.631  0.8243 -0.2364  0.4069
   67SAPC  H10X 5658   0.787   3.019   7.606  1.2354 -0.3926 -1.6076
   67SAPC  H10Y 5659   0.951   3.081   7.566  1.6858 -0.0985  1.2676
   67SAPC  C311 5660   0.912   3.056   7.775  1.0445 -0.0371 -0.6902
   67SAPC  H11X 5661   1.016   3.077   7.808  0.8421  3.4165 -1.8417
   67SAPC  H11Y 5662   0.885   2.976   7.846  1.1053  0.3089 -0.2752
   67SAPC  C312 5663   0.821   3.174   7.797 -0.0057 -0.1356 -0.1066
   67SAPC  H12X 5664   0.715   3.150   7.818  0.9545 -3.3299  1.8841
   67SAPC  H12Y 5665   0.818   3.240   7.708  1.5259  1.0508  0.6783
   67SAPC  C313 5666   0.870   3.269   7.912  0.5748 -0.2677 -0.0027
   67SAPC  H13X 5667   0.810   3.362   7.899  1.6741  0.4104 -0.3885
   67SAPC  H13Y 5668   0.977   3.296   7.898  0.5855  0.3952  1.1557
   67SAPC  C314 5669   0.846   3.211   8.048 -0.4929  0.3534 -0.2533
   67SAPC  H14X 5670   0.897   3.114   8.069 -1.2458 -0.0269 -0.1647
   67SAPC  H14Y 5671   0.739   3.192   8.068 -0.2317 -0.9124  0.0324
   67SAPC  C315 5672   0.882   3.307   8.162  0.4247 -0.2397 -0.0330
   67SAPC  H15X 5673   0.833   3.406   8.152 -0.9574 -0.9306 -0.3907
   67SAPC  H15Y 5674   0.991   3.327   8.169  0.2860  0.3549  0.4083
   67SAPC  C316 5675   0.840   3.249   8.293 -0.1664  0.2579 -0.1925
   67SAPC  H16X 5676   0.910   3.290   8.368  0.3297 -0.1068 -0.4512
   67SAPC  H16Y 5677   0.845   3.138   8.299  0.6281  0.2386 -1.0311
   67SAPC  C317 5678   0.704   3.298   8.346 -0.6010  1.0679 -0.4809
   67SAPC  H17X 5679   0.628   3.298   8.266 -0.6697 -0.3990 -0.4399
   67SAPC  H17Y 5680   0.721   3.402   8.380 -1.1969  1.5074 -1.4985
   67SAPC  C318 5681   0.654   3.213   8.465 -0.0311  0.2091 -0.0030
   67SAPC  H18X 5682   0.668   3.108   8.430  0.4747  0.6524 -1.1835
   67SAPC  H18Y 5683   0.550   3.239   8.492  0.3020  0.8759  0.6799
   67SAPC  H18Z 5684   0.722   3.237   8.550 -0.7079  0.6175  0.4261
   68SAPC     N 5685   5.515   2.943   6.092 -0.3074 -0.3124 -0.0885
   68SAPC   C12 5686   5.484   2.821   6.172  0.2339  0.2279 -0.0083
   68SAPC  H12A 5687   5.483   2.736   6.105 -0.4864 -1.2768  1.8230
   68SAPC  H12B 5688   5.386   2.829   6.216 -0.2126 -2.6814 -0.2167
   68SAPC   C13 5689   5.559   3.047   6.192 -0.5048  0.5159  0.8730
   68SAPC  H13A 5690   5.591   3.133   6.135  0.2444 -1.3009 -1.6541
   68SAPC  H13B 5691   5.474   3.071   6.254 -2.8622 -0.4755 -1.7514
   68SAPC  H13C 5692   5.644   3.018   6.251 -0.1954  1.8571  1.1113
   68SAPC   C14 5693   5.627   2.913   6.000  0.0895  0.2835  0.4240
   68SAPC  H14A 5694   5.605   2.828   5.936  0.1956 -0.0267  0.7957
   68SAPC  H14B 5695   5.654   2.994   5.934  1.0628 -1.0828 -0.9203
   68SAPC  H14C 5696   5.715   2.889   6.057 -0.3954 -0.4604  0.8774
   68SAPC   C15 5697   5.397   2.997   6.012 -0.0299  0.3775 -0.2757
   68SAPC  H15A 5698   5.350   2.916   5.958  2.8117 -1.7841  0.2413
   68SAPC  H15B 5699   5.327   3.039   6.082 -0.9943  0.0442 -1.0175
   68SAPC  H15C 5700   5.430   3.074   5.944 -0.1885 -0.9156 -1.8771
   68SAPC   C11 5701   5.575   2.780   6.300 -1.2874 -0.0336 -0.6635
   68SAPC  H11A 5702   5.552   2.673   6.323  1.6946 -0.8398 -0.9750
   68SAPC  H11B 5703   5.542   2.843   6.386  3.3276  1.0966  0.5977
   68SAPC     P 5704   5.801   2.708   6.197 -0.8009 -0.0588  0.0677
   68SAPC   O13 5705   5.710   2.617   6.124 -0.4849  0.4054 -0.0215
   68SAPC   O14 5706   5.893   2.793   6.114  0.1361 -0.2536  0.6479
   68SAPC   O12 5707   5.715   2.809   6.290 -0.1386 -0.0746  0.0052
   68SAPC   O11 5708   5.892   2.621   6.291  0.0660 -0.0299 -0.2679
   68SAPC    C1 5709   5.932   2.683   6.418  0.0329 -0.1841 -0.3060
   68SAPC    HA 5710   6.043   2.688   6.411  0.0743 -1.9614 -1.9568
   68SAPC    HB 5711   5.875   2.776   6.436 -0.2895 -0.1002 -1.6111
   68SAPC    C2 5712   5.905   2.580   6.527 -0.6234  0.2785  0.2299
   68SAPC    HS 5713   5.956   2.489   6.491  0.4696  1.3361 -0.9657
   68SAPC   O21 5714   5.766   2.570   6.525 -0.2975  0.6385 -0.2676
   68SAPC   C21 5715   5.717   2.465   6.574 -0.7355 -0.4392 -0.4738
   68SAPC   O22 5716   5.783   2.363   6.601  0.3030  0.3930  0.2845
   68SAPC   C22 5717   5.568   2.473   6.576  0.1404  0.3868 -0.7003
   68SAPC   H2R 5718   5.536   2.484   6.470  0.2695 -0.8888 -0.8817
   68SAPC   H2S 5719   5.553   2.369   6.612  0.6981  0.5076 -0.1056
   68SAPC    C3 5720   5.951   2.631   6.670 -0.3896  0.6999  0.8888
   68SAPC    HX 5721   5.881   2.713   6.696 -1.7512  0.1283 -0.8510
   68SAPC    HY 5722   6.057   2.666   6.664 -0.8557  1.9870 -0.4420
   68SAPC   O31 5723   5.932   2.534   6.767  0.0101  0.3018 -0.5593
   68SAPC   C31 5724   6.010   2.430   6.767  0.9446 -0.6398 -0.3709
   68SAPC   O32 5725   6.108   2.414   6.700 -0.0308  0.0773  0.0370
   68SAPC   C32 5726   5.952   2.332   6.868 -0.3741 -0.6182  0.0356
   68SAPC   H2X 5727   6.019   2.245   6.852 -0.2138 -0.4855 -0.0244
   68SAPC   H2Y 5728   5.845   2.317   6.843 -0.0522 -0.7081 -1.3544
   68SAPC   C23 5729   5.491   2.580   6.667  0.4608  0.6976  0.2185
   68SAPC   H3R 5730   5.382   2.563   6.657  0.3453  0.3930  1.8124
   68SAPC   H3S 5731   5.523   2.679   6.629  0.8628  1.0124  1.3425
   68SAPC   C24 5732   5.520   2.582   6.821 -0.5230  0.4109  0.1553
   68SAPC   H4R 5733   5.629   2.575   6.841 -0.5767 -2.8209 -0.0570
   68SAPC   H4S 5734   5.480   2.485   6.857 -0.0734  0.1843  0.0519
   68SAPC   C25 5735   5.450   2.699   6.879 -0.8566 -0.0434 -0.1450
   68SAPC   H5R 5736   5.437   2.783   6.809  0.8634 -0.9393 -1.6108
   68SAPC   C26 5737   5.422   2.709   7.008 -1.1535  0.0481  0.4739
   68SAPC   H6R 5738   5.378   2.803   7.044 -0.8497  0.2444  0.3307
   68SAPC   C27 5739   5.465   2.601   7.117 -0.4086 -0.2926  0.2327
   68SAPC   H7R 5740   5.576   2.603   7.126 -0.1966  0.0035 -1.9738
   68SAPC   H7S 5741   5.444   2.498   7.080  0.0533 -0.0840 -0.6524
   68SAPC   C28 5742   5.399   2.626   7.247 -0.2160 -0.6192 -0.3249
   68SAPC   H8R 5743   5.350   2.722   7.267  1.7022  0.3106  0.0979
   68SAPC   C29 5744   5.401   2.541   7.352  0.2981 -0.0570  0.5840
   68SAPC   H9R 5745   5.354   2.576   7.446  1.1329  0.5530  0.7846
   68SAPC  C210 5746   5.466   2.408   7.367  0.0213 -0.9508 -0.3804
   68SAPC  H10R 5747   5.522   2.385   7.274  0.8895  0.6590 -0.3019
   68SAPC  H10S 5748   5.392   2.325   7.368  0.2630 -1.1882 -1.0890
   68SAPC  C211 5749   5.563   2.393   7.482  0.3767 -0.2699 -0.0403
   68SAPC  H11R 5750   5.664   2.374   7.442 -0.1646 -0.1996 -1.5076
   68SAPC  C212 5751   5.539   2.406   7.615 -0.7154 -0.2059  0.1255
   68SAPC  H12R 5752   5.619   2.378   7.685  2.9775  0.6661 -3.3018
   68SAPC  C213 5753   5.394   2.429   7.667  0.4637  0.1109 -0.3435
   68SAPC  H13R 5754   5.377   2.356   7.750  0.1373 -0.0534 -0.5530
   68SAPC  H13S 5755   5.312   2.403   7.597 -0.3938 -0.9104  0.9751
   68SAPC  C214 5756   5.387   2.571   7.720  0.0381  0.0738  0.4768
   68SAPC  H14R 5757   5.415   2.638   7.637 -1.1778 -0.8166 -0.7006
   68SAPC  C215 5758   5.365   2.618   7.843 -0.1627  0.3640 -0.0235
   68SAPC  H15R 5759   5.387   2.724   7.860  1.8107 -0.1070  0.6155
   68SAPC  C216 5760   5.356   2.551   7.973  0.4632 -0.5354  0.1402
   68SAPC  H16R 5761   5.440   2.601   8.027  2.0859 -1.1094 -1.7293
   68SAPC  H16S 5762   5.373   2.442   7.964  0.3075 -0.5141 -0.4149
   68SAPC  C217 5763   5.221   2.582   8.052  0.3740  0.2205  0.7664
   68SAPC  H17R 5764   5.135   2.556   7.987  0.6448  0.2577  0.3892
   68SAPC  H17S 5765   5.212   2.690   8.079  0.4184 -0.2145  2.7271
   68SAPC  C218 5766   5.213   2.498   8.180  0.1600 -0.1610  0.4411
   68SAPC  H18R 5767   5.130   2.543   8.238  0.1844  1.7369 -0.9152
   68SAPC  H18S 5768   5.306   2.522   8.237  0.9955 -0.2698 -0.8404
   68SAPC  C219 5769   5.216   2.350   8.163 -0.0396 -0.8321  0.0359
   68SAPC  H19R 5770   5.318   2.313   8.139 -0.4134 -0.5103 -2.3196
   68SAPC  H19S 5771   5.160   2.329   8.069 -0.4969  1.1459 -0.1820
   68SAPC  C220 5772   5.155   2.276   8.288  0.0935  0.5324 -1.1112
   68SAPC  H20R 5773   5.167   2.166   8.291 -0.5388  0.4813 -0.0930
   68SAPC  H20S 5774   5.048   2.302   8.306  0.4652  0.5761  1.3934
   68SAPC  H20T 5775   5.216   2.300   8.377  0.0794  3.1515 -1.7198
   68SAPC   C33 5776   5.960   2.390   7.011 -0.6432  0.7556 -0.6375
   68SAPC   H3X 5777   5.897   2.481   7.012 -1.1269  0.4301 -0.9439
   68SAPC   H3Y 5778   6.062   2.427   7.036 -0.3256 -0.7658  0.5165
   68SAPC   C34 5779   5.933   2.280   7.121  0.3083 -0.0779 -0.5158
   68SAPC   H4X 5780   6.005   2.195   7.116  0.8059  0.3867 -1.7885
   68SAPC   H4Y 5781   5.831   2.241   7.102 -0.1092  0.3370  0.8251
   68SAPC   C35 5782   5.936   2.358   7.258  0.5042  0.0968 -0.3137
   68SAPC   H5X 5783   5.865   2.442   7.242 -0.1468 -0.6919 -1.6992
   68SAPC   H5Y 5784   6.043   2.386   7.268  0.2696  0.6361  0.8960
   68SAPC   C36 5785   5.909   2.272   7.384  0.6881  0.1575 -0.0434
   68SAPC   H6X 5786   5.988   2.194   7.381  0.7892  0.1422  1.8366
   68SAPC   H6Y 5787   5.807   2.230   7.395  1.1395 -0.9963 -0.0926
   68SAPC   C37 5788   5.936   2.355   7.514  0.7887  0.3313  0.1159
   68SAPC   H7X 5789   5.852   2.424   7.537  0.7463  0.1283  0.5743
   68SAPC   H7Y 5790   6.017   2.427   7.490  1.0345  0.5879  1.5945
   68SAPC   C38 5791   5.980   2.277   7.633 -0.3548 -0.0699 -0.0915
   68SAPC   H8X 5792   6.057   2.202   7.603 -0.9741 -1.7101  2.0679
   68SAPC   H8Y 5793   5.894   2.219   7.673  0.0409  0.2905  1.3554
   68SAPC   C39 5794   6.030   2.381   7.741 -0.3079  0.2986  0.2651
   68SAPC   H9X 5795   5.949   2.454   7.764 -0.5147  0.1388  0.0454
   68SAPC   H9Y 5796   6.122   2.439   7.716 -0.5231  0.9282  0.8766
   68SAPC  C310 5797   6.058   2.317   7.879  0.0359 -0.2520 -0.3128
   68SAPC  H10X 5798   5.978   2.242   7.896 -2.1595  1.0026 -3.8924
   68SAPC  H10Y 5799   6.060   2.394   7.959  1.4713 -1.1381  0.5530
   68SAPC  C311 5800   6.195   2.259   7.881 -0.5419  0.2268  0.2629
   68SAPC  H11X 5801   6.278   2.326   7.849  0.9412 -1.9834 -0.7313
   68SAPC  H11Y 5802   6.188   2.166   7.821 -0.8606 -0.4289  1.2957
   68SAPC  C312 5803   6.235   2.218   8.027 -0.4837  0.2423  0.4228
   68SAPC  H12X 5804   6.147   2.160   8.062 -2.5757  3.2878  0.6137
   68SAPC  H12Y 5805   6.250   2.315   8.080  0.6517  0.5752 -0.4677
   68SAPC  C313 5806   6.352   2.121   8.038 -0.0733 -0.1742 -0.1036
   68SAPC  H13X 5807   6.449   2.174   8.030 -0.2990  0.2439 -0.1648
   68SAPC  H13Y 5808   6.348   2.038   7.965  1.8717 -0.5882  0.2133
   68SAPC  C314 5809   6.347   2.054   8.178  0.1017  0.2361 -0.0677
   68SAPC  H14X 5810   6.263   1.982   8.190 -0.4620  1.0438  0.8983
   68SAPC  H14Y 5811   6.326   2.132   8.254 -2.4427 -0.7074  0.2916
   68SAPC  C315 5812   6.473   1.974   8.202  0.2324  0.1760 -0.5255
   68SAPC  H15X 5813   6.557   2.046   8.198  1.7297 -1.5296 -1.1215
   68SAPC  H15Y 5814   6.469   1.900   8.120 -2.3378  0.7547 -1.0126
   68SAPC  C316 5815   6.458   1.893   8.334 -0.3365 -0.1615  0.7160
   68SAPC  H16X 5816   6.381   1.816   8.316  0.6680 -0.7483 -1.3413
   68SAPC  H16Y 5817   6.436   1.972   8.409 -0.1267 -0.1026  0.7177
   68SAPC  C317 5818   6.586   1.821   8.379 -0.3196 -0.5087  0.4407
   68SAPC  H17X 5819   6.606   1.739   8.307 -0.1059  0.2483 -0.3838
   68SAPC  H17Y 5820   6.566   1.772   8.476 -0.5866  0.8965  1.1281
   68SAPC  C318 5821   6.699   1.917   8.392 -0.2787  0.4800  0.1900
   68SAPC  H18X 5822   6.784   1.869   8.445 -1.5747 -2.4087 -0.1569
   68SAPC  H18Y 5823   6.664   2.005   8.452  0.1066  0.5040  0.3802
   68SAPC  H18Z 5824   6.744   1.963   8.302  1.5295 -0.2311  0.6975
   69SLPC     N 5825   2.475   5.834  10.808  0.3481  0.0612 -0.2232
   69SLPC   C13 5826   2.353   5.773  10.749 -0.8472  0.3662  0.6317
   69SLPC  H13A 5827   2.315   5.699  10.818  0.4539 -0.2318  0.7385
   69SLPC  H13B 5828   2.279   5.845  10.717 -2.5994 -0.5572  2.3858
   69SLPC  H13C 5829   2.383   5.725  10.658 -1.9608  0.4421  0.2124
   69SLPC   C14 5830   2.597   5.764  10.759 -0.4185 -0.0513  0.1946
   69SLPC  H14A 5831   2.685   5.805  10.806  1.4669 -0.7458 -2.5351
   69SLPC  H14B 5832   2.585   5.661  10.788  1.6606 -0.7853 -1.3285
   69SLPC  H14C 5833   2.616   5.781  10.654  0.5283 -0.1099  0.3501
   69SLPC   C15 5834   2.477   5.825  10.959 -0.1304  0.4347  0.1084
   69SLPC  H15A 5835   2.404   5.883  11.013  0.2330 -1.4064  2.8067
   69SLPC  H15B 5836   2.447   5.723  10.978 -0.1885  0.0095 -1.9858
   69SLPC  H15C 5837   2.573   5.851  11.001 -0.1110 -1.5542  1.4137
   69SLPC   C12 5838   2.489   5.981  10.767 -0.2407 -0.3738  0.1721
   69SLPC  H12A 5839   2.399   6.001  10.710  1.2232 -1.6172 -2.7705
   69SLPC  H12B 5840   2.567   5.994  10.693  0.7312 -0.1172  1.2155
   69SLPC   C11 5841   2.498   6.094  10.871  0.0336 -0.4002 -0.4641
   69SLPC  H11A 5842   2.515   6.195  10.827 -2.1222  0.8958  1.4394
   69SLPC  H11B 5843   2.580   6.071  10.943  1.9368 -0.3144 -2.4961
   69SLPC     P 5844   2.233   6.123  10.877 -0.2656 -0.6341  0.1026
   69SLPC   O13 5845   2.146   6.001  10.892 -0.3416  0.1803  0.4876
   69SLPC   O14 5846   2.177   6.247  10.931 -1.1405 -0.7479  0.3358
   69SLPC   O12 5847   2.375   6.092  10.942 -0.1017  0.0862 -0.2287
   69SLPC   O11 5848   2.257   6.158  10.721  0.0752  0.1625 -0.6022
   69SLPC    C1 5849   2.299   6.292  10.692 -0.0486  0.5509 -1.3019
   69SLPC    HA 5850   2.229   6.368  10.733  1.0849  0.8287  0.2152
   69SLPC    HB 5851   2.397   6.324  10.734 -1.3279  0.5919  1.9920
   69SLPC    C2 5852   2.297   6.317  10.539  0.0503  0.5092 -0.0502
   69SLPC    HS 5853   2.188   6.319  10.520 -0.1787  0.3318  1.1501
   69SLPC   O21 5854   2.370   6.209  10.479  0.1375  0.1918  0.1573
   69SLPC   C21 5855   2.300   6.144  10.387 -0.2083  0.1777  0.5439
   69SLPC   O22 5856   2.198   6.177  10.329  0.6559  0.1120 -0.5446
   69SLPC   C22 5857   2.387   6.024  10.333  0.7057 -0.2222 -0.4448
   69SLPC   H2R 5858   2.417   5.954  10.414 -2.4148 -1.0241  0.1648
   69SLPC   H2S 5859   2.324   5.958  10.271  0.4900  1.1778 -1.7690
   69SLPC    C3 5860   2.353   6.458  10.494  0.1791  0.3218 -0.6282
   69SLPC    HX 5861   2.457   6.459  10.532  0.3912 -0.2749 -1.1923
   69SLPC    HY 5862   2.312   6.548  10.545  0.0190  0.1711 -0.4898
   69SLPC   O31 5863   2.336   6.475  10.353  0.1819 -0.2607 -0.5556
   69SLPC   C31 5864   2.208   6.489  10.300 -0.8554 -0.7511 -0.4556
   69SLPC   O32 5865   2.117   6.522  10.366  0.0397  0.7055 -0.7661
   69SLPC   C32 5866   2.221   6.498  10.153 -0.7284  0.4419 -0.5278
   69SLPC   H2X 5867   2.220   6.394  10.115 -0.7703  0.7132 -1.2862
   69SLPC   H2Y 5868   2.314   6.551  10.121  0.3330 -0.6413  0.6554
   69SLPC   C23 5869   2.498   6.077  10.245  0.5054 -0.7335  0.3884
   69SLPC   H3R 5870   2.576   5.997  10.238  1.5634  0.3556 -0.7388
   69SLPC   H3S 5871   2.542   6.162  10.300 -2.7497  0.1150  1.9073
   69SLPC   C24 5872   2.448   6.120  10.101 -0.0953  0.5582  1.0458
   69SLPC   H4R 5873   2.380   6.207  10.114 -1.4058  0.0943 -1.7057
   69SLPC   H4S 5874   2.388   6.038  10.055 -2.7370  2.9554 -0.0864
   69SLPC   C25 5875   2.558   6.140   9.993 -0.0059 -0.3887 -0.0987
   69SLPC   H5R 5876   2.646   6.071   9.994  0.0710 -0.4698 -3.2003
   69SLPC   H5S 5877   2.604   6.240  10.003 -0.2605 -0.2769 -0.0506
   69SLPC   C26 5878   2.504   6.151   9.859 -0.5045  0.0848  1.1586
   69SLPC   H6R 5879   2.412   6.212   9.852 -1.1475 -1.0134 -0.5999
   69SLPC   H6S 5880   2.482   6.049   9.821  1.9557  0.4228 -1.6516
   69SLPC   C27 5881   2.605   6.211   9.755  0.2715 -0.3476 -0.9025
   69SLPC   H7R 5882   2.704   6.165   9.768  0.8236  1.1746  0.7672
   69SLPC   H7S 5883   2.623   6.317   9.783 -2.8507 -0.1522  0.9074
   69SLPC   C28 5884   2.561   6.206   9.609  0.2494  0.4456  0.5206
   69SLPC   H8R 5885   2.495   6.118   9.598  0.1019  0.4784  1.0844
   69SLPC   H8S 5886   2.652   6.195   9.547  0.1106  1.4110  0.1295
   69SLPC   C29 5887   2.489   6.327   9.573  0.6612 -0.6551  0.6406
   69SLPC   H9R 5888   2.428   6.372   9.652  0.1465 -0.4219  0.1216
   69SLPC  C210 5889   2.500   6.400   9.460  0.6742  0.1649  0.2360
   69SLPC  H10R 5890   2.428   6.483   9.452  1.5167  0.9815  0.7961
   69SLPC  C211 5891   2.571   6.367   9.330  0.2324  0.0019  1.0967
   69SLPC  H11R 5892   2.606   6.261   9.333  0.4726  0.0627  0.6024
   69SLPC  H11S 5893   2.662   6.429   9.320  1.3191 -1.6341  0.3715
   69SLPC  C212 5894   2.484   6.377   9.207 -0.1520 -0.2774 -0.0109
   69SLPC  H12R 5895   2.400   6.307   9.203 -1.3472  1.1206  0.0863
   69SLPC  C213 5896   2.490   6.451   9.099  0.0396  0.1920  0.3763
   69SLPC  H13R 5897   2.420   6.422   9.020 -1.5628 -2.4935  2.6239
   69SLPC  C214 5898   2.599   6.543   9.055 -0.0918 -0.3080  0.4420
   69SLPC  H14R 5899   2.684   6.524   9.124  0.8712 -0.9288 -0.8659
   69SLPC  H14S 5900   2.572   6.649   9.077 -0.3306 -0.2558 -0.0849
   69SLPC  C215 5901   2.657   6.530   8.907 -0.2488  0.8225 -0.6519
   69SLPC  H15R 5902   2.683   6.424   8.886  0.5644  0.6558  1.0388
   69SLPC  H15S 5903   2.753   6.586   8.902  0.1669  0.1502 -0.3256
   69SLPC  C216 5904   2.559   6.581   8.801 -0.6881  0.3509  0.1252
   69SLPC  H16R 5905   2.529   6.675   8.853  0.0452  0.3949  0.4805
   69SLPC  H16S 5906   2.472   6.515   8.780  0.0372 -0.1231 -1.5857
   69SLPC  C217 5907   2.624   6.627   8.667  0.4709  0.0023 -0.3130
   69SLPC  H17R 5908   2.709   6.693   8.693 -1.3198  1.4517  2.2885
   69SLPC  H17S 5909   2.556   6.692   8.608  0.4270 -0.8046 -1.1761
   69SLPC  C218 5910   2.674   6.512   8.581  0.1250  0.0482  0.2646
   69SLPC  H18R 5911   2.585   6.454   8.547  1.3018 -1.3797 -0.5248
   69SLPC  H18S 5912   2.741   6.445   8.639 -0.7589 -0.9914  0.1191
   69SLPC  H18T 5913   2.731   6.538   8.489 -1.5516  0.0029 -0.8381
   69SLPC   C33 5914   2.093   6.563  10.093  0.2687 -0.2911  0.0777
   69SLPC   H3X 5915   2.074   6.662  10.139 -3.6609 -0.3075 -1.1393
   69SLPC   H3Y 5916   2.009   6.497  10.124 -0.0974 -0.2460 -0.8031
   69SLPC   C34 5917   2.099   6.588   9.939  0.2114  0.6458 -0.2280
   69SLPC   H4X 5918   1.994   6.611   9.909 -1.2322 -1.8120  2.3783
   69SLPC   H4Y 5919   2.125   6.495   9.884 -0.0146  1.2935 -1.4544
   69SLPC   C35 5920   2.193   6.701   9.893  0.1855  0.3042  0.1265
   69SLPC   H5X 5921   2.296   6.662   9.911 -0.0911  0.2400  1.6749
   69SLPC   H5Y 5922   2.172   6.793   9.951  0.3222 -0.1107  0.8478
   69SLPC   C36 5923   2.200   6.727   9.745  0.0271 -0.7589 -0.4913
   69SLPC   H6X 5924   2.111   6.790   9.724  0.4771  0.3716  0.8397
   69SLPC   H6Y 5925   2.184   6.630   9.693 -1.4861 -0.7532 -0.0778
   69SLPC   C37 5926   2.322   6.808   9.699  0.1045  0.0419  0.2939
   69SLPC   H7X 5927   2.421   6.757   9.700 -0.0034 -0.2555 -1.6217
   69SLPC   H7Y 5928   2.330   6.894   9.769  0.8370 -1.0657  1.6388
   69SLPC   C38 5929   2.316   6.860   9.547 -0.3642 -0.0348 -0.1704
   69SLPC   H8X 5930   2.401   6.930   9.531  0.9977 -1.2659  1.3768
   69SLPC   H8Y 5931   2.219   6.915   9.546  0.1055  0.8216 -0.4585
   69SLPC   C39 5932   2.317   6.755   9.435 -0.2015 -0.3163 -0.0970
   69SLPC   H9X 5933   2.249   6.672   9.464 -0.0085 -0.6012 -0.4482
   69SLPC   H9Y 5934   2.418   6.710   9.431 -0.1473 -0.1683 -0.4437
   69SLPC  C310 5935   2.264   6.822   9.304  0.0427 -0.3049  0.1034
   69SLPC  H10X 5936   2.327   6.911   9.284 -1.9252  0.9276 -0.9376
   69SLPC  H10Y 5937   2.164   6.863   9.330  0.7864  0.8652  1.2118
   69SLPC  C311 5938   2.259   6.726   9.183  1.5500 -0.0672 -0.7777
   69SLPC  H11X 5939   2.187   6.648   9.216  1.7409  0.2379  0.4075
   69SLPC  H11Y 5940   2.356   6.672   9.175  0.6346 -1.9862  0.3870
   69SLPC  C312 5941   2.204   6.774   9.050 -0.7086  0.2203  0.1704
   69SLPC  H12X 5942   2.216   6.695   8.973 -0.1394  0.9747 -0.5272
   69SLPC  H12Y 5943   2.261   6.863   9.018 -0.0502 -0.4095 -0.4398
   69SLPC  C313 5944   2.059   6.815   9.062 -0.1467  0.1465  0.2452
   69SLPC  H13X 5945   2.062   6.912   9.115  0.2110 -0.0170  0.5325
   69SLPC  H13Y 5946   1.996   6.741   9.117 -0.1980 -1.3287 -1.7031
   69SLPC  C314 5947   1.994   6.856   8.929 -0.4599  0.0352 -0.0507
   69SLPC  H14X 5948   1.887   6.882   8.940 -0.6608 -0.0899 -1.4295
   69SLPC  H14Y 5949   2.007   6.772   8.856  0.9952  1.6722 -1.7956
   69SLPC  C315 5950   2.055   6.992   8.882  0.1036 -0.0278 -0.2840
   69SLPC  H15X 5951   2.158   6.977   8.845  0.6857  0.6247  1.0145
   69SLPC  H15Y 5952   2.060   7.059   8.971  0.9241 -1.6288  0.9317
   69SLPC  C316 5953   1.992   7.060   8.757 -0.7676 -0.2265 -0.3183
   69SLPC  H16X 5954   1.884   7.032   8.765 -0.9045  0.5568  0.7763
   69SLPC  H16Y 5955   2.017   7.018   8.657 -0.1201 -1.4455  0.3266
   69SLPC  C317 5956   2.006   7.206   8.774  0.2589 -0.6047 -0.3861
   69SLPC  H17X 5957   2.115   7.225   8.760 -0.1492  1.4552 -1.1491
   69SLPC  H17Y 5958   1.980   7.242   8.876  0.0566  1.0440 -0.9855
   69SLPC  C318 5959   1.936   7.298   8.675 -0.2073 -0.4692 -0.4542
   69SLPC  H18X 5960   1.971   7.269   8.573  1.1801 -0.8164  0.0965
   69SLPC  H18Y 5961   1.969   7.401   8.699  0.4363 -0.2609 -2.1015
   69SLPC  H18Z 5962   1.827   7.285   8.691 -0.2827  2.5881  2.6813
   70SLPC     N 5963   5.737   4.429  10.700  0.7033  0.1579  0.2474
   70SLPC   C13 5964   5.637   4.527  10.746  0.3141  0.0203 -0.1509
   70SLPC  H13A 5965   5.555   4.530  10.675  0.3158  3.1690 -0.1510
   70SLPC  H13B 5966   5.589   4.505  10.840  1.1568 -1.7920 -0.1092
   70SLPC  H13C 5967   5.684   4.621  10.770  1.0152 -0.7616  1.7484
   70SLPC   C14 5968   5.744   4.424  10.550  0.3784  0.4362 -0.4824
   70SLPC  H14A 5969   5.781   4.519  10.514 -0.8278  1.1249  0.0548
   70SLPC  H14B 5970   5.820   4.353  10.520  1.3710 -0.1060  2.9176
   70SLPC  H14C 5971   5.651   4.404  10.499  0.8534 -0.2134 -1.1228
   70SLPC   C15 5972   5.692   4.287  10.742 -0.2858  0.4738 -0.5596
   70SLPC  H15A 5973   5.770   4.212  10.737 -0.2576  0.5515 -1.4152
   70SLPC  H15B 5974   5.658   4.286  10.845  3.1336 -3.7289  0.8734
   70SLPC  H15C 5975   5.618   4.252  10.671  0.3392 -0.1525 -0.9231
   70SLPC   C12 5976   5.876   4.450  10.763  0.3336  0.4481  0.2947
   70SLPC  H12A 5977   5.928   4.356  10.748  0.2149  0.5806 -1.0639
   70SLPC  H12B 5978   5.846   4.473  10.864 -1.1999  0.8949 -0.2430
   70SLPC   C11 5979   5.963   4.563  10.706 -0.5811  0.0951 -0.6825
   70SLPC  H11A 5980   5.976   4.555  10.595  0.1920 -1.0672 -0.5353
   70SLPC  H11B 5981   6.064   4.545  10.750 -2.1662 -3.8083  1.9559
   70SLPC     P 5982   5.972   4.829  10.740  0.1475 -0.0056 -0.2457
   70SLPC   O13 5983   5.896   4.917  10.840  0.0366  0.1516  0.3350
   70SLPC   O14 5984   6.117   4.833  10.751 -0.3473  0.5780 -0.7961
   70SLPC   O12 5985   5.915   4.681  10.758 -0.6266  0.0524  0.3340
   70SLPC   O11 5986   5.920   4.860  10.595 -0.1916  0.4307  0.3405
   70SLPC    C1 5987   5.784   4.842  10.567  0.2322 -0.9265 -0.0512
   70SLPC    HA 5988   5.764   4.733  10.573  2.2821 -1.3421  0.0638
   70SLPC    HB 5989   5.725   4.908  10.634  1.5390  0.7465 -0.4922
   70SLPC    C2 5990   5.744   4.893  10.426 -0.5151  0.0322 -0.2744
   70SLPC    HS 5991   5.786   4.824  10.350 -0.2636  1.3832 -1.3766
   70SLPC   O21 5992   5.791   5.027  10.394  0.0331 -0.2935  0.1427
   70SLPC   C21 5993   5.801   5.052  10.263 -0.0702  0.6866  0.9077
   70SLPC   O22 5994   5.819   4.965  10.176 -0.2092 -0.2578  0.2164
   70SLPC   C22 5995   5.816   5.199  10.245 -0.6742 -0.3593 -0.3791
   70SLPC   H2R 5996   5.750   5.254  10.316  2.2549  1.7416  0.9178
   70SLPC   H2S 5997   5.923   5.223  10.262 -0.8687  0.6813 -0.5572
   70SLPC    C3 5998   5.591   4.887  10.414  0.5277  0.3182 -0.3760
   70SLPC    HX 5999   5.559   4.970  10.481 -1.0854  1.2945 -2.2598
   70SLPC    HY 6000   5.557   4.788  10.452 -0.6927  0.6987 -0.4240
   70SLPC   O31 6001   5.556   4.921  10.277  0.1512 -0.1494 -0.5138
   70SLPC   C31 6002   5.555   4.820  10.187  0.0147 -0.5342 -0.4289
   70SLPC   O32 6003   5.584   4.703  10.204  0.0194 -0.5162  0.2068
   70SLPC   C32 6004   5.515   4.877  10.057  0.3148  0.6254  0.0064
   70SLPC   H2X 6005   5.596   4.939  10.012 -0.1959 -0.4913 -2.6662
   70SLPC   H2Y 6006   5.428   4.945  10.067 -1.0066 -1.2090  1.5970
   70SLPC   C23 6007   5.788   5.248  10.103  0.0501  0.2458 -0.5333
   70SLPC   H3R 6008   5.787   5.360  10.101  0.0194  0.4589  3.1344
   70SLPC   H3S 6009   5.684   5.218  10.076 -0.5423  0.6294  1.1607
   70SLPC   C24 6010   5.879   5.201   9.989 -0.4811 -0.4246  0.9845
   70SLPC   H4R 6011   5.874   5.090   9.979  0.0488 -0.2915 -1.1838
   70SLPC   H4S 6012   5.983   5.236  10.007 -0.9439  0.1903  2.7558
   70SLPC   C25 6013   5.848   5.263   9.851  0.8487 -0.0393 -0.5565
   70SLPC   H5R 6014   5.936   5.270   9.782 -0.9751 -1.1873 -3.1726
   70SLPC   H5S 6015   5.808   5.366   9.859  0.8280 -0.0481 -0.5476
   70SLPC   C26 6016   5.736   5.183   9.777  0.0494  0.4362 -0.1758
   70SLPC   H6R 6017   5.664   5.158   9.857  2.1956 -1.1764  1.3604
   70SLPC   H6S 6018   5.784   5.089   9.743 -0.8192  0.4369 -1.4875
   70SLPC   C27 6019   5.674   5.256   9.656 -0.6592 -0.1299 -0.5977
   70SLPC   H7R 6020   5.606   5.332   9.700 -0.9123 -1.0065  0.5604
   70SLPC   H7S 6021   5.620   5.183   9.592  1.0904 -0.9684 -1.1757
   70SLPC   C28 6022   5.770   5.330   9.557  0.2115  0.0813 -0.7356
   70SLPC   H8R 6023   5.856   5.264   9.532 -0.6121 -0.6694 -1.6383
   70SLPC   H8S 6024   5.820   5.414   9.609  3.1204 -1.9025 -0.0898
   70SLPC   C29 6025   5.690   5.371   9.439 -0.8846  0.1210  0.3436
   70SLPC   H9R 6026   5.614   5.450   9.448 -0.7437  0.4596 -1.1375
   70SLPC  C210 6027   5.701   5.311   9.315 -0.0770  0.5119  0.2857
   70SLPC  H10R 6028   5.625   5.346   9.244 -2.6042 -1.5060  1.7994
   70SLPC  C211 6029   5.794   5.191   9.285  0.1882 -0.1275  0.6804
   70SLPC  H11R 6030   5.773   5.113   9.360  0.4425 -0.2005  0.6761
   70SLPC  H11S 6031   5.895   5.227   9.315 -0.7226  4.4652 -0.9075
   70SLPC  C212 6032   5.799   5.134   9.143  0.9576  0.0149 -0.2993
   70SLPC  H12R 6033   5.748   5.037   9.135 -0.6191  0.8486 -0.6263
   70SLPC  C213 6034   5.862   5.191   9.038 -0.2811 -0.3216  0.1837
   70SLPC  H13R 6035   5.838   5.146   8.940  0.3895  1.5207 -0.8724
   70SLPC  C214 6036   5.939   5.318   9.026  0.7866 -0.3366 -0.1648
   70SLPC  H14R 6037   6.049   5.304   9.026  0.9223  0.5894 -0.8362
   70SLPC  H14S 6038   5.924   5.381   9.116  0.6278 -0.1572 -0.3144
   70SLPC  C215 6039   5.915   5.400   8.903 -0.1969 -0.7715  0.7257
   70SLPC  H15R 6040   5.950   5.353   8.809 -1.6808  0.5820 -0.5738
   70SLPC  H15S 6041   5.963   5.497   8.929 -1.1394  0.2345 -1.0410
   70SLPC  C216 6042   5.770   5.437   8.868 -0.0605  0.4353 -0.3725
   70SLPC  H16R 6043   5.711   5.453   8.961 -1.4080  0.6933 -1.2316
   70SLPC  H16S 6044   5.726   5.339   8.840  1.0376 -0.3254  0.5397
   70SLPC  C217 6045   5.759   5.552   8.760 -1.0426  0.1510  0.2652
   70SLPC  H17R 6046   5.810   5.645   8.794 -2.1567  0.5344  0.9497
   70SLPC  H17S 6047   5.651   5.570   8.743 -1.3331 -2.0430 -0.5399
   70SLPC  C218 6048   5.830   5.516   8.632 -0.2360 -0.2107 -0.3242
   70SLPC  H18R 6049   5.939   5.496   8.644 -0.2863 -0.4797 -0.3313
   70SLPC  H18S 6050   5.818   5.598   8.557  0.3606 -1.4751 -1.8486
   70SLPC  H18T 6051   5.770   5.432   8.593  0.2017  1.1063 -4.2814
   70SLPC   C33 6052   5.471   4.762   9.966  0.2396  0.1994 -0.2099
   70SLPC   H3X 6053   5.368   4.737   9.995  0.0542 -0.0956 -1.0897
   70SLPC   H3Y 6054   5.542   4.677   9.975  0.0283  0.0357 -0.0951
   70SLPC   C34 6055   5.471   4.793   9.818 -0.4540  0.0965  0.7836
   70SLPC   H4X 6056   5.423   4.704   9.772 -0.3413  1.2016 -1.6748
   70SLPC   H4Y 6057   5.571   4.822   9.779 -0.9958  2.5706  1.0710
   70SLPC   C35 6058   5.388   4.920   9.780 -0.0853  0.0484 -0.0567
   70SLPC   H5X 6059   5.413   5.008   9.842 -1.8658 -0.3658  1.3430
   70SLPC   H5Y 6060   5.283   4.889   9.802  0.0972 -0.4165  0.1850
   70SLPC   C36 6061   5.402   4.950   9.622  0.5261  0.1450  0.0797
   70SLPC   H6X 6062   5.503   4.995   9.605  0.9878 -1.4831 -1.9529
   70SLPC   H6Y 6063   5.325   5.023   9.588  1.4494  0.2771 -1.9164
   70SLPC   C37 6064   5.406   4.829   9.533 -0.3866 -0.8958 -0.1453
   70SLPC   H7X 6065   5.330   4.758   9.571 -0.8376  0.1284  0.9469
   70SLPC   H7Y 6066   5.508   4.788   9.544  0.0944 -0.0844 -1.3789
   70SLPC   C38 6067   5.381   4.867   9.390  0.1664  0.4913 -0.4046
   70SLPC   H8X 6068   5.304   4.947   9.379 -0.2372 -0.0591 -1.9209
   70SLPC   H8Y 6069   5.333   4.774   9.352 -0.7334  0.5109  0.6345
   70SLPC   C39 6070   5.503   4.904   9.296 -0.2107 -0.1444  0.0396
   70SLPC   H9X 6071   5.536   4.995   9.352 -0.9128  0.2441 -0.1621
   70SLPC   H9Y 6072   5.475   4.942   9.195 -1.6180 -0.0378  0.4440
   70SLPC  C310 6073   5.611   4.801   9.282 -0.0876  0.0852  0.3883
   70SLPC  H10X 6074   5.611   4.713   9.351  1.8422 -1.5289 -1.5271
   70SLPC  H10Y 6075   5.706   4.858   9.271 -0.8571  1.1605 -1.0179
   70SLPC  C311 6076   5.589   4.724   9.140  0.0625 -0.6683 -0.4023
   70SLPC  H11X 6077   5.586   4.804   9.063 -1.8866  0.3046  0.6373
   70SLPC  H11Y 6078   5.491   4.671   9.135 -2.0659  3.0238 -0.8601
   70SLPC  C312 6079   5.708   4.631   9.104 -0.4878 -0.0626  0.8926
   70SLPC  H12X 6080   5.724   4.549   9.177  0.6172 -1.9500 -1.3384
   70SLPC  H12Y 6081   5.803   4.689   9.100 -1.5146  1.7536  1.3807
   70SLPC  C313 6082   5.683   4.553   8.974  0.3687 -0.8498  0.1013
   70SLPC  H13X 6083   5.592   4.490   8.985  0.5631 -0.7014  3.6116
   70SLPC  H13Y 6084   5.772   4.491   8.953  1.5491  1.0737 -0.8870
   70SLPC  C314 6085   5.667   4.632   8.841  0.1506 -0.0055  0.1494
   70SLPC  H14X 6086   5.749   4.697   8.807  0.6923 -0.9927 -0.4703
   70SLPC  H14Y 6087   5.582   4.700   8.860  1.9673  2.3254  0.2901
   70SLPC  C315 6088   5.635   4.550   8.719  0.2648 -0.8230 -0.0249
   70SLPC  H15X 6089   5.548   4.483   8.738 -1.2606  1.0357 -0.1337
   70SLPC  H15Y 6090   5.725   4.486   8.708  2.9311  2.4450  0.8728
   70SLPC  C316 6091   5.606   4.641   8.599 -0.0800 -0.3339  0.5678
   70SLPC  H16X 6092   5.634   4.584   8.508 -0.7086 -0.6477  0.5653
   70SLPC  H16Y 6093   5.669   4.733   8.607 -0.7113  0.1566  0.0853
   70SLPC  C317 6094   5.454   4.673   8.584  0.1003 -0.7318 -0.1262
   70SLPC  H17X 6095   5.426   4.721   8.680  0.4385 -0.2064 -0.2885
   70SLPC  H17Y 6096   5.398   4.577   8.574 -0.6046 -0.1860 -1.7820
   70SLPC  C318 6097   5.419   4.757   8.463  0.2281 -0.4989  0.3530
   70SLPC  H18X 6098   5.311   4.783   8.456  0.4338  1.1387  2.4064
   70SLPC  H18Y 6099   5.448   4.697   8.373 -0.3538 -0.9791  0.4705
   70SLPC  H18Z 6100   5.468   4.856   8.465 -1.0123  0.1445  0.2711
   71SLPC     N 6101   4.713   3.037  11.061  0.5430 -0.4332 -0.0728
   71SLPC   C13 6102   4.655   2.952  11.165  0.2337 -0.9522  0.3682
   71SLPC  H13A 6103   4.574   3.003  11.214  1.9369  1.8584  0.5031
   71SLPC  H13B 6104   4.617   2.861  11.120 -0.4226 -0.8430  0.7004
   71SLPC  H13C 6105   4.726   2.916  11.238  1.4210 -0.7005 -0.6106
   71SLPC   C14 6106   4.828   2.980  11.004 -0.0806  1.0314 -0.2258
   71SLPC  H14A 6107   4.809   2.882  10.962 -1.5626  0.0749  2.4089
   71SLPC  H14B 6108   4.871   3.059  10.944  0.0984  1.1319  0.0299
   71SLPC  H14C 6109   4.895   2.956  11.086  0.0651 -1.5486 -1.0193
   71SLPC   C15 6110   4.753   3.170  11.131  0.2235  0.2879  0.1770
   71SLPC  H15A 6111   4.820   3.154  11.214  0.0618  1.5317  0.5631
   71SLPC  H15B 6112   4.798   3.240  11.063 -0.4915  1.6787  1.0808
   71SLPC  H15C 6113   4.668   3.221  11.175 -2.1012 -2.8684 -0.2632
   71SLPC   C12 6114   4.618   3.071  10.946 -0.0036  0.1741 -1.2113
   71SLPC  H12A 6115   4.670   3.122  10.866  2.2365  0.8482  0.5439
   71SLPC  H12B 6116   4.542   3.138  10.982  0.1728 -0.4015  0.3060
   71SLPC   C11 6117   4.551   2.952  10.877 -0.0993  0.6778 -0.9820
   71SLPC  H11A 6118   4.481   2.996  10.802 -2.5768 -0.5690  0.4751
   71SLPC  H11B 6119   4.482   2.912  10.955 -0.2161  4.0773  0.8436
   71SLPC     P 6120   4.561   2.726  10.752 -0.2904  0.2115  0.2171
   71SLPC   O13 6121   4.653   2.610  10.759 -0.2752  0.0396  0.7492
   71SLPC   O14 6122   4.419   2.716  10.794 -0.5405 -0.1100  0.5855
   71SLPC   O12 6123   4.632   2.847  10.828  0.1377 -0.0347 -0.7151
   71SLPC   O11 6124   4.571   2.796  10.608  0.2604  0.1337  0.1004
   71SLPC    C1 6125   4.506   2.756  10.488  0.5578 -0.5169  0.0385
   71SLPC    HA 6126   4.403   2.717  10.503  1.3525 -3.6078 -1.6786
   71SLPC    HB 6127   4.502   2.844  10.420  2.4828 -2.2079 -2.4720
   71SLPC    C2 6128   4.585   2.654  10.403 -0.8757  0.0199  0.2524
   71SLPC    HS 6129   4.689   2.687  10.425 -1.3580 -0.1910  3.3323
   71SLPC   O21 6130   4.545   2.667  10.267  0.6045  0.1740  0.0312
   71SLPC   C21 6131   4.637   2.711  10.184 -0.1593 -0.4501 -0.8990
   71SLPC   O22 6132   4.749   2.750  10.219 -0.2892  0.1559 -0.5237
   71SLPC   C22 6133   4.582   2.703  10.043  0.0723  0.0863  0.2245
   71SLPC   H2R 6134   4.530   2.605  10.037  1.0958 -0.4652  0.2370
   71SLPC   H2S 6135   4.512   2.788  10.023 -2.6907 -1.8158  1.1853
   71SLPC    C3 6136   4.579   2.510  10.457  1.2632  0.6336  0.0240
   71SLPC    HX 6137   4.473   2.489  10.482  0.2316  3.3548 -1.7114
   71SLPC    HY 6138   4.638   2.512  10.552  0.3845 -0.3682  0.6115
   71SLPC   O31 6139   4.629   2.416  10.361 -0.2971  0.2006 -0.0426
   71SLPC   C31 6140   4.605   2.292  10.393  0.0768 -0.2433 -0.5756
   71SLPC   O32 6141   4.537   2.257  10.489 -0.3472  0.5061  0.3083
   71SLPC   C32 6142   4.662   2.201  10.292 -0.4283  0.2393 -0.1611
   71SLPC   H2X 6143   4.648   2.094  10.320  2.8120  0.0025  1.0423
   71SLPC   H2Y 6144   4.772   2.215  10.285 -0.2009 -1.5079 -0.6421
   71SLPC   C23 6145   4.688   2.703   9.929 -0.2762  0.3605 -0.1608
   71SLPC   H3R 6146   4.767   2.628   9.950  1.0647  1.9129  0.5977
   71SLPC   H3S 6147   4.747   2.797   9.931 -0.2935  0.3661  0.3143
   71SLPC   C24 6148   4.624   2.679   9.796  0.0835  0.4338  0.2462
   71SLPC   H4R 6149   4.568   2.768   9.762 -1.5340  0.7574  3.4425
   71SLPC   H4S 6150   4.561   2.588   9.803 -2.9503  2.4752  1.3528
   71SLPC   C25 6151   4.731   2.653   9.688 -0.2448 -0.0690 -0.0515
   71SLPC   H5R 6152   4.784   2.558   9.712 -0.9022 -0.6834 -0.9873
   71SLPC   H5S 6153   4.809   2.731   9.707 -0.8738  0.0970  2.1549
   71SLPC   C26 6154   4.685   2.647   9.540 -0.5474 -0.1004 -0.2685
   71SLPC   H6R 6155   4.626   2.737   9.512  1.4416  1.6285  0.7978
   71SLPC   H6S 6156   4.607   2.567   9.543  0.6297 -1.4092 -2.1219
   71SLPC   C27 6157   4.791   2.594   9.442  0.8871 -0.3733 -0.2127
   71SLPC   H7R 6158   4.816   2.489   9.470  0.2468  0.2946  3.2888
   71SLPC   H7S 6159   4.878   2.661   9.461 -1.2321  1.8694  2.2441
   71SLPC   C28 6160   4.749   2.604   9.289 -0.2243 -0.1922  0.2093
   71SLPC   H8R 6161   4.835   2.582   9.222 -0.6240  1.9216 -1.1184
   71SLPC   H8S 6162   4.731   2.713   9.276 -1.0619 -0.0311  2.3661
   71SLPC   C29 6163   4.632   2.515   9.253  0.8762 -0.0097  0.4760
   71SLPC   H9R 6164   4.607   2.447   9.335  2.3822 -1.8114 -0.4998
   71SLPC  C210 6165   4.558   2.512   9.141  0.4666  0.4755  0.0366
   71SLPC  H10R 6166   4.481   2.433   9.140  0.9830 -0.0748  1.2816
   71SLPC  C211 6167   4.584   2.593   9.013  0.3175  0.2030 -0.3037
   71SLPC  H11R 6168   4.693   2.615   9.005  0.4884 -0.9500 -1.5489
   71SLPC  H11S 6169   4.532   2.687   9.039  1.6100  0.6960  0.5570
   71SLPC  C212 6170   4.539   2.513   8.892  0.5393 -0.6971  0.2432
   71SLPC  H12R 6171   4.579   2.412   8.875 -1.4678 -1.6604  1.0063
   71SLPC  C213 6172   4.449   2.561   8.806  0.3613 -0.0789 -0.0179
   71SLPC  H13R 6173   4.424   2.506   8.714 -1.7504  2.6203 -1.2108
   71SLPC  C214 6174   4.377   2.695   8.813  0.6620 -0.5493  0.4224
   71SLPC  H14R 6175   4.406   2.747   8.907 -0.3696 -0.8674  0.9313
   71SLPC  H14S 6176   4.268   2.676   8.818  0.8241 -1.5675  0.2063
   71SLPC  C215 6177   4.404   2.800   8.702  0.6982  0.0981  0.0089
   71SLPC  H15R 6178   4.371   2.896   8.747  1.0396  1.6870 -2.9053
   71SLPC  H15S 6179   4.345   2.776   8.611  0.5450 -0.0870  0.1564
   71SLPC  C216 6180   4.549   2.808   8.650  0.0251  0.2136  0.1844
   71SLPC  H16R 6181   4.566   2.731   8.572  0.5636 -0.9466  1.4029
   71SLPC  H16S 6182   4.609   2.783   8.740 -2.9768  1.0675  2.6331
   71SLPC  C217 6183   4.585   2.939   8.591  0.1215 -0.4570  0.2627
   71SLPC  H17R 6184   4.548   3.027   8.648  1.4874 -1.3727  2.7284
   71SLPC  H17S 6185   4.534   2.942   8.492 -0.5707  3.0766  0.5956
   71SLPC  C218 6186   4.735   2.961   8.567  0.0394  0.3853  0.6523
   71SLPC  H18R 6187   4.765   3.068   8.565  0.9954  0.3037  4.0573
   71SLPC  H18S 6188   4.771   2.910   8.476 -1.1087  2.1928 -0.8975
   71SLPC  H18T 6189   4.780   2.913   8.656 -0.0890 -0.0922  0.4631
   71SLPC   C33 6190   4.614   2.228  10.148  0.5487  0.2059  0.2319
   71SLPC   H3X 6191   4.624   2.335  10.118 -0.2735 -0.4227 -2.6059
   71SLPC   H3Y 6192   4.508   2.197  10.137  0.8680 -0.9105  0.1968
   71SLPC   C34 6193   4.689   2.153  10.035 -0.0929 -0.5404 -0.4873
   71SLPC   H4X 6194   4.656   2.049  10.057 -0.4399 -0.3834 -0.2511
   71SLPC   H4Y 6195   4.797   2.176  10.050 -0.1839  1.7697 -2.6901
   71SLPC   C35 6196   4.674   2.206   9.892 -0.0563  0.0568  0.4167
   71SLPC   H5X 6197   4.685   2.317   9.890 -3.1535  0.5403 -3.6176
   71SLPC   H5Y 6198   4.567   2.192   9.864  0.2750 -2.3956  0.2061
   71SLPC   C36 6199   4.759   2.135   9.791  0.1057 -0.1865  0.4386
   71SLPC   H6X 6200   4.744   2.025   9.802  0.9968 -0.3720 -0.1359
   71SLPC   H6Y 6201   4.866   2.154   9.812 -0.0276  1.6634 -0.3793
   71SLPC   C37 6202   4.734   2.182   9.647 -0.8780  0.6889 -0.2027
   71SLPC   H7X 6203   4.790   2.277   9.645  0.0730  0.1867  1.1634
   71SLPC   H7Y 6204   4.625   2.201   9.637 -0.7641  2.9151  1.8294
   71SLPC   C38 6205   4.799   2.092   9.541 -0.0338 -0.8120  0.3098
   71SLPC   H8X 6206   4.761   1.988   9.545 -1.6586 -0.2979 -0.6347
   71SLPC   H8Y 6207   4.909   2.099   9.557 -0.4345 -0.2752  3.5632
   71SLPC   C39 6208   4.781   2.151   9.401  0.6222 -0.4886  0.2947
   71SLPC   H9X 6209   4.770   2.261   9.403  3.3008 -0.1638  1.1480
   71SLPC   H9Y 6210   4.679   2.129   9.365  0.6801 -1.1566  0.5224
   71SLPC  C310 6211   4.867   2.096   9.291 -0.0979  0.1939 -0.1916
   71SLPC  H10X 6212   4.868   1.986   9.283  1.5058  0.3294 -2.9659
   71SLPC  H10Y 6213   4.968   2.129   9.324 -0.1969 -0.3353  0.6878
   71SLPC  C311 6214   4.834   2.147   9.156  0.6803 -0.2110  0.1659
   71SLPC  H11X 6215   4.817   2.256   9.172 -0.3809 -0.3797  0.2652
   71SLPC  H11Y 6216   4.744   2.087   9.129 -0.0791  0.0542  1.9274
   71SLPC  C312 6217   4.942   2.139   9.045 -0.8977 -0.1533 -0.1254
   71SLPC  H12X 6218   4.973   2.034   9.024 -0.1425  0.3155 -1.4032
   71SLPC  H12Y 6219   5.027   2.197   9.084 -0.5309  0.4954 -1.8250
   71SLPC  C313 6220   4.890   2.201   8.912  0.4253 -0.5514  0.2002
   71SLPC  H13X 6221   4.858   2.306   8.927  0.3240 -0.5378 -0.1029
   71SLPC  H13Y 6222   4.800   2.152   8.869 -1.1457  1.6844  0.7521
   71SLPC  C314 6223   4.995   2.203   8.799  0.1791  0.0144 -0.0538
   71SLPC  H14X 6224   5.035   2.100   8.783  2.3404  1.0177 -1.6480
   71SLPC  H14Y 6225   5.084   2.266   8.823  1.0143 -0.2275 -2.2371
   71SLPC  C315 6226   4.938   2.253   8.660 -0.5038  0.4090 -0.4249
   71SLPC  H15X 6227   4.849   2.197   8.625 -0.1572 -0.5238  0.1689
   71SLPC  H15Y 6228   5.016   2.238   8.582  3.1000  1.1229  2.7286
   71SLPC  C316 6229   4.902   2.398   8.650  0.4482  0.1600 -0.6176
   71SLPC  H16X 6230   4.980   2.460   8.699  0.7360  0.4825 -1.4671
   71SLPC  H16Y 6231   4.810   2.425   8.706  1.2168  2.4663 -0.3596
   71SLPC  C317 6232   4.887   2.442   8.508  0.5612 -0.6408  0.7532
   71SLPC  H17X 6233   4.835   2.363   8.451  1.2119  0.2952 -1.2157
   71SLPC  H17Y 6234   4.988   2.444   8.461 -0.1075 -1.5674 -0.7951
   71SLPC  C318 6235   4.825   2.583   8.487  0.7222 -0.2872 -0.2352
   71SLPC  H18X 6236   4.717   2.586   8.514  0.1899  2.7679 -2.1365
   71SLPC  H18Y 6237   4.825   2.608   8.379 -0.1822  4.0370  0.5568
   71SLPC  H18Z 6238   4.881   2.666   8.536 -1.9794  3.8635 -3.4138
   72SLPC     N 6239   5.320   2.445  10.881  0.2440 -0.4722 -0.6025
   72SLPC   C13 6240   5.208   2.376  10.807 -0.2458 -0.5664  0.2709
   72SLPC  H13A 6241   5.132   2.447  10.775 -0.1191 -1.2718 -1.7479
   72SLPC  H13B 6242   5.250   2.327  10.720 -0.3353 -0.3771  0.1188
   72SLPC  H13C 6243   5.167   2.304  10.876  2.4729 -1.3516  1.1488
   72SLPC   C14 6244   5.404   2.343  10.945 -0.4240 -0.0700 -0.3779
   72SLPC  H14A 6245   5.485   2.393  10.994 -0.5240  0.2216 -0.5102
   72SLPC  H14B 6246   5.339   2.281  11.005  0.1830 -2.6568 -2.2033
   72SLPC  H14C 6247   5.444   2.278  10.868  1.4065 -1.2751  1.4965
   72SLPC   C15 6248   5.266   2.525  10.995  0.0449 -0.7397  0.0001
   72SLPC  H15A 6249   5.345   2.574  11.050 -0.2242  0.4841 -0.6717
   72SLPC  H15B 6250   5.202   2.605  10.961 -0.3447 -0.1373  1.9787
   72SLPC  H15C 6251   5.210   2.459  11.060 -0.8378  0.7613  0.8434
   72SLPC   C12 6252   5.406   2.532  10.787  0.5019  0.6235  0.7718
   72SLPC  H12A 6253   5.483   2.590  10.836  1.0501 -0.1257  0.8301
   72SLPC  H12B 6254   5.343   2.602  10.735  1.1266  0.8107  0.2620
   72SLPC   C11 6255   5.485   2.462  10.672 -0.1658  0.8409 -0.1337
   72SLPC  H11A 6256   5.524   2.525  10.588  1.6901 -1.2636 -0.9599
   72SLPC  H11B 6257   5.424   2.378  10.632  1.3665 -0.4492  0.1489
   72SLPC     P 6258   5.730   2.476  10.786  0.2089  0.1235  0.0714
   72SLPC   O13 6259   5.685   2.586  10.877 -0.0263  0.0645  0.1124
   72SLPC   O14 6260   5.821   2.371  10.842 -0.1812 -0.6081 -0.6584
   72SLPC   O12 6261   5.600   2.403  10.737  0.0372  0.4655  0.4579
   72SLPC   O11 6262   5.774   2.534  10.649 -0.3865 -0.2777  0.2141
   72SLPC    C1 6263   5.867   2.449  10.577 -0.2716 -0.3289 -0.0920
   72SLPC    HA 6264   5.971   2.453  10.616  0.2360 -3.6804 -0.7578
   72SLPC    HB 6265   5.845   2.340  10.586  1.6882 -0.7113  0.5672
   72SLPC    C2 6266   5.866   2.480  10.427 -0.3394 -0.0390  0.2010
   72SLPC    HS 6267   5.906   2.578  10.395 -2.0382 -0.3414 -3.3180
   72SLPC   O21 6268   5.728   2.472  10.396  0.2215 -0.0445 -0.0538
   72SLPC   C21 6269   5.688   2.543  10.293 -0.8700  0.1838  0.8139
   72SLPC   O22 6270   5.755   2.616  10.227  0.0484 -0.1981  0.0128
   72SLPC   C22 6271   5.538   2.536  10.289  0.6208 -0.1666 -0.0820
   72SLPC   H2R 6272   5.503   2.562  10.391 -0.4305  0.9557 -0.7046
   72SLPC   H2S 6273   5.494   2.616  10.226 -0.0039  0.0076  0.5661
   72SLPC    C3 6274   5.953   2.384  10.347  0.0761  0.5045  0.5872
   72SLPC    HX 6275   5.936   2.277  10.371 -0.1741  0.1114 -1.2470
   72SLPC    HY 6276   6.058   2.400  10.377  0.1912  0.8316  0.0050
   72SLPC   O31 6277   5.930   2.399  10.212 -0.2464  0.2548 -0.4144
   72SLPC   C31 6278   5.998   2.497  10.148 -0.3166  0.5029  0.6245
   72SLPC   O32 6279   6.083   2.567  10.201 -0.0786  0.2135 -0.0815
   72SLPC   C32 6280   5.959   2.496   9.995 -0.5385  0.2778 -0.4620
   72SLPC   H2X 6281   5.880   2.574   9.993  0.1954  1.1819  2.1714
   72SLPC   H2Y 6282   5.929   2.393   9.964 -0.8472  0.2958 -0.2250
   72SLPC   C23 6283   5.494   2.395  10.242 -0.5473  0.2428  0.2247
   72SLPC   H3R 6284   5.387   2.389  10.271 -1.0026  0.8945 -1.2041
   72SLPC   H3S 6285   5.551   2.314  10.293  0.9460  1.0739 -0.0814
   72SLPC   C24 6286   5.506   2.366  10.092  1.0193  0.5512  0.7599
   72SLPC   H4R 6287   5.478   2.453  10.029 -0.7961 -1.6128 -1.6092
   72SLPC   H4S 6288   5.433   2.285  10.072  0.7350  0.7541  0.9669
   72SLPC   C25 6289   5.635   2.309  10.052 -0.1073  0.0269 -0.4138
   72SLPC   H5R 6290   5.644   2.213  10.109  1.4368 -0.5275 -1.5281
   72SLPC   H5S 6291   5.719   2.374  10.085  0.3706 -0.7798  0.0100
   72SLPC   C26 6292   5.643   2.270   9.904  0.6297  0.2646  0.0108
   72SLPC   H6R 6293   5.564   2.194   9.887 -0.2402  0.1628  3.6934
   72SLPC   H6S 6294   5.736   2.214   9.882  1.8750  2.5194 -0.7617
   72SLPC   C27 6295   5.621   2.380   9.799 -0.3954  0.6366  0.1789
   72SLPC   H7R 6296   5.692   2.462   9.824  0.1641 -0.3196  1.9140
   72SLPC   H7S 6297   5.517   2.418   9.817 -0.6574  0.3654 -0.7314
   72SLPC   C28 6298   5.641   2.328   9.656  0.2522  0.2691  0.4280
   72SLPC   H8R 6299   5.746   2.293   9.646  0.2015 -0.6122  2.4928
   72SLPC   H8S 6300   5.648   2.407   9.579 -0.6814  0.5998  0.6769
   72SLPC   C29 6301   5.545   2.213   9.613 -0.7056 -0.1394  0.7937
   72SLPC   H9R 6302   5.591   2.113   9.622  1.3049  0.2582 -3.0490
   72SLPC  C210 6303   5.417   2.235   9.576 -0.0480 -0.3236  0.2364
   72SLPC  H10R 6304   5.366   2.144   9.540 -0.1369 -0.1749 -0.0168
   72SLPC  C211 6305   5.341   2.370   9.565 -0.2168  0.3401 -0.1374
   72SLPC  H11R 6306   5.397   2.451   9.513  1.5240 -1.3283 -1.0210
   72SLPC  H11S 6307   5.331   2.413   9.666  0.9136  0.9725 -0.2726
   72SLPC  C212 6308   5.212   2.366   9.496  0.0993 -0.1240 -0.5667
   72SLPC  H12R 6309   5.207   2.298   9.410  0.4948 -2.1840  0.9565
   72SLPC  C213 6310   5.106   2.441   9.541  0.0898 -0.1260  0.5412
   72SLPC  H13R 6311   5.018   2.449   9.475  1.3761  1.7678 -1.0426
   72SLPC  C214 6312   5.104   2.524   9.668  0.4048  0.3291  0.2560
   72SLPC  H14R 6313   5.013   2.586   9.655 -0.2732 -0.7620 -0.2527
   72SLPC  H14S 6314   5.193   2.589   9.685  1.4323 -1.5392  2.6047
   72SLPC  C215 6315   5.086   2.443   9.801  0.5844  0.6057  0.4421
   72SLPC  H15R 6316   5.179   2.381   9.807  1.2922  1.2154 -2.3907
   72SLPC  H15S 6317   4.999   2.374   9.796  1.4497 -0.4161 -2.3372
   72SLPC  C216 6318   5.079   2.523   9.928 -0.1449 -1.0737  0.1293
   72SLPC  H16R 6319   5.005   2.606   9.938  0.2547 -0.8802  1.7255
   72SLPC  H16S 6320   5.171   2.581   9.952  0.2097 -2.1123  1.3925
   72SLPC  C217 6321   5.056   2.429  10.047 -0.7221  0.0667  0.2390
   72SLPC  H17R 6322   5.144   2.364  10.061 -0.9548 -0.4744 -0.7172
   72SLPC  H17S 6323   4.969   2.367  10.016 -0.4176 -0.3198  0.1522
   72SLPC  C218 6324   5.011   2.497  10.173 -0.1947  0.3328  0.0372
   72SLPC  H18R 6325   5.077   2.577  10.211  0.6585 -0.3770  0.0882
   72SLPC  H18S 6326   4.998   2.417  10.250  2.7207 -0.1352  0.1618
   72SLPC  H18T 6327   4.906   2.533  10.172 -0.9387 -1.6905  0.0741
   72SLPC   C33 6328   6.086   2.545   9.923  0.5501  0.0694 -0.8449
   72SLPC   H3X 6329   6.168   2.473   9.943  0.7157  0.2553 -0.8498
   72SLPC   H3Y 6330   6.116   2.643   9.966 -2.3562  0.0690  1.5267
   72SLPC   C34 6331   6.053   2.551   9.777  0.1605  0.4892 -0.0074
   72SLPC   H4X 6332   6.150   2.576   9.729  0.3005 -0.2360 -0.1239
   72SLPC   H4Y 6333   5.981   2.636   9.770  2.0377  2.3379  1.8399
   72SLPC   C35 6334   6.018   2.420   9.697 -0.0032 -0.1548  0.1490
   72SLPC   H5X 6335   5.923   2.389   9.745 -0.3946 -0.6349 -0.9012
   72SLPC   H5Y 6336   6.102   2.351   9.722 -1.7779 -2.6788 -0.4781
   72SLPC   C36 6337   6.027   2.433   9.547 -0.0161 -0.1861 -0.2572
   72SLPC   H6X 6338   6.005   2.340   9.491  1.4090 -0.4077 -0.4707
   72SLPC   H6Y 6339   6.128   2.473   9.525  0.0864  0.9369  1.9481
   72SLPC   C37 6340   5.922   2.538   9.493 -0.6466  0.2355 -0.2565
   72SLPC   H7X 6341   5.939   2.632   9.550  1.8674 -0.9454  1.0918
   72SLPC   H7Y 6342   5.824   2.503   9.533 -1.5992  1.5506 -1.3248
   72SLPC   C38 6343   5.921   2.557   9.339 -0.1403 -0.5129  0.0081
   72SLPC   H8X 6344   6.016   2.597   9.299  0.1356  1.5832  2.4507
   72SLPC   H8Y 6345   5.832   2.616   9.309  0.0487 -0.0304  0.3659
   72SLPC   C39 6346   5.895   2.422   9.257  0.2843  0.7663  1.0101
   72SLPC   H9X 6347   5.794   2.389   9.289 -0.3336 -0.2023 -1.6683
   72SLPC   H9Y 6348   5.973   2.345   9.270  1.2256  0.9215 -2.5935
   72SLPC  C310 6349   5.900   2.442   9.107  0.0026 -0.4682  0.5607
   72SLPC  H10X 6350   5.834   2.526   9.078  1.1225  0.5271  0.8307
   72SLPC  H10Y 6351   5.877   2.347   9.055 -0.3941  0.0079 -0.1508
   72SLPC  C311 6352   6.045   2.467   9.044  0.2763  0.3760 -0.4261
   72SLPC  H11X 6353   6.107   2.376   9.059  0.2194  0.2558 -0.9290
   72SLPC  H11Y 6354   6.085   2.552   9.104 -1.3169  0.6416  0.3360
   72SLPC  C312 6355   6.026   2.503   8.900 -0.8575 -0.3028 -0.2430
   72SLPC  H12X 6356   5.946   2.579   8.887  0.7246  2.0311  2.4261
   72SLPC  H12Y 6357   6.003   2.409   8.846  1.2261  0.5588 -2.8783
   72SLPC  C313 6358   6.156   2.553   8.826 -0.5827 -0.3885  0.5969
   72SLPC  H13X 6359   6.214   2.460   8.811 -4.1234 -2.6878  0.0572
   72SLPC  H13Y 6360   6.230   2.606   8.889  1.1475 -1.3105 -0.5826
   72SLPC  C314 6361   6.121   2.631   8.701 -0.0139  0.2655  0.8610
   72SLPC  H14X 6362   6.213   2.637   8.639 -0.3310 -0.1941  0.3286
   72SLPC  H14Y 6363   6.090   2.734   8.727 -1.2348 -0.0233  0.6054
   72SLPC  C315 6364   6.010   2.573   8.622 -0.9739 -0.9561  0.3460
   72SLPC  H15X 6365   5.905   2.587   8.655 -1.6450  1.7563 -2.5180
   72SLPC  H15Y 6366   6.041   2.466   8.622  1.8076 -0.2109  0.3040
   72SLPC  C316 6367   6.018   2.598   8.470  0.1873  0.4017  0.5262
   72SLPC  H16X 6368   5.955   2.525   8.416 -1.7896  1.4050  1.3650
   72SLPC  H16Y 6369   6.122   2.577   8.439  0.3376  2.5816 -0.5991
   72SLPC  C317 6370   5.973   2.734   8.430 -0.5588 -0.7180 -0.3437
   72SLPC  H17X 6371   6.011   2.745   8.326  0.4287 -1.2627 -0.0568
   72SLPC  H17Y 6372   6.018   2.810   8.498 -1.5266 -0.5324  0.0935
   72SLPC  C318 6373   5.822   2.768   8.433  0.3278  0.3807 -0.7886
   72SLPC  H18X 6374   5.807   2.875   8.408 -0.6187  0.6954  0.9272
   72SLPC  H18Y 6375   5.785   2.760   8.538  1.3164 -0.4162 -0.4838
   72SLPC  H18Z 6376   5.766   2.718   8.351 -0.6190  1.2132 -0.6675
   73SLPC     N 6377   6.696   1.295  11.229  0.1236 -0.5233 -0.1330
   73SLPC   C13 6378   6.712   1.235  11.371 -0.4206 -0.3985  0.7427
   73SLPC  H13A 6379   6.807   1.184  11.364  0.1151  0.2888  2.4412
   73SLPC  H13B 6380   6.718   1.308  11.451  1.2256 -2.1391  2.3048
   73SLPC  H13C 6381   6.647   1.151  11.390  0.9592 -2.2375 -2.0593
   73SLPC   C14 6382   6.801   1.394  11.204 -0.4408 -0.2883 -0.4011
   73SLPC  H14A 6383   6.900   1.351  11.211  0.4074  1.8060  1.5252
   73SLPC  H14B 6384   6.794   1.451  11.112  0.8163 -0.8707 -0.8826
   73SLPC  H14C 6385   6.814   1.467  11.282  2.1894 -1.7755  0.6863
   73SLPC   C15 6386   6.571   1.376  11.212 -0.2641 -0.0509  0.3341
   73SLPC  H15A 6387   6.573   1.465  11.273  0.5813 -1.1278  1.9419
   73SLPC  H15B 6388   6.557   1.393  11.106  2.8919  1.7552  0.0835
   73SLPC  H15C 6389   6.481   1.330  11.250 -1.6009 -0.1249 -2.6896
   73SLPC   C12 6390   6.707   1.186  11.113 -0.2174 -1.0204  0.4799
   73SLPC  H12A 6391   6.626   1.115  11.119 -1.8466  0.7211  0.0877
   73SLPC  H12B 6392   6.803   1.139  11.125  1.5491  1.0825 -3.5230
   73SLPC   C11 6393   6.718   1.246  10.966  0.3500 -0.7488 -0.1283
   73SLPC  H11A 6394   6.719   1.163  10.892 -0.5762 -1.3975  0.5654
   73SLPC  H11B 6395   6.812   1.300  10.941  1.8543 -3.0848  0.1047
   73SLPC     P 6396   6.621   1.460  10.842 -0.4475  0.1055  0.2653
   73SLPC   O13 6397   6.493   1.532  10.834  0.0454 -0.2355 -0.3045
   73SLPC   O14 6398   6.745   1.538  10.880  0.1621 -0.5697 -0.3180
   73SLPC   O12 6399   6.609   1.333  10.935 -0.8882  0.0458 -0.1293
   73SLPC   O11 6400   6.646   1.387  10.701  0.7546 -0.5220 -0.1985
   73SLPC    C1 6401   6.548   1.302  10.640  0.2342 -0.1586 -0.1579
   73SLPC    HA 6402   6.585   1.197  10.649  1.6650  0.0389 -2.7757
   73SLPC    HB 6403   6.451   1.304  10.695 -0.0470  0.5122 -0.6706
   73SLPC    C2 6404   6.527   1.327  10.488 -0.0183  0.0588 -0.0971
   73SLPC    HS 6405   6.466   1.418  10.469  0.0961 -0.0419 -0.9528
   73SLPC   O21 6406   6.475   1.214  10.420  0.6149  0.3218 -0.0567
   73SLPC   C21 6407   6.342   1.188  10.435 -0.4119  0.2524  0.1896
   73SLPC   O22 6408   6.266   1.246  10.509  0.6699  0.0805  0.1718
   73SLPC   C22 6409   6.311   1.064  10.349 -0.0278 -0.5692 -0.3000
   73SLPC   H2R 6410   6.362   0.978  10.397 -0.1646  0.7032  2.3407
   73SLPC   H2S 6411   6.203   1.037  10.346  0.0685 -0.8733 -1.0584
   73SLPC    C3 6412   6.663   1.367  10.429 -0.5338 -0.2609 -0.5977
   73SLPC    HX 6413   6.741   1.287  10.435 -0.5584 -0.2111  0.5186
   73SLPC    HY 6414   6.706   1.453  10.484 -0.1229 -0.7299 -0.1716
   73SLPC   O31 6415   6.638   1.432  10.304 -0.4187  0.0872  0.2794
   73SLPC   C31 6416   6.725   1.419  10.206  0.3081 -0.7672  0.0828
   73SLPC   O32 6417   6.832   1.366  10.218  0.5541  0.0833 -0.0554
   73SLPC   C32 6418   6.670   1.473  10.070 -0.3247 -0.7601  0.6198
   73SLPC   H2X 6419   6.663   1.584  10.077  3.0002 -0.5051  2.3562
   73SLPC   H2Y 6420   6.563   1.445  10.062 -0.9050  1.5999 -1.1486
   73SLPC   C23 6421   6.358   1.079  10.198  0.1298 -0.8540  0.3680
   73SLPC   H3R 6422   6.349   0.981  10.147  0.1735 -0.6353 -0.0680
   73SLPC   H3S 6423   6.468   1.092  10.205 -0.1603  1.3699  1.6271
   73SLPC   C24 6424   6.299   1.193  10.117  0.4874  1.2912 -1.0922
   73SLPC   H4R 6425   6.323   1.289  10.168 -1.5436  1.6982 -0.7906
   73SLPC   H4S 6426   6.188   1.187  10.127  0.6348 -0.4177 -0.1390
   73SLPC   C25 6427   6.340   1.186   9.977  0.8503 -0.7202  0.1419
   73SLPC   H5R 6428   6.451   1.179   9.970  0.9792  1.0666 -0.0987
   73SLPC   H5S 6429   6.312   1.282   9.927 -1.6095 -0.4962  1.7606
   73SLPC   C26 6430   6.260   1.077   9.904  0.2309 -0.1391  0.1948
   73SLPC   H6R 6431   6.166   1.119   9.864  1.3244  2.6171  0.3144
   73SLPC   H6S 6432   6.231   0.997   9.976  1.7433  0.4434  1.5057
   73SLPC   C27 6433   6.347   1.009   9.791  0.2209  0.4683  0.2378
   73SLPC   H7R 6434   6.293   0.925   9.742  1.4363 -0.4070  0.3770
   73SLPC   H7S 6435   6.435   0.961   9.838 -0.4450  1.1741  2.3142
   73SLPC   C28 6436   6.399   1.097   9.670 -0.6021 -0.0601 -0.2743
   73SLPC   H8R 6437   6.458   1.025   9.609  0.5080 -0.8571  1.6466
   73SLPC   H8S 6438   6.472   1.166   9.718 -1.5693  1.4645 -0.9267
   73SLPC   C29 6439   6.292   1.165   9.585 -0.6249  0.2235 -0.7017
   73SLPC   H9R 6440   6.239   1.241   9.644 -0.3847  1.0637 -1.5379
   73SLPC  C210 6441   6.245   1.137   9.467  0.3411 -0.5661  0.2647
   73SLPC  H10R 6442   6.171   1.202   9.418 -0.7464 -2.1036 -0.1755
   73SLPC  C211 6443   6.294   1.024   9.378  0.8347  0.6958  0.4185
   73SLPC  H11R 6444   6.344   0.944   9.436  0.8700 -0.6000 -1.3283
   73SLPC  H11S 6445   6.372   1.071   9.314  0.4986  1.0414  0.2547
   73SLPC  C212 6446   6.179   0.971   9.287 -0.3535  0.0560  0.3705
   73SLPC  H12R 6447   6.105   0.906   9.336  0.8853 -1.6223  0.0937
   73SLPC  C213 6448   6.168   0.990   9.153  0.0276  0.1850 -0.3352
   73SLPC  H13R 6449   6.087   0.941   9.097  1.8494  0.0923 -3.0824
   73SLPC  C214 6450   6.261   1.066   9.066 -0.4957  0.3041  0.5749
   73SLPC  H14R 6451   6.315   1.143   9.124 -1.9552  1.3690  0.5656
   73SLPC  H14S 6452   6.203   1.104   8.979 -0.7197 -0.3666  0.4177
   73SLPC  C215 6453   6.364   0.956   9.009  0.1260 -0.2570  0.1687
   73SLPC  H15R 6454   6.412   0.910   9.098 -0.7482 -0.4888  0.5305
   73SLPC  H15S 6455   6.443   1.013   8.956 -0.8723 -0.1102 -1.2076
   73SLPC  C216 6456   6.295   0.863   8.910 -0.2656 -0.3989  0.7406
   73SLPC  H16R 6457   6.276   0.902   8.808  0.6712 -1.1144  0.2751
   73SLPC  H16S 6458   6.199   0.837   8.958 -0.9367  1.8090  0.7040
   73SLPC  C217 6459   6.373   0.737   8.891  0.5707  0.1132  0.0819
   73SLPC  H17R 6460   6.390   0.680   8.985  4.4844 -1.5669 -1.4774
   73SLPC  H17S 6461   6.479   0.755   8.863  0.8082 -1.4152 -0.0673
   73SLPC  C218 6462   6.299   0.628   8.808 -0.6540 -0.3282  0.6357
   73SLPC  H18R 6463   6.203   0.592   8.852 -0.8300  0.2158  0.7146
   73SLPC  H18S 6464   6.360   0.542   8.774  0.0074  0.1721  0.5369
   73SLPC  H18T 6465   6.263   0.688   8.721 -0.2509  0.9320  1.3111
   73SLPC   C33 6466   6.755   1.443   9.942 -0.3675 -0.3551  0.1010
   73SLPC   H3X 6467   6.822   1.356   9.959  0.7900  0.5681  0.4201
   73SLPC   H3Y 6468   6.820   1.531   9.922 -0.5285 -0.0388  0.9159
   73SLPC   C34 6469   6.665   1.427   9.821  0.3394 -0.3146 -0.2331
   73SLPC   H4X 6470   6.582   1.502   9.819 -0.0440 -0.7349 -1.0610
   73SLPC   H4Y 6471   6.615   1.331   9.844  1.3275 -0.7053  0.3218
   73SLPC   C35 6472   6.741   1.421   9.692 -1.1538 -0.6509 -0.1265
   73SLPC   H5X 6473   6.834   1.359   9.688 -1.3075 -0.8376 -1.1881
   73SLPC   H5Y 6474   6.777   1.525   9.679  0.7558 -0.8627  2.6929
   73SLPC   C36 6475   6.673   1.388   9.559  0.1771 -0.2113 -0.1142
   73SLPC   H6X 6476   6.572   1.432   9.542 -0.6017 -1.9863 -0.2491
   73SLPC   H6Y 6477   6.660   1.279   9.573  1.0377 -0.3730 -0.5468
   73SLPC   C37 6478   6.761   1.418   9.444  0.1410 -0.0353  0.0908
   73SLPC   H7X 6479   6.854   1.357   9.439  0.2231  0.1775 -1.8728
   73SLPC   H7Y 6480   6.796   1.523   9.438 -2.3132  0.9073  1.0570
   73SLPC   C38 6481   6.685   1.384   9.319 -0.3175  0.9263  0.1197
   73SLPC   H8X 6482   6.591   1.443   9.314 -1.4026 -0.6025  1.4594
   73SLPC   H8Y 6483   6.656   1.278   9.304  3.1280  0.0352 -1.2287
   73SLPC   C39 6484   6.770   1.410   9.187 -0.0460 -0.2334  0.5551
   73SLPC   H9X 6485   6.864   1.353   9.200 -0.7847 -2.1341 -1.8806
   73SLPC   H9Y 6486   6.799   1.517   9.178  2.5957 -1.0531 -1.7800
   73SLPC  C310 6487   6.689   1.378   9.055  0.0925 -0.5020 -0.2653
   73SLPC  H10X 6488   6.619   1.463   9.048 -0.6078 -0.9771  0.6461
   73SLPC  H10Y 6489   6.631   1.284   9.068 -2.2700  0.8995 -0.1296
   73SLPC  C311 6490   6.783   1.369   8.933 -0.4885  0.3766 -0.5094
   73SLPC  H11X 6491   6.729   1.319   8.849 -3.0551  0.1031  1.1668
   73SLPC  H11Y 6492   6.869   1.305   8.962 -0.6390  0.4270  0.0566
   73SLPC  C312 6493   6.836   1.506   8.898  0.4594 -0.1284  0.4172
   73SLPC  H12X 6494   6.931   1.489   8.843  0.8783 -0.1409  1.1270
   73SLPC  H12Y 6495   6.854   1.563   8.992 -0.9749  2.2196 -0.6585
   73SLPC  C313 6496   6.732   1.594   8.818  0.1383  0.0444  0.7262
   73SLPC  H13X 6497   6.635   1.593   8.872  0.3275 -0.2426  1.0676
   73SLPC  H13Y 6498   6.711   1.540   8.724 -1.8763  0.2118  1.0314
   73SLPC  C314 6499   6.784   1.732   8.788 -0.5681 -0.5553 -0.1782
   73SLPC  H14X 6500   6.814   1.786   8.880  1.6388  0.1176 -1.2356
   73SLPC  H14Y 6501   6.709   1.800   8.741 -0.3318 -0.5333 -0.5275
   73SLPC  C315 6502   6.906   1.738   8.685  0.4073 -0.6815  0.4309
   73SLPC  H15X 6503   6.872   1.711   8.582  1.6960 -0.3715 -0.0938
   73SLPC  H15Y 6504   6.977   1.655   8.704  0.8054  0.1563  2.8332
   73SLPC  C316 6505   6.970   1.877   8.680  0.5810  0.3184 -0.5888
   73SLPC  H16X 6506   7.000   1.919   8.779 -3.1499  1.6839  0.1150
   73SLPC  H16Y 6507   6.893   1.944   8.638 -0.1268 -0.7957 -1.1091
   73SLPC  C317 6508   7.082   1.890   8.577 -0.5508 -0.2522  0.0385
   73SLPC  H17X 6509   7.043   1.850   8.481 -1.7368  2.8655 -0.9011
   73SLPC  H17Y 6510   7.166   1.827   8.612 -1.9220 -1.7129  0.8765
   73SLPC  C318 6511   7.124   2.038   8.566  0.9433 -0.2237  0.4008
   73SLPC  H18X 6512   7.223   2.049   8.519  0.1943 -0.8019 -1.4062
   73SLPC  H18Y 6513   7.132   2.089   8.665 -1.1281  2.0425 -0.4767
   73SLPC  H18Z 6514   7.045   2.094   8.511  0.5042 -1.7314 -0.5703
   74SLPC     N 6515   1.082   2.361  10.631 -0.2809  0.3549 -0.3851
   74SLPC   C13 6516   0.940   2.316  10.674  0.1640  0.2094  0.0402
   74SLPC  H13A 6517   0.947   2.214  10.708 -1.8993 -0.0405 -0.1406
   74SLPC  H13B 6518   0.893   2.386  10.742 -1.9491  1.3281 -2.3862
   74SLPC  H13C 6519   0.875   2.314  10.587  0.0166  0.2572  0.1492
   74SLPC   C14 6520   1.114   2.283  10.513  0.3811  0.7218  0.9760
   74SLPC  H14A 6521   1.204   2.312  10.461  1.4401 -2.0539  1.1034
   74SLPC  H14B 6522   1.122   2.180  10.544  0.4808 -0.0701 -1.4662
   74SLPC  H14C 6523   1.036   2.291  10.439 -0.9659  1.0016  2.3771
   74SLPC   C15 6524   1.181   2.325  10.745 -0.1854  0.0209  0.4054
   74SLPC  H15A 6525   1.286   2.329  10.718 -0.4588  1.0529 -0.6057
   74SLPC  H15B 6526   1.167   2.383  10.835  1.0633  1.1408 -0.0773
   74SLPC  H15C 6527   1.157   2.223  10.770 -1.5381  0.8958  3.0235
   74SLPC   C12 6528   1.087   2.516  10.616  0.2104  0.2252 -0.2512
   74SLPC  H12A 6529   1.186   2.545  10.582 -0.9777  1.6381 -2.8661
   74SLPC  H12B 6530   1.071   2.563  10.712  0.5360  0.2084 -0.1855
   74SLPC   C11 6531   0.989   2.585  10.517 -1.4022  0.2007  0.4215
   74SLPC  H11A 6532   1.023   2.552  10.416 -0.1759 -1.0704  1.2116
   74SLPC  H11B 6533   0.996   2.694  10.536  0.1233  0.1025  0.5508
   74SLPC     P 6534   0.736   2.617  10.580  0.5138 -0.1020  0.0365
   74SLPC   O13 6535   0.621   2.549  10.526  0.2061  0.2720 -0.1439
   74SLPC   O14 6536   0.752   2.626  10.725  0.7329  0.7896 -0.2068
   74SLPC   O12 6537   0.860   2.533  10.521  0.0443 -0.4343  0.0791
   74SLPC   O11 6538   0.742   2.757  10.515 -0.4740  0.0029  0.0869
   74SLPC    C1 6539   0.685   2.781  10.385  0.6918 -0.5119 -0.7212
   74SLPC    HA 6540   0.610   2.706  10.352  1.6117 -2.1684  0.7994
   74SLPC    HB 6541   0.622   2.871  10.403  0.7470 -0.1415 -2.2120
   74SLPC    C2 6542   0.792   2.802  10.275  1.0581  0.1621  0.0512
   74SLPC    HS 6543   0.867   2.720  10.284 -1.0070 -1.8420 -0.0297
   74SLPC   O21 6544   0.834   2.943  10.277  0.5214  0.0398  0.2124
   74SLPC   C21 6545   0.956   2.958  10.233  0.1730  0.1247  0.2535
   74SLPC   O22 6546   1.032   2.869  10.213  0.3833  0.1382  0.5490
   74SLPC   C22 6547   0.984   3.101  10.199 -0.3404 -0.8477  0.4441
   74SLPC   H2R 6548   0.888   3.156  10.198  0.5987  0.9034  1.2587
   74SLPC   H2S 6549   1.055   3.143  10.275 -0.3212 -1.3255  0.6909
   74SLPC    C3 6550   0.723   2.773  10.135 -0.5646  0.0267 -0.3097
   74SLPC    HX 6551   0.644   2.851  10.125 -0.5981  0.0316 -0.0083
   74SLPC    HY 6552   0.668   2.676  10.140 -3.2749  1.3916 -1.1521
   74SLPC   O31 6553   0.819   2.786  10.030 -0.3586 -0.3590 -0.4499
   74SLPC   C31 6554   0.908   2.685  10.015 -1.1990 -0.7383 -1.4536
   74SLPC   O32 6555   0.904   2.581  10.081  0.7723 -0.5040  0.1907
   74SLPC   C32 6556   1.027   2.719   9.918 -0.1859  0.5727 -0.4488
   74SLPC   H2X 6557   1.110   2.751   9.984  0.2036  1.0648 -1.1623
   74SLPC   H2Y 6558   0.996   2.802   9.851 -2.1317  0.8503  0.7160
   74SLPC   C23 6559   1.062   3.098  10.068 -0.3010 -0.1975 -0.0025
   74SLPC   H3R 6560   1.141   3.021  10.075 -2.7375 -2.9157 -0.4480
   74SLPC   H3S 6561   1.109   3.199  10.062 -2.4405  0.8239 -0.6679
   74SLPC   C24 6562   0.973   3.076   9.941 -0.2002  0.0767 -0.1899
   74SLPC   H4R 6563   0.891   3.149   9.961  0.1946  1.3972 -2.9656
   74SLPC   H4S 6564   0.926   2.975   9.946 -4.4034  1.6884 -1.7544
   74SLPC   C25 6565   1.049   3.095   9.813 -0.3402 -0.2510 -0.2760
   74SLPC   H5R 6566   1.126   3.016   9.822  1.2994  1.4279  1.3462
   74SLPC   H5S 6567   1.109   3.189   9.819 -1.6989  0.9757 -3.6195
   74SLPC   C26 6568   0.976   3.112   9.687 -0.0308  0.1303  0.4163
   74SLPC   H6R 6569   1.046   3.136   9.603  1.3561 -2.9341  0.5755
   74SLPC   H6S 6570   0.908   3.200   9.685 -0.9027 -0.4954 -2.2809
   74SLPC   C27 6571   0.895   2.990   9.642 -0.2554  0.4151 -0.5792
   74SLPC   H7R 6572   0.823   2.967   9.723  1.4486  0.4312  0.9927
   74SLPC   H7S 6573   0.957   2.900   9.625 -1.0681 -0.2387 -0.1866
   74SLPC   C28 6574   0.821   3.021   9.510 -0.2226 -0.3041  0.8306
   74SLPC   H8R 6575   0.745   3.103   9.508 -1.3821 -1.3471  0.6964
   74SLPC   H8S 6576   0.749   2.938   9.495  0.4827 -0.7314 -0.3815
   74SLPC   C29 6577   0.919   3.037   9.389  0.0243 -0.5961 -0.0211
   74SLPC   H9R 6578   0.989   3.121   9.398 -0.3219  0.1214 -2.9445
   74SLPC  C210 6579   0.900   2.977   9.265 -0.3198 -0.4153 -0.5086
   74SLPC  H10R 6580   0.975   3.008   9.190 -0.1338  1.0388  0.2382
   74SLPC  C211 6581   0.794   2.878   9.229  0.4414 -0.9201 -0.0523
   74SLPC  H11R 6582   0.763   2.833   9.326 -0.9140  0.9953  0.4496
   74SLPC  H11S 6583   0.847   2.798   9.173  1.7597  0.3853 -0.7463
   74SLPC  C212 6584   0.676   2.924   9.153 -0.2420 -0.2262  0.4524
   74SLPC  H12R 6585   0.609   2.983   9.218  0.8139 -2.2397  3.5731
   74SLPC  C213 6586   0.635   2.899   9.028 -0.9075 -0.5993  0.7282
   74SLPC  H13R 6587   0.535   2.932   8.996  0.0669  0.8214 -1.0910
   74SLPC  C214 6588   0.721   2.820   8.922  0.3361 -0.2513  0.3702
   74SLPC  H14R 6589   0.678   2.720   8.898  0.0666 -0.1572  0.4682
   74SLPC  H14S 6590   0.821   2.789   8.961 -1.1110 -3.2435  2.0317
   74SLPC  C215 6591   0.746   2.894   8.784 -0.1551  0.2747  0.1247
   74SLPC  H15R 6592   0.833   2.962   8.797  0.5199 -0.4080 -0.6596
   74SLPC  H15S 6593   0.656   2.949   8.748 -0.7287 -0.9196 -0.3173
   74SLPC  C216 6594   0.783   2.797   8.673 -0.1178 -0.1679 -0.1274
   74SLPC  H16R 6595   0.698   2.730   8.646  1.3421 -1.2612 -2.2490
   74SLPC  H16S 6596   0.855   2.726   8.716  0.7225  0.1165 -1.0156
   74SLPC  C217 6597   0.829   2.868   8.545 -0.2030  0.8185  0.0921
   74SLPC  H17R 6598   0.749   2.935   8.506 -0.4331 -0.1833 -1.2457
   74SLPC  H17S 6599   0.855   2.799   8.462  3.4576 -0.3731  2.0400
   74SLPC  C218 6600   0.956   2.951   8.570 -0.9606 -0.0516  0.5249
   74SLPC  H18R 6601   1.049   2.892   8.577  1.5068  3.2230 -1.5432
   74SLPC  H18S 6602   0.951   3.020   8.657  4.0564 -3.0490  3.6620
   74SLPC  H18T 6603   0.978   3.012   8.480 -0.1423 -0.1324  0.6648
   74SLPC   C33 6604   1.069   2.592   9.844  0.3361 -0.5532  0.3991
   74SLPC   H3X 6605   0.998   2.565   9.763  0.1501  2.5112 -0.5870
   74SLPC   H3Y 6606   1.082   2.500   9.905  1.8903 -0.9822 -0.5113
   74SLPC   C34 6607   1.201   2.612   9.771 -1.0325  0.5235 -0.3935
   74SLPC   H4X 6608   1.258   2.520   9.747  0.0487  1.4490 -1.4699
   74SLPC   H4Y 6609   1.257   2.676   9.843 -2.6883  1.6087 -0.0214
   74SLPC   C35 6610   1.188   2.691   9.647 -0.4721 -0.1036  0.2020
   74SLPC   H5X 6611   1.168   2.794   9.682  1.1965 -0.4942  2.5126
   74SLPC   H5Y 6612   1.112   2.652   9.575  1.5999 -0.2318 -2.0303
   74SLPC   C36 6613   1.316   2.707   9.577  0.3503 -0.7166 -0.3878
   74SLPC   H6X 6614   1.368   2.610   9.562 -1.6443 -1.6346 -1.7948
   74SLPC   H6Y 6615   1.388   2.759   9.645  0.2684  0.0465 -0.8751
   74SLPC   C37 6616   1.307   2.798   9.456 -0.1966  0.2666  0.1082
   74SLPC   H7X 6617   1.411   2.821   9.423 -0.9713  0.1782 -2.6643
   74SLPC   H7Y 6618   1.248   2.889   9.478 -0.0729  0.6376 -1.0481
   74SLPC   C38 6619   1.234   2.722   9.343  0.3787 -0.0310 -0.1041
   74SLPC   H8X 6620   1.126   2.699   9.353 -0.0333  0.3755 -2.8457
   74SLPC   H8Y 6621   1.287   2.624   9.338 -0.8109 -0.8356  1.9011
   74SLPC   C39 6622   1.241   2.800   9.213  0.1074  0.4340  0.2886
   74SLPC   H9X 6623   1.345   2.838   9.201  1.8623 -2.7715  3.4468
   74SLPC   H9Y 6624   1.175   2.887   9.235  0.1934  0.8673 -1.0885
   74SLPC  C310 6625   1.185   2.726   9.093  0.0912  0.9493  1.0830
   74SLPC  H10X 6626   1.082   2.690   9.112 -0.8453  0.5379 -3.4499
   74SLPC  H10Y 6627   1.243   2.633   9.073 -2.1075 -0.3878  0.5910
   74SLPC  C311 6628   1.160   2.822   8.967  0.3274  0.6515 -0.7272
   74SLPC  H11X 6629   1.264   2.854   8.941  0.6626 -1.3678 -2.1053
   74SLPC  H11Y 6630   1.104   2.912   9.001  3.2229  1.5475  2.2709
   74SLPC  C312 6631   1.093   2.737   8.858 -0.3157 -0.5272 -0.0292
   74SLPC  H12X 6632   1.051   2.801   8.778  0.4835 -0.2391 -0.2275
   74SLPC  H12Y 6633   1.006   2.687   8.905 -0.0355 -0.2864  0.7648
   74SLPC  C313 6634   1.196   2.640   8.785  0.3392 -0.1158  0.6711
   74SLPC  H13X 6635   1.126   2.564   8.746 -1.4605  2.3949 -1.3872
   74SLPC  H13Y 6636   1.272   2.589   8.848  1.0191 -0.0004 -0.0507
   74SLPC  C314 6637   1.268   2.714   8.662 -0.0098 -0.6298 -0.3666
   74SLPC  H14X 6638   1.292   2.814   8.704 -0.6322 -1.1905  1.4158
   74SLPC  H14Y 6639   1.188   2.723   8.585 -2.1218  2.0564  1.9116
   74SLPC  C315 6640   1.394   2.643   8.617  0.3682 -0.1066  0.2117
   74SLPC  H15X 6641   1.393   2.543   8.666  2.0661 -0.7467 -0.9744
   74SLPC  H15Y 6642   1.485   2.693   8.656  2.1018 -1.8886 -1.3773
   74SLPC  C316 6643   1.402   2.618   8.466 -0.3081  0.4066 -0.4105
   74SLPC  H16X 6644   1.334   2.540   8.423 -0.0329 -0.4763  0.7183
   74SLPC  H16Y 6645   1.505   2.577   8.454 -0.8354 -1.7691  1.8032
   74SLPC  C317 6646   1.403   2.741   8.380  0.1157 -0.6005  0.4865
   74SLPC  H17X 6647   1.505   2.783   8.392 -0.4868  0.5256  1.8271
   74SLPC  H17Y 6648   1.322   2.798   8.428 -0.3515 -1.6053  0.9210
   74SLPC  C318 6649   1.358   2.732   8.233 -0.0543  0.4871  0.0391
   74SLPC  H18X 6650   1.248   2.716   8.230  0.0534 -0.2277 -0.3323
   74SLPC  H18Y 6651   1.399   2.640   8.186  1.9646  1.3956 -0.0993
   74SLPC  H18Z 6652   1.395   2.823   8.181  0.2796  0.8601  0.9042
   75SLPC     N 6653   4.103   4.754   6.312  0.5525 -0.3276 -0.6631
   75SLPC   C13 6654   4.028   4.653   6.396 -0.4421 -0.2609  0.0217
   75SLPC  H13A 6655   4.060   4.551   6.384  0.1672  0.1493 -2.2998
   75SLPC  H13B 6656   4.043   4.684   6.499 -1.6353 -0.5538  0.2934
   75SLPC  H13C 6657   3.922   4.652   6.379 -0.3596  0.2660 -0.5404
   75SLPC   C14 6658   4.046   4.881   6.353 -0.0382 -0.2420 -0.3034
   75SLPC  H14A 6659   3.941   4.883   6.328  0.2278  0.7082 -1.4457
   75SLPC  H14B 6660   4.064   4.895   6.458  1.0758 -1.2130 -0.3431
   75SLPC  H14C 6661   4.101   4.958   6.300  0.8105  0.5796  1.6478
   75SLPC   C15 6662   4.070   4.743   6.168 -0.1355  0.3631 -0.1803
   75SLPC  H15A 6663   4.125   4.656   6.134 -0.3073  0.7327 -1.4366
   75SLPC  H15B 6664   3.966   4.731   6.142  0.5052 -0.9500 -2.4631
   75SLPC  H15C 6665   4.108   4.827   6.112  0.4939 -0.8064 -1.5964
   75SLPC   C12 6666   4.250   4.753   6.335  0.3649 -0.6434  0.7095
   75SLPC  H12A 6667   4.291   4.658   6.303  0.9771 -0.1324 -0.0644
   75SLPC  H12B 6668   4.264   4.762   6.442 -0.6140  0.7401  0.7520
   75SLPC   C11 6669   4.333   4.854   6.266  0.0742  0.3840  0.1702
   75SLPC  H11A 6670   4.301   4.862   6.159 -0.7252 -0.9481  0.2898
   75SLPC  H11B 6671   4.441   4.831   6.253 -0.1356 -0.1231 -0.7784
   75SLPC     P 6672   4.392   5.040   6.452  0.3469 -0.4162 -0.1178
   75SLPC   O13 6673   4.491   5.124   6.386  0.3610  0.4696 -0.1525
   75SLPC   O14 6674   4.306   5.107   6.549 -0.0029  0.3179 -0.8137
   75SLPC   O12 6675   4.308   4.979   6.333 -0.8459  0.4632 -0.1102
   75SLPC   O11 6676   4.457   4.916   6.520  0.2389  0.1709  0.1138
   75SLPC    C1 6677   4.401   4.835   6.628 -0.0160 -0.3941  0.2219
   75SLPC    HA 6678   4.296   4.864   6.647  0.7002  2.3212  0.4995
   75SLPC    HB 6679   4.402   4.727   6.601  1.0819  0.0899 -1.9004
   75SLPC    C2 6680   4.486   4.846   6.755 -0.1372  0.8936  0.3604
   75SLPC    HS 6681   4.476   4.949   6.798  0.8154  0.9215  0.5270
   75SLPC   O21 6682   4.624   4.820   6.717 -0.2317  0.2215  0.0110
   75SLPC   C21 6683   4.717   4.875   6.799  0.4332  0.5394 -0.0694
   75SLPC   O22 6684   4.692   4.957   6.883 -0.3432 -0.0693 -0.4344
   75SLPC   C22 6685   4.856   4.827   6.769  1.2319  0.8252 -1.1703
   75SLPC   H2R 6686   4.852   4.716   6.757  0.1859  0.5478  1.1679
   75SLPC   H2S 6687   4.879   4.874   6.672  1.7278  0.1670 -1.3768
   75SLPC    C3 6688   4.432   4.744   6.865 -0.0361 -0.2670 -0.6476
   75SLPC    HX 6689   4.419   4.650   6.808 -0.2713 -1.0548  0.6731
   75SLPC    HY 6690   4.326   4.770   6.884  0.3064  0.9785 -0.3000
   75SLPC   O31 6691   4.511   4.724   6.983 -0.2364  0.3762  0.5560
   75SLPC   C31 6692   4.499   4.815   7.076 -0.2830  0.6479 -0.4022
   75SLPC   O32 6693   4.438   4.921   7.069 -0.0045 -0.5134  0.2501
   75SLPC   C32 6694   4.581   4.771   7.192  0.0246  0.2209 -0.1185
   75SLPC   H2X 6695   4.676   4.731   7.149 -0.1866 -0.4575  0.0400
   75SLPC   H2Y 6696   4.533   4.685   7.242  0.7511  0.1054  0.3941
   75SLPC   C23 6697   4.962   4.866   6.867  0.0415  0.1874 -1.2565
   75SLPC   H3R 6698   4.958   4.976   6.882 -0.4942  0.0555 -0.4065
   75SLPC   H3S 6699   5.060   4.843   6.820 -0.0020  0.4991 -1.5000
   75SLPC   C24 6700   4.939   4.796   7.004  0.0313  0.0121 -0.4169
   75SLPC   H4R 6701   4.900   4.692   6.997 -2.1431  0.8874 -3.2623
   75SLPC   H4S 6702   4.862   4.858   7.055  1.3057  1.3903 -0.1058
   75SLPC   C25 6703   5.059   4.807   7.106 -0.1842 -0.6679  1.1499
   75SLPC   H5R 6704   5.114   4.901   7.087 -1.2242 -0.3212 -0.2890
   75SLPC   H5S 6705   5.124   4.728   7.063  0.4807 -0.1241  1.1529
   75SLPC   C26 6706   5.014   4.799   7.250 -0.3409 -0.1608 -0.2827
   75SLPC   H6R 6707   4.959   4.703   7.252 -2.2368  0.7208 -3.4040
   75SLPC   H6S 6708   4.957   4.891   7.275 -0.8239 -0.5397  0.0356
   75SLPC   C27 6709   5.142   4.802   7.343 -0.9433  0.1961  0.4523
   75SLPC   H7R 6710   5.193   4.901   7.348  0.7062 -0.5742 -0.4307
   75SLPC   H7S 6711   5.217   4.730   7.304 -1.3942  0.8340 -1.7262
   75SLPC   C28 6712   5.109   4.752   7.483 -0.0059  0.2227  0.3976
   75SLPC   H8R 6713   5.203   4.732   7.539  0.8820 -2.2916 -1.8154
   75SLPC   H8S 6714   5.061   4.652   7.476  0.9686 -0.2295 -0.0321
   75SLPC   C29 6715   5.023   4.847   7.559  0.0607  0.1060  0.2431
   75SLPC   H9R 6716   4.923   4.860   7.515 -0.1733  4.5575  1.6179
   75SLPC  C210 6717   5.052   4.914   7.674 -0.4804 -0.1656 -0.3766
   75SLPC  H10R 6718   4.973   4.972   7.724  1.4772  0.9935  1.5600
   75SLPC  C211 6719   5.179   4.894   7.752 -0.2108  0.0952  0.2821
   75SLPC  H11R 6720   5.250   4.921   7.671 -0.1176  0.7980  0.5852
   75SLPC  H11S 6721   5.194   4.788   7.783  1.3662  0.4248  0.7490
   75SLPC  C212 6722   5.192   4.997   7.869 -0.0172 -0.3687 -0.2251
   75SLPC  H12R 6723   5.211   5.103   7.847 -1.4495  0.3759  1.8621
   75SLPC  C213 6724   5.209   4.969   7.997 -0.7458  0.6781 -0.8277
   75SLPC  H13R 6725   5.217   5.053   8.068  2.3522 -0.6407  0.5695
   75SLPC  C214 6726   5.223   4.838   8.072 -0.2230  0.2838 -0.4953
   75SLPC  H14R 6727   5.313   4.847   8.138  1.2226 -0.1762 -2.3158
   75SLPC  H14S 6728   5.240   4.750   8.006  1.1411 -0.6897  1.0655
   75SLPC  C215 6729   5.103   4.804   8.165 -0.0255  0.8070  0.2454
   75SLPC  H15R 6730   5.135   4.708   8.209  1.6228  0.7636 -0.9278
   75SLPC  H15S 6731   5.004   4.781   8.121 -0.5619 -0.3970  1.9825
   75SLPC  C216 6732   5.085   4.911   8.283  0.6115  0.1687  0.2584
   75SLPC  H16R 6733   5.019   4.987   8.237  0.0414 -1.7442 -2.3437
   75SLPC  H16S 6734   5.187   4.944   8.308  0.7784 -0.0588 -0.1086
   75SLPC  C217 6735   5.018   4.847   8.406  0.2252 -0.0011 -0.3120
   75SLPC  H17R 6736   5.071   4.753   8.432 -0.7888 -0.8359 -1.2109
   75SLPC  H17S 6737   4.912   4.818   8.392  0.4430 -1.7684  1.3766
   75SLPC  C218 6738   5.038   4.923   8.534  0.3110 -0.5146 -0.5421
   75SLPC  H18R 6739   5.027   4.868   8.630  3.2232 -1.2311 -0.5358
   75SLPC  H18S 6740   4.971   5.011   8.544  1.2130  0.0763  0.4169
   75SLPC  H18T 6741   5.143   4.959   8.530  1.0909 -2.0545  2.8899
   75SLPC   C33 6742   4.601   4.873   7.309 -0.4903  0.8483 -0.2285
   75SLPC   H3X 6743   4.679   4.943   7.273  1.9744 -1.6455 -0.1150
   75SLPC   H3Y 6744   4.501   4.913   7.338 -1.6031 -0.6828 -1.7104
   75SLPC   C34 6745   4.658   4.803   7.438  0.0165 -0.0282 -0.6280
   75SLPC   H4X 6746   4.760   4.761   7.426  0.4110 -0.1781  2.3945
   75SLPC   H4Y 6747   4.593   4.720   7.472  1.5441 -0.5035  1.3034
   75SLPC   C35 6748   4.668   4.900   7.565 -0.5916 -0.2968 -0.1210
   75SLPC   H5X 6749   4.577   4.963   7.560 -0.6011 -0.3761 -1.6098
   75SLPC   H5Y 6750   4.759   4.964   7.560 -0.8631  0.0918 -0.1416
   75SLPC   C36 6751   4.681   4.835   7.705 -0.1886  0.2728  0.3153
   75SLPC   H6X 6752   4.785   4.799   7.718 -0.0515  0.6195  0.1993
   75SLPC   H6Y 6753   4.607   4.755   7.728 -0.3135 -0.1269 -1.2940
   75SLPC   C37 6754   4.673   4.931   7.822 -1.0804  0.3217 -0.1021
   75SLPC   H7X 6755   4.572   4.946   7.867 -0.7380 -0.8253  1.1330
   75SLPC   H7Y 6756   4.718   5.027   7.789  1.0728  0.3835  2.6327
   75SLPC   C38 6757   4.759   4.875   7.942  0.2178 -0.1653 -0.0781
   75SLPC   H8X 6758   4.868   4.883   7.920  1.2280 -4.2249  2.4671
   75SLPC   H8Y 6759   4.729   4.771   7.967 -1.1054  0.1526 -0.2684
   75SLPC   C39 6760   4.759   4.958   8.077  0.0145 -0.5391  0.0026
   75SLPC   H9X 6761   4.823   4.908   8.153 -0.1063 -0.2018  0.3300
   75SLPC   H9Y 6762   4.657   4.941   8.119 -0.0903 -2.1031 -0.8193
   75SLPC  C310 6763   4.797   5.110   8.065  0.0371 -0.0589  0.3775
   75SLPC  H10X 6764   4.747   5.165   7.982 -1.4366  0.5486  1.6106
   75SLPC  H10Y 6765   4.903   5.106   8.034  0.1239  1.0105  0.5075
   75SLPC  C311 6766   4.792   5.186   8.201  0.5882 -0.2267  0.0468
   75SLPC  H11X 6767   4.840   5.120   8.276 -0.8551 -0.6544  0.6339
   75SLPC  H11Y 6768   4.683   5.208   8.211  0.6860  0.2440  0.1235
   75SLPC  C312 6769   4.869   5.318   8.198  0.1901 -0.0096  0.0365
   75SLPC  H12X 6770   4.818   5.374   8.117  0.8602 -0.3913 -0.6595
   75SLPC  H12Y 6771   4.971   5.304   8.155  0.3608 -0.2447  0.5078
   75SLPC  C313 6772   4.890   5.387   8.338  0.1002  0.6124 -0.1005
   75SLPC  H13X 6773   4.788   5.385   8.383  0.5621  1.8678  1.0727
   75SLPC  H13Y 6774   4.915   5.494   8.320 -2.2096  1.0795 -0.9023
   75SLPC  C314 6775   4.992   5.310   8.435 -0.2207  0.0589  0.0729
   75SLPC  H14X 6776   4.970   5.202   8.417  1.5418 -0.7030  2.0023
   75SLPC  H14Y 6777   4.973   5.332   8.542  0.1912 -1.3559  0.4625
   75SLPC  C315 6778   5.141   5.336   8.397 -0.2169  0.4016 -0.3018
   75SLPC  H15X 6779   5.157   5.441   8.429  2.2674  0.5453 -1.7903
   75SLPC  H15Y 6780   5.156   5.324   8.288  0.2401  1.5176 -0.3717
   75SLPC  C316 6781   5.241   5.245   8.472  0.5748 -0.5636 -0.5528
   75SLPC  H16X 6782   5.258   5.154   8.410 -0.2627 -1.7045  0.8302
   75SLPC  H16Y 6783   5.203   5.197   8.565 -1.8236 -1.0155 -1.6960
   75SLPC  C317 6784   5.375   5.319   8.515  0.2318  0.7561  0.1209
   75SLPC  H17X 6785   5.441   5.240   8.558 -0.0390 -1.3977 -3.1119
   75SLPC  H17Y 6786   5.351   5.398   8.590 -0.2948  1.4842 -0.7989
   75SLPC  C318 6787   5.452   5.390   8.400  0.4032  0.1026 -0.8004
   75SLPC  H18X 6788   5.550   5.429   8.433 -1.9930  3.3084  3.6171
   75SLPC  H18Y 6789   5.388   5.475   8.367  0.8743  1.9272  2.4825
   75SLPC  H18Z 6790   5.453   5.314   8.319 -0.7079 -1.5694  0.6697
   76SLPC     N 6791   6.667   3.583   6.014 -0.0483 -0.3969  0.6970
   76SLPC   C13 6792   6.573   3.562   5.911  0.6658 -0.2006 -0.4425
   76SLPC  H13A 6793   6.619   3.585   5.816  0.3171 -0.6307 -0.7159
   76SLPC  H13B 6794   6.561   3.454   5.909  3.2812 -0.6098  0.8139
   76SLPC  H13C 6795   6.481   3.609   5.942  0.9092 -0.0880  0.1245
   76SLPC   C14 6796   6.693   3.736   6.030  0.5455  0.1893  0.0487
   76SLPC  H14A 6797   6.662   3.792   5.943 -0.1931  1.0487  0.8359
   76SLPC  H14B 6798   6.623   3.775   6.103 -2.3250 -0.2600 -2.2455
   76SLPC  H14C 6799   6.791   3.752   6.070  0.1045 -0.0146  1.2630
   76SLPC   C15 6800   6.798   3.525   5.975 -0.1611  1.3930  0.2658
   76SLPC  H15A 6801   6.809   3.420   5.995  4.1923  1.2986 -1.5790
   76SLPC  H15B 6802   6.817   3.535   5.869  2.5248  2.3113  0.7606
   76SLPC  H15C 6803   6.882   3.574   6.022 -1.1630  3.0685  0.3969
   76SLPC   C12 6804   6.620   3.520   6.144 -0.4595  0.2231 -0.2849
   76SLPC  H12A 6805   6.532   3.575   6.174 -1.3711 -0.6892 -1.2034
   76SLPC  H12B 6806   6.693   3.551   6.217  1.5182 -0.3430 -1.9204
   76SLPC   C11 6807   6.589   3.374   6.169  0.5705  0.1520  0.0844
   76SLPC  H11A 6808   6.544   3.366   6.270  0.8326 -0.4519  0.1561
   76SLPC  H11B 6809   6.682   3.315   6.169  0.8738  0.5674 -1.8183
   76SLPC     P 6810   6.356   3.312   6.082 -0.1458  0.0424  0.1907
   76SLPC   O13 6811   6.314   3.441   6.020 -0.5150 -0.5240  0.0905
   76SLPC   O14 6812   6.311   3.186   6.016 -0.1483 -0.0554 -0.1711
   76SLPC   O12 6813   6.508   3.310   6.065  0.0434  0.4729 -0.2760
   76SLPC   O11 6814   6.320   3.304   6.234 -0.1860  0.2142  0.0847
   76SLPC    C1 6815   6.185   3.295   6.273 -1.0050  0.2661 -0.3269
   76SLPC    HA 6816   6.121   3.375   6.231 -0.0444  1.2701  0.0841
   76SLPC    HB 6817   6.138   3.196   6.255 -0.7660 -0.1677  1.2904
   76SLPC    C2 6818   6.179   3.332   6.419 -0.4739  0.0600 -0.7005
   76SLPC    HS 6819   6.259   3.279   6.475 -0.5500  2.1606  1.5730
   76SLPC   O21 6820   6.050   3.289   6.459  0.0266 -0.2031  0.3428
   76SLPC   C21 6821   6.044   3.173   6.515 -0.2524  0.2649 -0.8516
   76SLPC   O22 6822   6.141   3.100   6.531  0.4037 -0.0113  0.2447
   76SLPC   C22 6823   5.898   3.148   6.556  0.2085 -0.1150 -0.2948
   76SLPC   H2R 6824   5.850   3.244   6.584 -1.0361 -0.4959 -1.0126
   76SLPC   H2S 6825   5.838   3.106   6.471  2.7399 -0.2052 -2.1547
   76SLPC    C3 6826   6.212   3.482   6.449  0.5413  0.0786  0.0541
   76SLPC    HX 6827   6.132   3.547   6.408  0.6551  0.6296  0.6748
   76SLPC    HY 6828   6.307   3.519   6.406 -0.8587  0.6059 -2.8667
   76SLPC   O31 6829   6.216   3.504   6.590  0.2775 -0.1416  0.1340
   76SLPC   C31 6830   6.332   3.490   6.653 -0.0390 -0.1478 -0.2263
   76SLPC   O32 6831   6.444   3.469   6.607 -0.4165  0.0278 -0.1587
   76SLPC   C32 6832   6.301   3.505   6.801 -0.2522 -0.3234  0.0697
   76SLPC   H2X 6833   6.255   3.411   6.838 -1.0969 -0.5859 -1.5198
   76SLPC   H2Y 6834   6.236   3.592   6.825  1.2277  0.2482  2.2193
   76SLPC   C23 6835   5.874   3.046   6.669 -0.5217  0.5115 -0.5202
   76SLPC   H3R 6836   5.934   2.955   6.649 -1.3900 -0.1696 -0.1142
   76SLPC   H3S 6837   5.776   2.995   6.653  0.1609 -0.2683 -2.5527
   76SLPC   C24 6838   5.884   3.100   6.809  0.1048 -1.0108  0.0989
   76SLPC   H4R 6839   5.806   3.177   6.825  1.8795  1.0365 -0.5146
   76SLPC   H4S 6840   5.981   3.154   6.825 -1.3396  1.9053 -0.2915
   76SLPC   C25 6841   5.877   2.995   6.920  0.8409  0.6387  0.0741
   76SLPC   H5R 6842   5.794   2.928   6.889  3.6948 -2.0553 -2.5247
   76SLPC   H5S 6843   5.867   3.051   7.015  0.3078  1.3490 -0.3923
   76SLPC   C26 6844   6.002   2.906   6.932  0.4442 -0.1398 -0.8626
   76SLPC   H6R 6845   6.093   2.969   6.942  1.0238 -0.7761 -1.8711
   76SLPC   H6S 6846   6.023   2.847   6.839  0.5543  0.0685 -0.9713
   76SLPC   C27 6847   5.986   2.807   7.053 -0.2106  0.0241  0.1607
   76SLPC   H7R 6848   6.058   2.722   7.058  0.6311  0.5321 -2.1407
   76SLPC   H7S 6849   5.883   2.766   7.057 -0.7367  0.5608 -3.8430
   76SLPC   C28 6850   5.986   2.884   7.186  0.1957  0.5506 -0.7062
   76SLPC   H8R 6851   6.053   2.972   7.189 -0.5995  1.1474  0.3421
   76SLPC   H8S 6852   5.889   2.936   7.201 -0.8703 -1.7903  1.1739
   76SLPC   C29 6853   6.009   2.794   7.305 -0.3408  0.4852  0.0567
   76SLPC   H9R 6854   6.115   2.776   7.327 -0.5810 -1.5015 -0.2468
   76SLPC  C210 6855   5.926   2.721   7.385 -0.5065  0.1158  0.2909
   76SLPC  H10R 6856   5.966   2.669   7.473 -1.8345  1.0034  1.4730
   76SLPC  C211 6857   5.778   2.702   7.370  0.4072 -0.8332  0.2714
   76SLPC  H11R 6858   5.759   2.593   7.380  0.2720 -0.9216 -0.7796
   76SLPC  H11S 6859   5.731   2.727   7.272  0.3727  1.3146  0.7955
   76SLPC  C212 6860   5.696   2.790   7.463 -0.6769 -0.0064  0.1905
   76SLPC  H12R 6861   5.608   2.834   7.414  0.4887  1.7355 -0.4307
   76SLPC  C213 6862   5.699   2.798   7.600  0.0474 -0.0921 -0.0979
   76SLPC  H13R 6863   5.637   2.874   7.650 -0.4666 -1.0990  0.8474
   76SLPC  C214 6864   5.792   2.720   7.689 -0.2597  0.2432  0.7472
   76SLPC  H14R 6865   5.885   2.776   7.713 -0.6413  0.9335  0.6472
   76SLPC  H14S 6866   5.837   2.630   7.643 -1.0219  0.4490 -0.4549
   76SLPC  C215 6867   5.734   2.675   7.818  0.1495  0.1276 -0.3582
   76SLPC  H15R 6868   5.795   2.600   7.874  0.8518  1.9062  1.3860
   76SLPC  H15S 6869   5.638   2.622   7.798  0.0985  0.1243 -0.1122
   76SLPC  C216 6870   5.706   2.785   7.913  0.3424  0.7424 -0.4230
   76SLPC  H16R 6871   5.674   2.737   8.008 -1.1421 -1.1863 -1.8129
   76SLPC  H16S 6872   5.620   2.842   7.873 -0.8205 -2.0733 -2.3005
   76SLPC  C217 6873   5.828   2.870   7.943 -0.3080  0.8603 -0.5919
   76SLPC  H17R 6874   5.857   2.938   7.861  1.3727  0.0088 -0.7313
   76SLPC  H17S 6875   5.909   2.798   7.966 -1.0530  0.4827  1.0155
   76SLPC  C218 6876   5.810   2.958   8.073  0.3205  0.5078 -0.1850
   76SLPC  H18R 6877   5.729   3.033   8.063 -0.9844 -1.0024 -1.5517
   76SLPC  H18S 6878   5.907   3.000   8.108  0.7213  0.2451 -0.9483
   76SLPC  H18T 6879   5.774   2.889   8.152 -1.8496  0.5654 -1.0702
   76SLPC   C33 6880   6.435   3.517   6.875  0.3406  0.4853 -0.8983
   76SLPC   H3X 6881   6.485   3.609   6.836 -0.9427  1.6002 -0.0205
   76SLPC   H3Y 6882   6.501   3.430   6.857 -0.0680 -0.3048  1.2344
   76SLPC   C34 6883   6.421   3.522   7.028  0.0570 -0.7233 -0.7294
   76SLPC   H4X 6884   6.393   3.425   7.076 -2.3309 -0.6954 -1.8995
   76SLPC   H4Y 6885   6.346   3.599   7.055 -1.4576 -1.8415 -1.5515
   76SLPC   C35 6886   6.553   3.561   7.101 -0.4698 -0.0005 -0.3144
   76SLPC   H5X 6887   6.578   3.668   7.086 -1.0606  0.3539  1.0628
   76SLPC   H5Y 6888   6.632   3.500   7.052 -0.7894 -0.3911 -0.3529
   76SLPC   C36 6889   6.553   3.530   7.249  0.6057  0.1596  0.2626
   76SLPC   H6X 6890   6.658   3.535   7.284  1.1569  2.7905 -1.4152
   76SLPC   H6Y 6891   6.511   3.430   7.273 -1.5149  0.7792 -0.5638
   76SLPC   C37 6892   6.467   3.629   7.337  0.2601  0.9492 -0.1398
   76SLPC   H7X 6893   6.361   3.624   7.302  0.9091 -1.9067 -2.0806
   76SLPC   H7Y 6894   6.496   3.735   7.321  2.4257  0.6452  1.4566
   76SLPC   C38 6895   6.485   3.584   7.484 -0.7386  0.1648  0.5225
   76SLPC   H8X 6896   6.592   3.552   7.491 -0.0657  1.4318 -2.4490
   76SLPC   H8Y 6897   6.415   3.499   7.497  0.0887 -0.6842 -0.3147
   76SLPC   C39 6898   6.458   3.682   7.590  0.3908 -0.3506 -0.6160
   76SLPC   H9X 6899   6.366   3.741   7.574 -0.0257 -0.2434  1.7574
   76SLPC   H9Y 6900   6.540   3.757   7.584 -0.0584  0.1365 -0.6485
   76SLPC  C310 6901   6.466   3.620   7.737  0.1678  0.0016  0.0901
   76SLPC  H10X 6902   6.566   3.574   7.748  0.0381 -0.8424 -1.7851
   76SLPC  H10Y 6903   6.395   3.537   7.754  1.1717 -0.8616  0.1391
   76SLPC  C311 6904   6.469   3.726   7.850 -0.2452  0.5773  0.0385
   76SLPC  H11X 6905   6.363   3.755   7.870  0.0557  0.1518  2.6206
   76SLPC  H11Y 6906   6.520   3.818   7.815  1.3150 -0.7211 -1.2160
   76SLPC  C312 6907   6.532   3.670   7.973 -0.4798 -0.2212 -0.6205
   76SLPC  H12X 6908   6.626   3.621   7.941 -0.9367  0.2414 -2.8430
   76SLPC  H12Y 6909   6.471   3.586   8.013 -0.9219  0.5484  0.3599
   76SLPC  C313 6910   6.557   3.771   8.095 -0.0724 -0.5084  0.0465
   76SLPC  H13X 6911   6.455   3.787   8.136 -0.2060 -0.6179 -0.2382
   76SLPC  H13Y 6912   6.585   3.862   8.038  0.7204 -1.5604 -1.3007
   76SLPC  C314 6913   6.659   3.723   8.187 -0.0700 -0.3717  0.3658
   76SLPC  H14X 6914   6.752   3.695   8.133 -0.5843  1.9516 -1.9118
   76SLPC  H14Y 6915   6.625   3.630   8.239 -0.7862 -0.1917  0.2396
   76SLPC  C315 6916   6.708   3.821   8.294 -0.3723 -0.3319 -0.2197
   76SLPC  H15X 6917   6.783   3.769   8.356 -0.4567 -0.8965 -0.5826
   76SLPC  H15Y 6918   6.620   3.846   8.356 -1.8274 -0.3027 -2.1747
   76SLPC  C316 6919   6.754   3.956   8.235 -0.1243 -0.2686 -0.1917
   76SLPC  H16X 6920   6.664   4.011   8.199 -0.8022 -1.2059  0.0333
   76SLPC  H16Y 6921   6.829   3.947   8.154 -1.1244 -1.5194 -1.0044
   76SLPC  C317 6922   6.821   4.048   8.333  0.7286 -0.9973 -0.5444
   76SLPC  H17X 6923   6.806   4.146   8.281 -1.5419 -0.5447  0.7967
   76SLPC  H17Y 6924   6.925   4.011   8.344 -0.0106 -2.5984  1.9331
   76SLPC  C318 6925   6.762   4.063   8.472 -0.7694 -0.1297  0.2736
   76SLPC  H18X 6926   6.652   4.060   8.456 -0.6350  0.3523 -0.8700
   76SLPC  H18Y 6927   6.796   4.157   8.519 -2.5743  0.8281 -0.2515
   76SLPC  H18Z 6928   6.805   3.981   8.534  1.0507  1.6977  1.5169
   77SLPC     N 6929   1.348   3.545   6.282  0.3714 -0.1087  0.3451
   77SLPC   C13 6930   1.294   3.575   6.142 -0.0410 -0.2585  0.6103
   77SLPC  H13A 6931   1.355   3.538   6.060  0.2962 -0.3626  0.9072
   77SLPC  H13B 6932   1.198   3.526   6.136 -0.0309 -0.2296  0.1968
   77SLPC  H13C 6933   1.284   3.681   6.127  1.0387 -0.2552 -0.2618
   77SLPC   C14 6934   1.368   3.402   6.306  0.6928 -0.2123 -0.3521
   77SLPC  H14A 6935   1.434   3.388   6.391 -0.2644 -3.1952  0.0101
   77SLPC  H14B 6936   1.280   3.345   6.332 -0.6734  2.1554  0.5732
   77SLPC  H14C 6937   1.411   3.351   6.222 -0.1805 -1.0119 -0.3262
   77SLPC   C15 6938   1.248   3.592   6.383  0.0901  0.0610 -0.0472
   77SLPC  H15A 6939   1.144   3.572   6.364 -0.8410  1.6392  2.8979
   77SLPC  H15B 6940   1.275   3.541   6.474  0.0549 -3.5743 -1.8676
   77SLPC  H15C 6941   1.247   3.699   6.389 -2.7177  0.0515  1.3360
   77SLPC   C12 6942   1.475   3.617   6.305  0.1548 -0.7504 -0.7102
   77SLPC  H12A 6943   1.467   3.720   6.274  0.7243 -0.3634  0.3859
   77SLPC  H12B 6944   1.552   3.573   6.243 -0.2650 -1.9187 -0.4194
   77SLPC   C11 6945   1.532   3.618   6.450  0.0325  0.4352  0.4856
   77SLPC  H11A 6946   1.462   3.657   6.527 -0.8375  1.3356 -0.7306
   77SLPC  H11B 6947   1.615   3.692   6.449 -1.8389  2.7909  2.8880
   77SLPC     P 6948   1.709   3.424   6.443 -0.1268 -0.2933  0.2753
   77SLPC   O13 6949   1.699   3.276   6.443 -0.0800  0.2496  0.2809
   77SLPC   O14 6950   1.731   3.478   6.311  0.3144 -0.1150 -0.0290
   77SLPC   O12 6951   1.585   3.493   6.502  0.0972 -0.1233  0.0775
   77SLPC   O11 6952   1.824   3.485   6.537  0.4122 -0.2224  0.5063
   77SLPC    C1 6953   1.821   3.497   6.682  0.2026  0.2165  0.3484
   77SLPC    HA 6954   1.858   3.599   6.706 -0.1748  0.6338 -0.7615
   77SLPC    HB 6955   1.718   3.510   6.724 -0.3237  1.1073 -1.1246
   77SLPC    C2 6956   1.886   3.383   6.753 -0.2780  0.2447  0.1000
   77SLPC    HS 6957   1.827   3.291   6.734  1.6950 -0.8314 -1.0568
   77SLPC   O21 6958   1.900   3.423   6.889  0.4086 -0.3590  0.3878
   77SLPC   C21 6959   1.801   3.402   6.965 -0.3681  0.4896 -1.0184
   77SLPC   O22 6960   1.703   3.329   6.942  0.5023 -0.7582 -0.0111
   77SLPC   C22 6961   1.831   3.472   7.095  0.0032  0.4862  0.0675
   77SLPC   H2R 6962   1.788   3.401   7.170  2.8051 -1.3269  0.1193
   77SLPC   H2S 6963   1.941   3.477   7.108 -0.0198 -0.3289  0.7026
   77SLPC    C3 6964   2.028   3.354   6.697 -0.0511  0.0092  0.2760
   77SLPC    HX 6965   2.108   3.424   6.728  0.7605 -1.6464  2.1070
   77SLPC    HY 6966   2.016   3.364   6.587  0.4671 -0.7619  0.1426
   77SLPC   O31 6967   2.066   3.216   6.716 -0.4008 -0.3579  0.4430
   77SLPC   C31 6968   2.199   3.194   6.710 -0.1850 -0.2061  0.0661
   77SLPC   O32 6969   2.274   3.264   6.644  0.0326  0.1916 -0.0738
   77SLPC   C32 6970   2.233   3.056   6.770 -0.4826 -0.3247 -0.3468
   77SLPC   H2X 6971   2.323   3.023   6.715  0.8124  0.2773  1.3331
   77SLPC   H2Y 6972   2.149   2.988   6.743  0.6694 -2.0845  0.3159
   77SLPC   C23 6973   1.758   3.612   7.109 -0.5752 -0.3128 -0.2173
   77SLPC   H3R 6974   1.652   3.581   7.103 -0.3442 -1.2969  0.5454
   77SLPC   H3S 6975   1.776   3.679   7.021 -0.9414 -1.0282 -0.8427
   77SLPC   C24 6976   1.796   3.684   7.236  0.3140 -0.3208  0.0330
   77SLPC   H4R 6977   1.777   3.793   7.235 -2.5485 -0.7289  0.0905
   77SLPC   H4S 6978   1.904   3.671   7.256  0.1128  0.8912  2.1870
   77SLPC   C25 6979   1.721   3.632   7.357 -0.2839  0.4670 -0.1228
   77SLPC   H5R 6980   1.754   3.526   7.360  1.0563  0.6080 -4.0047
   77SLPC   H5S 6981   1.611   3.635   7.341 -0.2715 -0.2582 -0.3817
   77SLPC   C26 6982   1.769   3.701   7.482  0.2279 -0.1566 -1.4073
   77SLPC   H6R 6983   1.753   3.811   7.473  1.0639  0.0343 -0.6786
   77SLPC   H6S 6984   1.879   3.688   7.485  0.3377 -0.2510 -3.7547
   77SLPC   C27 6985   1.710   3.643   7.613  0.3455 -0.1798  0.6005
   77SLPC   H7R 6986   1.736   3.536   7.626 -1.7984 -0.9664 -1.0181
   77SLPC   H7S 6987   1.601   3.651   7.594  0.4736  0.3241  0.0291
   77SLPC   C28 6988   1.739   3.722   7.746  0.2032 -0.1996  0.2681
   77SLPC   H8R 6989   1.849   3.707   7.753  0.0564 -1.2085  0.7111
   77SLPC   H8S 6990   1.685   3.655   7.816  0.0320 -2.2943 -1.7256
   77SLPC   C29 6991   1.683   3.866   7.746 -0.0068  0.8070 -0.2768
   77SLPC   H9R 6992   1.671   3.915   7.647 -4.1441 -0.2360 -0.5092
   77SLPC  C210 6993   1.638   3.941   7.849  0.3093  0.1783 -0.4883
   77SLPC  H10R 6994   1.613   4.045   7.821 -3.9512 -0.7269 -0.7803
   77SLPC  C211 6995   1.637   3.888   7.991 -0.2234  0.0748  0.0100
   77SLPC  H11R 6996   1.729   3.934   8.032  0.4255  0.2681 -1.5961
   77SLPC  H11S 6997   1.663   3.780   8.000 -0.4574  0.0273  0.1363
   77SLPC  C212 6998   1.515   3.907   8.078  1.1598 -0.6813 -0.7802
   77SLPC  H12R 6999   1.422   3.868   8.034  0.1764 -0.6484  1.1696
   77SLPC  C213 7000   1.499   3.974   8.195 -0.0712 -1.0797  0.0956
   77SLPC  H13R 7001   1.401   3.983   8.245 -1.0302  4.5079 -2.0552
   77SLPC  C214 7002   1.615   4.043   8.269 -0.1809  0.8256  0.3181
   77SLPC  H14R 7003   1.715   4.037   8.221 -0.1278 -0.2855  0.5481
   77SLPC  H14S 7004   1.619   3.977   8.358 -1.7612  0.9831  0.5362
   77SLPC  C215 7005   1.586   4.184   8.319  0.1269  0.2143  0.4400
   77SLPC  H15R 7006   1.556   4.242   8.228  1.3380  0.3302  0.1017
   77SLPC  H15S 7007   1.683   4.230   8.347  0.6503 -1.2351  1.0871
   77SLPC  C216 7008   1.467   4.211   8.408  0.5894 -0.3958 -0.5369
   77SLPC  H16R 7009   1.483   4.181   8.514 -1.5937  2.4618  0.7512
   77SLPC  H16S 7010   1.384   4.157   8.358  1.1455 -1.4580 -0.3411
   77SLPC  C217 7011   1.429   4.361   8.433  0.2645 -0.5102  0.0257
   77SLPC  H17R 7012   1.520   4.422   8.448  0.1060 -0.7321  2.1712
   77SLPC  H17S 7013   1.368   4.348   8.525  0.8225  0.6019  0.5741
   77SLPC  C218 7014   1.338   4.433   8.325  0.0812 -0.1660 -0.0285
   77SLPC  H18R 7015   1.388   4.419   8.227  0.1108 -0.8793  0.0858
   77SLPC  H18S 7016   1.336   4.544   8.337 -0.0826 -0.2494  0.7481
   77SLPC  H18T 7017   1.244   4.375   8.321  0.4945 -1.0257  1.7260
   77SLPC   C33 7018   2.262   3.080   6.922  0.3737  0.3038 -0.1076
   77SLPC   H3X 7019   2.240   2.981   6.967  1.7645 -0.2813 -0.6658
   77SLPC   H3Y 7020   2.204   3.161   6.971  0.1415 -0.5211  1.0157
   77SLPC   C34 7021   2.404   3.111   6.959  0.2628  0.4166 -0.3710
   77SLPC   H4X 7022   2.437   3.214   6.937  1.8398 -0.0815 -0.4841
   77SLPC   H4Y 7023   2.458   3.040   6.893  1.1519 -0.8960  1.6598
   77SLPC   C35 7024   2.444   3.069   7.095  0.0371 -0.0329 -0.6704
   77SLPC   H5X 7025   2.553   3.062   7.110  0.0601  2.0896  0.6669
   77SLPC   H5Y 7026   2.396   2.972   7.119  0.1810 -0.2765 -1.3476
   77SLPC   C36 7027   2.391   3.163   7.207 -0.3275  0.0558 -0.0424
   77SLPC   H6X 7028   2.281   3.145   7.200 -0.6006  1.9868 -1.6515
   77SLPC   H6Y 7029   2.403   3.271   7.184 -0.0037  0.0641  0.1680
   77SLPC   C37 7030   2.424   3.135   7.344 -0.5737 -0.0198 -0.9576
   77SLPC   H7X 7031   2.403   3.031   7.376 -0.4690  0.8498  2.2252
   77SLPC   H7Y 7032   2.359   3.194   7.413 -0.0873 -0.6180  0.0266
   77SLPC   C38 7033   2.575   3.147   7.378  0.0357 -0.5845 -0.0952
   77SLPC   H8X 7034   2.609   3.250   7.351 -0.3411 -0.7806 -1.3721
   77SLPC   H8Y 7035   2.633   3.073   7.320 -1.1810  0.3562 -2.6853
   77SLPC   C39 7036   2.591   3.126   7.527  0.4656 -0.2630 -0.7284
   77SLPC   H9X 7037   2.598   3.019   7.556 -1.1110 -0.3209 -0.4635
   77SLPC   H9Y 7038   2.501   3.170   7.575 -1.0166 -3.4602 -0.2515
   77SLPC  C310 7039   2.720   3.185   7.590  0.1061  0.2243  0.8663
   77SLPC  H10X 7040   2.737   3.290   7.559  2.1175 -0.6202 -1.1762
   77SLPC  H10Y 7041   2.802   3.125   7.546 -1.5862  0.0645 -2.3291
   77SLPC  C311 7042   2.720   3.188   7.745  0.6360 -0.0308 -0.6661
   77SLPC  H11X 7043   2.628   3.231   7.788  0.7667 -0.2733 -0.1354
   77SLPC  H11Y 7044   2.809   3.242   7.784  0.6249  0.3830 -1.2091
   77SLPC  C312 7045   2.733   3.047   7.815  0.2803  0.7428 -0.3009
   77SLPC  H12X 7046   2.839   3.017   7.797  0.6305  2.1910 -0.8547
   77SLPC  H12Y 7047   2.667   2.973   7.766  1.2784 -1.0515  0.9650
   77SLPC  C313 7048   2.715   3.052   7.967 -0.8066  0.4884 -0.3502
   77SLPC  H13X 7049   2.730   3.157   8.001  1.9476  0.1046 -0.1901
   77SLPC  H13Y 7050   2.782   2.990   8.030 -0.4382  0.5446 -0.6841
   77SLPC  C314 7051   2.569   3.018   7.998 -0.5968 -0.3493  0.3447
   77SLPC  H14X 7052   2.547   2.913   7.969 -0.7838  0.1825 -1.5529
   77SLPC  H14Y 7053   2.498   3.076   7.936  0.3279 -1.0944 -1.4811
   77SLPC  C315 7054   2.535   3.042   8.140 -0.6514 -0.3146 -0.2853
   77SLPC  H15X 7055   2.580   3.139   8.171 -0.8153 -0.2372 -0.2865
   77SLPC  H15Y 7056   2.585   2.962   8.198  2.1086  0.3486 -1.5868
   77SLPC  C316 7057   2.388   3.033   8.180 -0.9537  0.3215 -0.4630
   77SLPC  H16X 7058   2.359   2.926   8.177  1.0505 -0.2535 -0.8992
   77SLPC  H16Y 7059   2.319   3.067   8.100 -1.5839  0.7935  0.2616
   77SLPC  C317 7060   2.350   3.104   8.312 -0.0813  0.1716 -0.1469
   77SLPC  H17X 7061   2.394   3.206   8.301  0.4916 -0.2178 -1.8434
   77SLPC  H17Y 7062   2.399   3.049   8.395 -3.2131 -2.1765  0.3015
   77SLPC  C318 7063   2.202   3.116   8.340  0.0135  0.9849  0.6830
   77SLPC  H18X 7064   2.172   3.175   8.430 -0.7118  0.5192  0.7542
   77SLPC  H18Y 7065   2.149   3.019   8.353  2.2612 -0.3660  0.1912
   77SLPC  H18Z 7066   2.153   3.163   8.252 -1.8122  0.2039  1.2366
   78SLPC     N 7067   3.739   3.360   6.206 -0.2953  0.0440 -0.4533
   78SLPC   C13 7068   3.722   3.407   6.066  0.1124  0.3661 -0.2497
   78SLPC  H13A 7069   3.629   3.461   6.054  1.0444  2.7651  2.2252
   78SLPC  H13B 7070   3.800   3.471   6.027  0.0118  0.2565 -0.6413
   78SLPC  H13C 7071   3.730   3.323   5.998  2.3533  0.5411 -0.2886
   78SLPC   C14 7072   3.881   3.332   6.235 -0.8869  0.2220  0.4273
   78SLPC  H14A 7073   3.892   3.290   6.334  5.6844 -1.9993 -0.7486
   78SLPC  H14B 7074   3.910   3.252   6.169 -0.2534  2.1344 -1.7030
   78SLPC  H14C 7075   3.941   3.420   6.220  0.8446 -1.2139 -1.5930
   78SLPC   C15 7076   3.659   3.243   6.239 -0.6362 -0.6506 -0.3096
   78SLPC  H15A 7077   3.670   3.207   6.340 -1.2733  3.5763  1.4972
   78SLPC  H15B 7078   3.554   3.254   6.217 -0.4762 -1.0987 -1.3398
   78SLPC  H15C 7079   3.667   3.158   6.174 -3.2036 -1.3076  0.1211
   78SLPC   C12 7080   3.686   3.472   6.299  0.1869 -0.2988 -0.9036
   78SLPC  H12A 7081   3.748   3.560   6.289  1.0341 -0.7779  0.0523
   78SLPC  H12B 7082   3.688   3.441   6.402 -2.1467 -0.6164 -0.8867
   78SLPC   C11 7083   3.548   3.526   6.262 -0.1777 -0.4055 -0.5680
   78SLPC  H11A 7084   3.498   3.565   6.354 -1.0660  2.8555 -2.2663
   78SLPC  H11B 7085   3.477   3.456   6.214 -0.1004 -0.9519  0.1071
   78SLPC     P 7086   3.599   3.770   6.198 -0.4735 -0.0437 -0.2092
   78SLPC   O13 7087   3.748   3.774   6.177  0.4098  0.5297 -0.0776
   78SLPC   O14 7088   3.520   3.860   6.115 -0.3242 -0.4983  0.4122
   78SLPC   O12 7089   3.565   3.624   6.160 -0.1401  0.2769 -0.3215
   78SLPC   O11 7090   3.567   3.788   6.356  0.1788  0.3421 -0.5296
   78SLPC    C1 7091   3.470   3.866   6.408  0.3649 -0.2421 -0.8764
   78SLPC    HA 7092   3.466   3.964   6.356 -1.8417 -0.6219 -1.5556
   78SLPC    HB 7093   3.369   3.823   6.388 -0.4662  1.7773 -1.3032
   78SLPC    C2 7094   3.478   3.876   6.564  0.9369 -0.2497 -0.8133
   78SLPC    HS 7095   3.585   3.896   6.588  0.2886  1.2385  1.0956
   78SLPC   O21 7096   3.447   3.749   6.628 -0.2346 -0.4618  0.2445
   78SLPC   C21 7097   3.541   3.660   6.630 -0.3097  0.4653  0.4875
   78SLPC   O22 7098   3.658   3.683   6.612 -0.0573  0.2903 -0.1113
   78SLPC   C22 7099   3.487   3.524   6.662  0.2679 -0.2387  0.3277
   78SLPC   H2R 7100   3.413   3.540   6.744 -0.4687  1.3775 -0.6114
   78SLPC   H2S 7101   3.441   3.481   6.570  0.1749  1.4956 -0.4653
   78SLPC    C3 7102   3.382   3.985   6.616 -0.0141  0.4599  0.5208
   78SLPC    HX 7103   3.278   3.960   6.585 -0.5208  1.4987  1.2904
   78SLPC    HY 7104   3.413   4.080   6.566  0.5054  1.0217  1.8440
   78SLPC   O31 7105   3.393   3.999   6.762  0.4807 -0.1794 -0.7115
   78SLPC   C31 7106   3.506   4.066   6.804 -0.6326  0.2284 -0.1517
   78SLPC   O32 7107   3.585   4.120   6.724 -0.4085  0.0461 -0.0719
   78SLPC   C32 7108   3.524   4.050   6.954 -0.2111  0.0404 -0.3445
   78SLPC   H2X 7109   3.421   4.029   6.990 -0.6018  0.1888 -1.3330
   78SLPC   H2Y 7110   3.568   4.141   6.999  1.3133 -0.2773 -1.1305
   78SLPC   C23 7111   3.581   3.418   6.724  0.2036  0.1107 -0.8115
   78SLPC   H3R 7112   3.662   3.391   6.653  0.3877 -2.6610  0.3348
   78SLPC   H3S 7113   3.521   3.327   6.747  0.9595 -0.7373 -2.0793
   78SLPC   C24 7114   3.643   3.463   6.852  0.3737  0.4887 -0.0397
   78SLPC   H4R 7115   3.561   3.511   6.910 -1.2801  0.3079 -2.0971
   78SLPC   H4S 7116   3.721   3.540   6.838  2.0285 -1.2073 -0.6387
   78SLPC   C25 7117   3.697   3.348   6.939  0.4045 -0.3614  0.6230
   78SLPC   H5R 7118   3.771   3.309   6.867  0.3110  0.0381  0.3037
   78SLPC   H5S 7119   3.627   3.263   6.954  0.1471 -0.1869  0.4225
   78SLPC   C26 7120   3.758   3.413   7.069  0.1250  0.2705  0.3556
   78SLPC   H6R 7121   3.673   3.427   7.139 -0.0796 -2.3038  0.7201
   78SLPC   H6S 7122   3.798   3.514   7.047  2.3602 -0.8899 -1.3397
   78SLPC   C27 7123   3.874   3.330   7.133  0.3960  0.1552 -0.2647
   78SLPC   H7R 7124   3.952   3.317   7.055  0.8374 -0.6715  0.2920
   78SLPC   H7S 7125   3.839   3.227   7.156  1.3259 -0.6796 -2.3274
   78SLPC   C28 7126   3.927   3.391   7.260 -0.2143  0.1549  0.3391
   78SLPC   H8R 7127   3.836   3.411   7.321  0.3807  1.4418  0.8271
   78SLPC   H8S 7128   3.971   3.492   7.246 -1.1261  0.6473  0.8832
   78SLPC   C29 7129   4.022   3.306   7.333 -0.0410 -0.6017 -0.4362
   78SLPC   H9R 7130   4.118   3.291   7.282 -0.3120 -0.1891 -1.0717
   78SLPC  C210 7131   4.007   3.236   7.447 -0.8579 -0.5436 -0.5739
   78SLPC  H10R 7132   4.099   3.180   7.470  0.4166  0.1397 -3.6253
   78SLPC  C211 7133   3.897   3.242   7.548  0.2279 -0.0283 -0.0414
   78SLPC  H11R 7134   3.799   3.253   7.497  0.3270  0.1536 -0.1940
   78SLPC  H11S 7135   3.926   3.329   7.611 -0.5870  0.2435 -0.0222
   78SLPC  C212 7136   3.888   3.123   7.642 -0.3367 -0.1914  0.3263
   78SLPC  H12R 7137   3.849   3.035   7.590  0.5321 -0.0639 -0.5809
   78SLPC  C213 7138   3.932   3.118   7.772  0.3720  0.3754  0.1530
   78SLPC  H13R 7139   3.913   3.028   7.833 -0.0665  0.9749  0.9170
   78SLPC  C214 7140   3.998   3.222   7.857  0.2254  0.2584 -0.3039
   78SLPC  H14R 7141   3.957   3.210   7.959  0.2703  0.5492 -0.2532
   78SLPC  H14S 7142   3.972   3.319   7.810  0.7570  0.2705 -0.5788
   78SLPC  C215 7143   4.152   3.221   7.846  0.0198  0.8587  0.3109
   78SLPC  H15R 7144   4.172   3.233   7.737  1.4208 -1.4960  0.2555
   78SLPC  H15S 7145   4.186   3.120   7.877 -1.2193  0.8088  1.6307
   78SLPC  C216 7146   4.224   3.322   7.936  0.0963  0.2349 -0.1332
   78SLPC  H16R 7147   4.227   3.311   8.047  0.0886  0.2757 -0.1287
   78SLPC  H16S 7148   4.182   3.423   7.918  0.0905 -0.1119 -2.2503
   78SLPC  C217 7149   4.371   3.340   7.893 -0.2519  0.4676  0.3347
   78SLPC  H17R 7150   4.367   3.336   7.782  0.3890 -2.6916  0.3371
   78SLPC  H17S 7151   4.427   3.247   7.917 -1.5255 -0.8861 -1.6172
   78SLPC  C218 7152   4.443   3.465   7.939 -0.3442  0.3395 -0.5238
   78SLPC  H18R 7153   4.536   3.480   7.880 -0.6090 -0.8378 -1.2587
   78SLPC  H18S 7154   4.473   3.454   8.046 -2.2746 -3.8446 -0.2249
   78SLPC  H18T 7155   4.374   3.551   7.926 -0.8047  0.3345  1.5082
   78SLPC   C33 7156   3.603   3.926   6.996 -0.1999  0.7042  0.1983
   78SLPC   H3X 7157   3.577   3.836   6.936  0.5114 -1.1560  2.5318
   78SLPC   H3Y 7158   3.569   3.880   7.091  0.3186  2.3309  1.2269
   78SLPC   C34 7159   3.753   3.954   6.995  0.8039  0.4125 -0.3802
   78SLPC   H4X 7160   3.776   4.060   7.018  1.5543  0.3419 -0.7772
   78SLPC   H4Y 7161   3.785   3.951   6.888  0.0881 -0.3113 -0.5845
   78SLPC   C35 7162   3.824   3.857   7.086 -0.6979 -0.2079  0.6564
   78SLPC   H5X 7163   3.926   3.832   7.049 -1.1936  0.1430 -1.0252
   78SLPC   H5Y 7164   3.766   3.763   7.090  0.2646 -1.0860 -2.6576
   78SLPC   C36 7165   3.855   3.906   7.225  0.0490  0.2446 -0.1615
   78SLPC   H6X 7166   3.763   3.909   7.287 -0.3516 -0.1203 -0.7278
   78SLPC   H6Y 7167   3.890   4.010   7.209  1.0199  0.1663  1.2538
   78SLPC   C37 7168   3.959   3.824   7.305 -0.0752  0.4174 -0.7287
   78SLPC   H7X 7169   4.058   3.836   7.256  1.4706 -0.6615  1.9312
   78SLPC   H7Y 7170   3.926   3.718   7.307  0.0295  0.3622 -1.5594
   78SLPC   C38 7171   3.959   3.872   7.456 -0.4071 -0.1405 -0.2073
   78SLPC   H8X 7172   3.854   3.867   7.493 -1.1567 -0.2080 -2.1908
   78SLPC   H8Y 7173   3.981   3.979   7.475  0.1403 -0.5801  1.9164
   78SLPC   C39 7174   4.041   3.779   7.548  0.4040  0.0378 -0.1048
   78SLPC   H9X 7175   4.146   3.774   7.510  0.1549  0.3617 -0.8677
   78SLPC   H9Y 7176   3.995   3.678   7.541 -1.6450  0.7763  1.5701
   78SLPC  C310 7177   4.056   3.834   7.687  0.7846 -0.2042  0.3218
   78SLPC  H10X 7178   3.952   3.836   7.727  0.5687 -0.4201 -0.2308
   78SLPC  H10Y 7179   4.086   3.941   7.680  1.6156 -0.3473  1.3544
   78SLPC  C311 7180   4.140   3.764   7.795  0.1824 -0.1381  0.7069
   78SLPC  H11X 7181   4.234   3.735   7.743  1.1480  5.2597 -1.2406
   78SLPC  H11Y 7182   4.090   3.677   7.843 -2.6934  0.0190 -1.6435
   78SLPC  C312 7183   4.178   3.869   7.907  0.3247 -0.4030 -1.0942
   78SLPC  H12X 7184   4.231   3.952   7.857  2.1881 -0.8583  0.0205
   78SLPC  H12Y 7185   4.242   3.812   7.978 -1.4110 -0.7931  0.2418
   78SLPC  C313 7186   4.051   3.907   7.992  0.1073 -0.1720  0.1789
   78SLPC  H13X 7187   4.009   3.811   8.026  2.0770 -0.0412  3.3665
   78SLPC  H13Y 7188   3.980   3.968   7.932 -2.4239  0.9113  3.9713
   78SLPC  C314 7189   4.097   3.989   8.114  0.2893  0.3055  0.1176
   78SLPC  H14X 7190   4.158   4.078   8.086 -0.3643  1.2274  1.4936
   78SLPC  H14Y 7191   4.160   3.931   8.184  0.2096  0.9882  0.7784
   78SLPC  C315 7192   3.977   4.033   8.194  0.3670 -0.9808  0.1479
   78SLPC  H15X 7193   3.889   3.966   8.182 -0.7722 -0.2143  3.0999
   78SLPC  H15Y 7194   3.945   4.134   8.161 -0.8291 -0.4413  2.6505
   78SLPC  C316 7195   3.992   4.037   8.346 -0.8113 -0.3607  0.3463
   78SLPC  H16X 7196   4.063   4.117   8.374 -3.0656  1.4941  1.0899
   78SLPC  H16Y 7197   4.046   3.943   8.372  1.9308  1.2509  0.7988
   78SLPC  C317 7198   3.864   4.053   8.433  0.0894  0.1292  0.7762
   78SLPC  H17X 7199   3.807   3.958   8.422  1.1795 -0.8778  3.1713
   78SLPC  H17Y 7200   3.806   4.134   8.384 -2.0497 -1.9494 -0.3156
   78SLPC  C318 7201   3.887   4.062   8.583 -0.5241  0.1191  0.4823
   78SLPC  H18X 7202   3.789   4.090   8.627 -1.8140  0.7991 -2.6095
   78SLPC  H18Y 7203   3.955   4.147   8.609  0.3364 -0.8192  1.4127
   78SLPC  H18Z 7204   3.927   3.970   8.631 -2.0977 -0.8926 -0.0761
   79SLPC     N 7205   1.145   6.266   6.132 -0.4523  0.0602  0.3867
   79SLPC   C13 7206   1.287   6.214   6.124  0.8368  0.5602  0.2704
   79SLPC  H13A 7207   1.351   6.269   6.057  0.6272  3.0883  2.0068
   79SLPC  H13B 7208   1.328   6.206   6.224 -2.2673 -1.9408  1.5631
   79SLPC  H13C 7209   1.276   6.114   6.084  1.4597  0.7842 -0.4599
   79SLPC   C14 7210   1.057   6.155   6.176 -0.1031 -0.0504  0.0609
   79SLPC  H14A 7211   0.954   6.188   6.181  0.0071  0.1420  1.2094
   79SLPC  H14B 7212   1.064   6.063   6.120 -2.3526 -0.0930 -0.2441
   79SLPC  H14C 7213   1.090   6.133   6.276 -1.3181 -2.0883  0.0678
   79SLPC   C15 7214   1.107   6.299   5.992 -0.1871  0.0142  0.0438
   79SLPC  H15A 7215   1.119   6.214   5.926  0.8034  2.5120 -3.2637
   79SLPC  H15B 7216   1.003   6.326   5.991 -0.1378  0.3363  1.6307
   79SLPC  H15C 7217   1.156   6.387   5.954  1.7379 -2.0339 -2.6541
   79SLPC   C12 7218   1.133   6.392   6.220 -0.4869  1.1864  0.8233
   79SLPC  H12A 7219   1.163   6.370   6.322 -0.3665 -1.4381  0.2929
   79SLPC  H12B 7220   1.028   6.407   6.238 -0.8406 -0.0233 -0.0592
   79SLPC   C11 7221   1.190   6.523   6.162  0.0962 -0.3666 -0.5108
   79SLPC  H11A 7222   1.157   6.604   6.231  1.4802 -0.8115  0.7149
   79SLPC  H11B 7223   1.148   6.542   6.061  0.4488  1.6827 -0.3191
   79SLPC     P 7224   1.418   6.535   6.294  0.1331  0.1115  0.2747
   79SLPC   O13 7225   1.556   6.577   6.259  0.2219 -0.0827 -0.1292
   79SLPC   O14 7226   1.339   6.611   6.389  0.3442  0.3659 -0.3902
   79SLPC   O12 7227   1.333   6.519   6.159 -0.0825 -0.2470 -0.2220
   79SLPC   O11 7228   1.418   6.391   6.352 -0.0038 -0.5062 -0.4696
   79SLPC    C1 7229   1.543   6.318   6.368  0.1235  0.5524 -0.0510
   79SLPC    HA 7230   1.543   6.227   6.304  0.0381 -0.0096  0.7363
   79SLPC    HB 7231   1.634   6.376   6.342 -0.5308  1.4920 -0.3074
   79SLPC    C2 7232   1.558   6.273   6.516  0.5082  0.3514  0.2620
   79SLPC    HS 7233   1.465   6.217   6.540  1.4040 -1.0696  0.5246
   79SLPC   O21 7234   1.584   6.384   6.597 -0.4248 -0.4104  0.2184
   79SLPC   C21 7235   1.526   6.382   6.718  0.3493  0.4920 -0.0521
   79SLPC   O22 7236   1.471   6.284   6.766  0.4212 -0.8694 -0.1787
   79SLPC   C22 7237   1.547   6.516   6.785  0.5224 -0.8907 -0.0787
   79SLPC   H2R 7238   1.643   6.557   6.747 -0.1684  1.1616  0.2759
   79SLPC   H2S 7239   1.472   6.597   6.772  3.1685  1.8761  0.7388
   79SLPC    C3 7240   1.672   6.163   6.519  0.4214  0.7565  0.2597
   79SLPC    HX 7241   1.762   6.224   6.500  1.3986 -1.3498 -2.6464
   79SLPC    HY 7242   1.675   6.094   6.431 -0.4150 -1.0054  1.5493
   79SLPC   O31 7243   1.686   6.101   6.649 -0.0861  0.1741  0.0478
   79SLPC   C31 7244   1.603   6.011   6.684  1.1004  0.6391 -1.0477
   79SLPC   O32 7245   1.520   5.961   6.609 -0.1983  0.1595  0.0648
   79SLPC   C32 7246   1.589   5.991   6.842  0.0802 -0.3250 -0.3265
   79SLPC   H2X 7247   1.502   5.924   6.860  0.9239 -1.5969 -0.8158
   79SLPC   H2Y 7248   1.557   6.085   6.892  0.9768 -0.8731  1.3403
   79SLPC   C23 7249   1.564   6.505   6.935  0.2902 -0.3519 -0.8220
   79SLPC   H3R 7250   1.474   6.459   6.982  0.3390  0.5220  0.1733
   79SLPC   H3S 7251   1.578   6.599   6.993 -1.7610 -1.1195  1.0896
   79SLPC   C24 7252   1.682   6.420   6.970 -0.2718 -0.2990 -0.2918
   79SLPC   H4R 7253   1.769   6.449   6.908  0.0461 -2.7341 -1.0683
   79SLPC   H4S 7254   1.678   6.312   6.945  1.8726 -0.3190 -0.7324
   79SLPC   C25 7255   1.744   6.444   7.114  0.6713  0.1516  0.4898
   79SLPC   H5R 7256   1.672   6.406   7.189  2.0925  0.6152  2.1495
   79SLPC   H5S 7257   1.769   6.553   7.114  0.3703  0.2868 -2.2541
   79SLPC   C26 7258   1.871   6.360   7.138 -0.4933  0.7191 -0.1439
   79SLPC   H6R 7259   1.929   6.388   7.228 -0.9175 -0.3802  0.4889
   79SLPC   H6S 7260   1.949   6.378   7.061 -0.1896  0.4320  0.0941
   79SLPC   C27 7261   1.841   6.206   7.157  0.3014 -0.2566 -0.0837
   79SLPC   H7R 7262   1.927   6.138   7.136  0.7852  0.0808  0.7838
   79SLPC   H7S 7263   1.766   6.172   7.082  1.0430 -0.7215 -0.6400
   79SLPC   C28 7264   1.791   6.184   7.294 -0.0047  0.5166 -0.1926
   79SLPC   H8R 7265   1.735   6.088   7.298  2.7986 -1.2158 -0.0142
   79SLPC   H8S 7266   1.714   6.255   7.331 -2.5579 -1.6785 -0.9243
   79SLPC   C29 7267   1.917   6.161   7.380  0.5927 -0.1300  0.2710
   79SLPC   H9R 7268   1.966   6.065   7.360  3.4867  1.4392 -0.8178
   79SLPC  C210 7269   1.957   6.231   7.485 -0.5846 -1.0073  0.1416
   79SLPC  H10R 7270   2.047   6.202   7.540  0.4001  1.7773  0.1639
   79SLPC  C211 7271   1.892   6.361   7.530  0.9761  0.5711  0.5943
   79SLPC  H11R 7272   1.812   6.380   7.455  0.3841 -1.3033  0.6960
   79SLPC  H11S 7273   1.962   6.446   7.519  0.7380  0.5299 -1.6717
   79SLPC  C212 7274   1.818   6.338   7.661 -0.1981 -0.6556  0.9574
   79SLPC  H12R 7275   1.713   6.307   7.653 -0.5592  0.5283  0.8983
   79SLPC  C213 7276   1.873   6.351   7.780 -0.2444 -0.3170  0.4451
   79SLPC  H13R 7277   1.820   6.345   7.876  1.6937 -0.1986  1.5785
   79SLPC  C214 7278   2.016   6.389   7.798  0.4142 -0.3323  0.1969
   79SLPC  H14R 7279   2.021   6.477   7.866  1.1297  0.0143 -0.2845
   79SLPC  H14S 7280   2.061   6.427   7.704 -0.3029  0.7168  0.2552
   79SLPC  C215 7281   2.095   6.282   7.870  0.3264  0.4703  0.5103
   79SLPC  H15R 7282   2.204   6.306   7.872  0.4581 -0.1584  1.7438
   79SLPC  H15S 7283   2.081   6.189   7.812  0.4373 -0.9711  2.7182
   79SLPC  C216 7284   2.062   6.258   8.022 -0.1866  0.1696  0.3443
   79SLPC  H16R 7285   2.125   6.173   8.054 -0.8639 -1.0670 -1.4202
   79SLPC  H16S 7286   1.960   6.213   8.016 -0.0179 -0.3200  1.1317
   79SLPC  C217 7287   2.074   6.383   8.109 -0.5074  0.4598 -0.1964
   79SLPC  H17R 7288   1.995   6.460   8.094 -0.4435  0.4664 -0.5192
   79SLPC  H17S 7289   2.169   6.429   8.074 -0.4910  0.3160 -0.3460
   79SLPC  C218 7290   2.104   6.338   8.253  0.0338 -0.0948  0.1644
   79SLPC  H18R 7291   2.130   6.427   8.316  0.4831 -1.2610  1.7056
   79SLPC  H18S 7292   2.183   6.261   8.260  0.8639  0.6886 -0.3909
   79SLPC  H18T 7293   2.015   6.299   8.306 -0.5473  0.0936 -0.6670
   79SLPC   C33 7294   1.729   5.940   6.893  0.2699 -0.3620 -0.4749
   79SLPC   H3X 7295   1.809   6.016   6.873 -0.5125  1.3900  2.4525
   79SLPC   H3Y 7296   1.750   5.853   6.827  1.4239  0.7106 -1.6022
   79SLPC   C34 7297   1.727   5.897   7.046 -0.6110  0.1052  0.4621
   79SLPC   H4X 7298   1.663   5.972   7.095 -0.5000  0.2043  0.4546
   79SLPC   H4Y 7299   1.827   5.902   7.094 -0.9854 -2.0679  1.6193
   79SLPC   C35 7300   1.678   5.758   7.059  0.1548  0.3094  0.1204
   79SLPC   H5X 7301   1.761   5.692   7.023 -1.1077 -1.1851 -0.1586
   79SLPC   H5Y 7302   1.586   5.735   7.002 -1.0285  1.9324  1.2919
   79SLPC   C36 7303   1.664   5.714   7.207  0.1691 -0.1483 -1.1746
   79SLPC   H6X 7304   1.752   5.730   7.273 -1.3362 -1.2937  1.2400
   79SLPC   H6Y 7305   1.640   5.606   7.206 -0.9136  0.0646 -0.1381
   79SLPC   C37 7306   1.542   5.768   7.284 -0.4335  0.0341  0.0646
   79SLPC   H7X 7307   1.462   5.789   7.210  0.8836  3.0739 -0.6308
   79SLPC   H7Y 7308   1.571   5.867   7.324 -0.1174  0.3809 -0.9829
   79SLPC   C38 7309   1.492   5.657   7.390 -0.1897  0.0769 -0.1564
   79SLPC   H8X 7310   1.481   5.570   7.321 -1.2247  0.5878 -0.6541
   79SLPC   H8Y 7311   1.395   5.670   7.441  0.8929 -0.3817  2.1479
   79SLPC   C39 7312   1.592   5.616   7.504 -0.5117  0.2311 -0.4750
   79SLPC   H9X 7313   1.693   5.600   7.461 -0.6189 -0.5304 -0.4638
   79SLPC   H9Y 7314   1.559   5.521   7.552 -1.8219  1.3561  0.9685
   79SLPC  C310 7315   1.610   5.718   7.616  0.6038  0.2220  0.1498
   79SLPC  H10X 7316   1.517   5.754   7.664  0.8763 -0.6764  1.4256
   79SLPC  H10Y 7317   1.675   5.803   7.588  0.3361  1.1224  2.0631
   79SLPC  C311 7318   1.700   5.665   7.736  0.3256  0.2965 -0.5424
   79SLPC  H11X 7319   1.805   5.671   7.699  1.5475 -0.4938  2.4995
   79SLPC  H11Y 7320   1.684   5.561   7.771  0.3328  0.3777 -0.2931
   79SLPC  C312 7321   1.692   5.757   7.857  0.5376 -0.2758 -0.4355
   79SLPC  H12X 7322   1.586   5.755   7.890  0.1476  0.2773 -1.5862
   79SLPC  H12Y 7323   1.730   5.860   7.836 -1.8280  1.0930  1.4694
   79SLPC  C313 7324   1.772   5.701   7.980 -0.1922  0.4530 -0.6326
   79SLPC  H13X 7325   1.875   5.693   7.940  0.2860  1.9905  0.1721
   79SLPC  H13Y 7326   1.734   5.598   7.992 -0.3342  0.4243 -1.2894
   79SLPC  C314 7327   1.784   5.787   8.106  0.2185  0.0238  0.3110
   79SLPC  H14X 7328   1.677   5.811   8.126  0.1439  0.7693 -0.8911
   79SLPC  H14Y 7329   1.844   5.875   8.074  1.0067 -1.4802 -2.7041
   79SLPC  C315 7330   1.849   5.729   8.235 -0.6421  0.0695 -0.4968
   79SLPC  H15X 7331   1.794   5.641   8.274  2.4661 -2.8082 -2.1249
   79SLPC  H15Y 7332   1.849   5.807   8.314 -0.3427 -3.6221  3.5302
   79SLPC  C316 7333   1.990   5.685   8.208 -0.1414  1.0195 -0.0236
   79SLPC  H16X 7334   2.059   5.771   8.191 -1.1129  1.6994 -0.6103
   79SLPC  H16Y 7335   1.990   5.612   8.125  1.0433 -0.4762  1.2290
   79SLPC  C317 7336   2.042   5.592   8.331 -0.6551 -0.6070  0.3771
   79SLPC  H17X 7337   1.988   5.496   8.316  0.4319 -0.9141 -2.0966
   79SLPC  H17Y 7338   2.017   5.647   8.424  1.9748  0.9908  0.2306
   79SLPC  C318 7339   2.185   5.563   8.324  0.3055  0.7560  0.3893
   79SLPC  H18X 7340   2.199   5.462   8.368 -4.6630  0.7463  2.5991
   79SLPC  H18Y 7341   2.246   5.635   8.383  1.5943  1.5618 -1.7966
   79SLPC  H18Z 7342   2.220   5.557   8.218  2.1222  1.6369  0.8939
   80SLPC     N 7343   3.239   3.516   5.949  0.0880 -0.1364  0.4927
   80SLPC   C13 7344   3.102   3.562   5.914  0.3377  0.2577 -0.2930
   80SLPC  H13A 7345   3.063   3.503   5.832  1.9792 -2.7376  0.9361
   80SLPC  H13B 7346   3.039   3.554   6.001  1.0678 -0.3590  0.1914
   80SLPC  H13C 7347   3.104   3.665   5.884  1.2443 -0.2555 -2.1598
   80SLPC   C14 7348   3.333   3.544   5.839 -0.4186 -0.2953  0.7645
   80SLPC  H14A 7349   3.344   3.650   5.822 -1.1175 -0.0151  1.9329
   80SLPC  H14B 7350   3.437   3.517   5.851  0.4603  0.9965 -2.8273
   80SLPC  H14C 7351   3.298   3.497   5.749  2.1876 -1.2460  0.1522
   80SLPC   C15 7352   3.231   3.364   5.967  0.0169 -0.1768 -0.2671
   80SLPC  H15A 7353   3.164   3.320   5.895  0.2445 -0.6769 -0.1753
   80SLPC  H15B 7354   3.326   3.316   5.985  1.5637  2.9543  0.8287
   80SLPC  H15C 7355   3.172   3.356   6.057 -2.8693 -3.1034 -2.2138
   80SLPC   C12 7356   3.290   3.591   6.072  0.4800  0.5827 -0.6395
   80SLPC  H12A 7357   3.278   3.697   6.053  0.1254  0.3915 -1.5715
   80SLPC  H12B 7358   3.393   3.571   6.097  0.0625 -0.5661  0.2281
   80SLPC   C11 7359   3.209   3.573   6.209 -0.4710  0.1836  0.4713
   80SLPC  H11A 7360   3.275   3.617   6.287 -0.1363 -0.4724  0.5625
   80SLPC  H11B 7361   3.202   3.463   6.220  0.7084 -0.1493 -1.5920
   80SLPC     P 7362   3.040   3.778   6.199  0.1726  0.4236  0.0895
   80SLPC   O13 7363   3.123   3.838   6.090  0.3173 -0.1076 -0.3611
   80SLPC   O14 7364   2.891   3.801   6.201 -0.0108 -0.9089 -0.4904
   80SLPC   O12 7365   3.078   3.622   6.198  0.0078  0.3005  0.0766
   80SLPC   O11 7366   3.105   3.825   6.326  0.1036  0.2545  0.1795
   80SLPC    C1 7367   3.055   3.782   6.454 -0.3465  0.2739  0.1398
   80SLPC    HA 7368   3.029   3.674   6.455  1.9633 -0.3838  2.5654
   80SLPC    HB 7369   3.147   3.777   6.517  1.0096 -2.7964 -1.8183
   80SLPC    C2 7370   2.958   3.875   6.523  0.1553  0.6279  0.0780
   80SLPC    HS 7371   2.875   3.902   6.454  0.4731  0.9710 -0.1784
   80SLPC   O21 7372   3.042   3.985   6.560 -0.4977  0.1841 -0.3090
   80SLPC   C21 7373   2.984   4.092   6.589  0.0956 -0.2570 -0.1615
   80SLPC   O22 7374   2.861   4.108   6.574 -0.6643 -0.0275 -0.4883
   80SLPC   C22 7375   3.090   4.193   6.636  0.4163 -0.5701  0.1676
   80SLPC   H2R 7376   3.164   4.143   6.702  0.3152  0.2211  0.9040
   80SLPC   H2S 7377   3.136   4.229   6.542  0.3486  1.7806  0.9605
   80SLPC    C3 7378   2.888   3.790   6.638 -0.3889 -0.0636 -0.5258
   80SLPC    HX 7379   2.821   3.718   6.586  2.6173 -3.1081 -0.5367
   80SLPC    HY 7380   2.823   3.849   6.705  0.1096 -1.5977  1.4143
   80SLPC   O31 7381   2.993   3.717   6.702 -0.0488 -0.4989 -0.0368
   80SLPC   C31 7382   3.048   3.791   6.802 -0.3802  0.1468 -0.7424
   80SLPC   O32 7383   3.014   3.904   6.839 -0.3010  0.3092  0.0031
   80SLPC   C32 7384   3.161   3.711   6.880 -0.0173  0.1519  0.4101
   80SLPC   H2X 7385   3.258   3.750   6.842  0.6554 -1.2766  0.5902
   80SLPC   H2Y 7386   3.161   3.610   6.834 -0.5083 -0.5279  1.8623
   80SLPC   C23 7387   3.038   4.319   6.704 -0.3719  0.2505  0.7489
   80SLPC   H3R 7388   2.966   4.359   6.630 -0.9377 -1.2798  0.4473
   80SLPC   H3S 7389   3.117   4.398   6.708 -0.1629  0.0739  0.1545
   80SLPC   C24 7390   2.986   4.304   6.841  0.3731  0.5132  0.0107
   80SLPC   H4R 7391   3.063   4.262   6.909 -0.3592  3.2862  2.7987
   80SLPC   H4S 7392   2.895   4.241   6.840  0.5750  0.1491  1.6110
   80SLPC   C25 7393   2.938   4.439   6.902 -0.8669  0.4655  0.3948
   80SLPC   H5R 7394   2.867   4.482   6.829 -0.6168  2.7488  1.4007
   80SLPC   H5S 7395   3.029   4.503   6.909 -0.2400 -0.5106  1.4758
   80SLPC   C26 7396   2.872   4.435   7.041  0.5687  0.2875  0.4124
   80SLPC   H6R 7397   2.815   4.340   7.055  1.8029 -0.4444  0.6289
   80SLPC   H6S 7398   2.802   4.521   7.040 -1.4238 -1.1554 -2.8919
   80SLPC   C27 7399   2.961   4.464   7.164  0.6413 -0.3158 -0.3752
   80SLPC   H7R 7400   3.011   4.562   7.145 -0.0193  0.6918  2.6199
   80SLPC   H7S 7401   3.036   4.383   7.173 -0.3696 -1.3231 -0.8404
   80SLPC   C28 7402   2.877   4.469   7.296  0.2084  0.1053 -0.0799
   80SLPC   H8R 7403   2.856   4.367   7.337  0.9783  0.1712  0.5125
   80SLPC   H8S 7404   2.782   4.523   7.278 -0.4259 -0.1422  2.1945
   80SLPC   C29 7405   2.948   4.552   7.401 -0.4634 -0.1427  0.2488
   80SLPC   H9R 7406   2.951   4.658   7.374 -0.9703 -0.6430 -1.9601
   80SLPC  C210 7407   2.976   4.516   7.527  0.9283 -0.0177  0.6104
   80SLPC  H10R 7408   3.016   4.592   7.596  0.2523 -0.3969  1.4496
   80SLPC  C211 7409   2.945   4.385   7.589 -0.6260 -0.1608 -0.6830
   80SLPC  H11R 7410   2.859   4.334   7.541 -0.6245 -1.8674  0.9775
   80SLPC  H11S 7411   2.913   4.400   7.695  0.2197  1.7511 -0.6632
   80SLPC  C212 7412   3.070   4.302   7.565 -0.9568 -0.3699 -0.1201
   80SLPC  H12R 7413   3.077   4.259   7.464 -0.0295  1.5829 -0.9323
   80SLPC  C213 7414   3.145   4.248   7.664 -0.9172 -0.2569  0.5471
   80SLPC  H13R 7415   3.239   4.197   7.636 -1.3547 -0.2232 -1.0717
   80SLPC  C214 7416   3.129   4.272   7.807 -0.1161 -0.3872  0.0144
   80SLPC  H14R 7417   3.081   4.369   7.831  0.7898  0.1382 -0.2425
   80SLPC  H14S 7418   3.227   4.281   7.859 -0.5739  2.2882  0.5895
   80SLPC  C215 7419   3.057   4.155   7.884 -0.3091 -0.3886  0.3347
   80SLPC  H15R 7420   3.135   4.077   7.901 -1.8517 -2.0489  0.0207
   80SLPC  H15S 7421   2.977   4.104   7.828  0.9581 -2.0752 -0.0144
   80SLPC  C216 7422   2.991   4.212   8.018  0.3860  0.3093 -0.6296
   80SLPC  H16R 7423   2.910   4.279   7.983  1.3032  1.6312 -0.2959
   80SLPC  H16S 7424   3.070   4.265   8.075 -0.0044 -0.7532  0.9770
   80SLPC  C217 7425   2.911   4.112   8.107  0.4423 -0.0986  0.6485
   80SLPC  H17R 7426   2.972   4.019   8.114  1.0148 -0.0076 -2.2548
   80SLPC  H17S 7427   2.822   4.086   8.048  1.5718  1.5583 -1.9583
   80SLPC  C218 7428   2.882   4.159   8.246 -0.1106 -0.0391 -0.1839
   80SLPC  H18R 7429   2.973   4.194   8.299  0.6175  0.8723 -1.9365
   80SLPC  H18S 7430   2.844   4.077   8.311 -1.7892  0.8007 -0.0521
   80SLPC  H18T 7431   2.810   4.243   8.252  0.5847  0.4613  2.1116
   80SLPC   C33 7432   3.155   3.710   7.031  0.0359  0.1968 -0.3101
   80SLPC   H3X 7433   3.213   3.626   7.076  1.7099  1.4063 -0.1124
   80SLPC   H3Y 7434   3.051   3.700   7.068 -0.3415  0.3585 -1.2898
   80SLPC   C34 7435   3.214   3.848   7.079 -0.5427  0.2129  0.5362
   80SLPC   H4X 7436   3.168   3.933   7.023 -0.9199 -1.6481 -2.1480
   80SLPC   H4Y 7437   3.319   3.849   7.043 -0.4807  0.0629  0.7129
   80SLPC   C35 7438   3.207   3.861   7.230  0.3708 -0.6369  0.5286
   80SLPC   H5X 7439   3.232   3.763   7.275  0.7183 -0.8122 -0.0414
   80SLPC   H5Y 7440   3.098   3.869   7.253  0.4635 -0.5072  0.9330
   80SLPC   C36 7441   3.278   3.971   7.300 -0.5548  0.0225 -0.0938
   80SLPC   H6X 7442   3.201   4.048   7.321 -0.2702  0.5678 -1.0108
   80SLPC   H6Y 7443   3.359   4.019   7.241 -1.2468  0.9904 -0.2731
   80SLPC   C37 7444   3.334   3.926   7.436 -0.7181 -0.4214  0.8465
   80SLPC   H7X 7445   3.383   3.828   7.419  1.2555  0.6542 -0.0696
   80SLPC   H7Y 7446   3.255   3.923   7.514 -4.6252  1.3450 -2.5990
   80SLPC   C38 7447   3.442   4.021   7.485  0.2128  0.3903 -0.8429
   80SLPC   H8X 7448   3.397   4.122   7.471  0.4529  0.3912 -1.6185
   80SLPC   H8Y 7449   3.542   4.003   7.441  0.5556  0.3837 -0.0794
   80SLPC   C39 7450   3.473   3.997   7.642 -0.8974 -0.0699  0.5438
   80SLPC   H9X 7451   3.537   3.909   7.661 -0.1735  0.0114 -1.2658
   80SLPC   H9Y 7452   3.373   3.972   7.684 -1.3607  1.0609  0.1718
   80SLPC  C310 7453   3.538   4.115   7.712  0.0880 -1.1160 -0.4320
   80SLPC  H10X 7454   3.458   4.192   7.715  0.8129 -0.3895  0.5986
   80SLPC  H10Y 7455   3.620   4.166   7.656 -0.6523  2.2249  1.2701
   80SLPC  C311 7456   3.567   4.091   7.864 -0.3420  0.4229  1.0975
   80SLPC  H11X 7457   3.641   4.008   7.865  2.8072  3.0262  2.1203
   80SLPC  H11Y 7458   3.468   4.055   7.901  0.6636 -4.4947 -0.1881
   80SLPC  C312 7459   3.624   4.209   7.933 -0.1663  0.5341 -1.2355
   80SLPC  H12X 7460   3.546   4.284   7.908 -2.9459 -1.7249  0.1428
   80SLPC  H12Y 7461   3.718   4.237   7.880 -0.7979  1.1344 -2.0779
   80SLPC  C313 7462   3.639   4.200   8.092 -0.2312  0.3476  0.4747
   80SLPC  H13X 7463   3.687   4.296   8.120 -1.2245  0.9838  0.0374
   80SLPC  H13Y 7464   3.699   4.114   8.130 -0.9595  0.0448  0.9724
   80SLPC  C314 7465   3.500   4.194   8.159 -0.4638  0.0559  0.6171
   80SLPC  H14X 7466   3.447   4.097   8.145  1.2719 -0.9848  0.9354
   80SLPC  H14Y 7467   3.434   4.273   8.118 -1.5119 -1.2595 -0.3391
   80SLPC  C315 7468   3.493   4.210   8.310  0.2453 -0.5001 -0.6839
   80SLPC  H15X 7469   3.540   4.303   8.351  3.4152 -2.9987  1.9279
   80SLPC  H15Y 7470   3.548   4.132   8.366  1.9833  0.9372 -0.2774
   80SLPC  C316 7471   3.351   4.213   8.351  0.4804 -0.8338  0.2528
   80SLPC  H16X 7472   3.307   4.113   8.332 -0.9869  0.3394 -3.1846
   80SLPC  H16Y 7473   3.286   4.278   8.289  0.6287  1.3121  2.1731
   80SLPC  C317 7474   3.320   4.249   8.498  0.6908 -0.0312  0.9936
   80SLPC  H17X 7475   3.374   4.344   8.519  0.8309  0.1909 -0.2940
   80SLPC  H17Y 7476   3.360   4.166   8.561 -3.3844 -2.0897  1.1927
   80SLPC  C318 7477   3.172   4.262   8.534 -0.2132 -0.4984 -0.1202
   80SLPC  H18X 7478   3.122   4.166   8.508 -0.6746 -0.4418  0.5283
   80SLPC  H18Y 7479   3.144   4.346   8.467  0.8523 -1.0552 -1.3121
   80SLPC  H18Z 7480   3.167   4.279   8.644  0.3309 -0.3328 -0.1158
   81SAPS     N 7481   3.478   5.781  11.179 -0.5255  0.4494 -0.5237
   81SAPS   HN1 7482   3.501   5.725  11.094  0.8964  0.1130  0.0542
   81SAPS   HN2 7483   3.541   5.746  11.255 -0.1079  1.7419 -0.2543
   81SAPS   HN3 7484   3.382   5.752  11.206 -0.2858 -0.4754 -0.6236
   81SAPS   C12 7485   3.508   5.927  11.148  0.3363  0.6311 -0.0766
   81SAPS  H12A 7486   3.410   5.972  11.137  0.9259  2.3023  1.0616
   81SAPS   C13 7487   3.562   6.005  11.268  0.3572 -0.4392 -0.3737
   81SAPS  O13A 7488   3.592   5.955  11.383 -0.5049 -0.1835  0.2473
   81SAPS  O13B 7489   3.583   6.128  11.250 -0.2720 -0.5697  0.3381
   81SAPS   C11 7490   3.598   5.931  11.019 -0.1854  0.8249  0.0382
   81SAPS  H11A 7491   3.686   5.868  11.043 -0.2486  0.7384  0.0424
   81SAPS  H11B 7492   3.634   6.036  11.009  0.9139  0.6150  1.5049
   81SAPS     P 7493   3.558   5.746  10.841  0.0177 -0.2055 -0.1449
   81SAPS   O13 7494   3.703   5.736  10.810 -0.5544 -0.5395 -0.3431
   81SAPS   O14 7495   3.507   5.648  10.938  0.4037 -0.1403  0.1355
   81SAPS   O12 7496   3.525   5.886  10.898 -0.4226  0.2447 -0.3008
   81SAPS   O11 7497   3.464   5.735  10.713  0.2645 -0.3338  0.3354
   81SAPS    C1 7498   3.327   5.790  10.702  0.9489  0.5686 -0.0183
   81SAPS    HA 7499   3.262   5.712  10.657  2.3054 -0.1800 -0.7447
   81SAPS    HB 7500   3.284   5.817  10.801  0.5757  0.6873 -0.2128
   81SAPS    C2 7501   3.327   5.912  10.603  0.0563  0.7791  0.4858
   81SAPS    HS 7502   3.221   5.930  10.573  0.2300 -1.6173 -1.9858
   81SAPS   O21 7503   3.401   5.882  10.482  0.2097  0.0413  0.2564
   81SAPS   C21 7504   3.334   5.787  10.411 -0.6845 -0.2286  0.2772
   81SAPS   O22 7505   3.232   5.738  10.442 -0.5432  0.0621 -0.6363
   81SAPS   C22 7506   3.420   5.770  10.278 -0.3093 -0.0702  0.2597
   81SAPS   H2R 7507   3.464   5.870  10.259  1.0577 -0.7516 -0.3297
   81SAPS   H2S 7508   3.506   5.713  10.322 -0.0684  1.6914  2.2317
   81SAPS    C3 7509   3.385   6.045  10.660  0.6501  0.2200  0.4255
   81SAPS    HX 7510   3.494   6.035  10.678  0.4532 -1.0544  0.9421
   81SAPS    HY 7511   3.328   6.053  10.754 -0.9822  1.2272 -0.5910
   81SAPS   O31 7512   3.372   6.163  10.581 -0.2641  0.1092 -0.0807
   81SAPS   C31 7513   3.254   6.223  10.581 -0.3418 -0.0659  0.0122
   81SAPS   O32 7514   3.153   6.187  10.632  0.3067 -0.4834 -0.0456
   81SAPS   C32 7515   3.276   6.342  10.490  0.2862 -0.0584 -0.0625
   81SAPS   H2X 7516   3.363   6.323  10.424  0.9798  0.8265  0.5859
   81SAPS   H2Y 7517   3.294   6.429  10.556  0.1714 -0.1758  0.1245
   81SAPS   C23 7518   3.342   5.697  10.171  0.0797 -0.0076  0.1668
   81SAPS   H3R 7519   3.305   5.605  10.221  1.5614 -0.8932 -0.3015
   81SAPS   H3S 7520   3.406   5.671  10.084 -2.2420 -2.8360 -0.8752
   81SAPS   C24 7521   3.210   5.770  10.121  0.0179 -0.0060 -0.4212
   81SAPS   H4R 7522   3.143   5.785  10.208  0.5362  2.4029 -0.3625
   81SAPS   H4S 7523   3.161   5.710  10.042 -1.5537 -0.7312  1.0457
   81SAPS   C25 7524   3.245   5.909  10.073  0.4973  0.3563 -0.5423
   81SAPS   H5R 7525   3.289   5.979  10.146 -0.2033  1.8933 -1.5391
   81SAPS   C26 7526   3.239   5.946   9.944  0.0182  0.8105 -0.0818
   81SAPS   H6R 7527   3.264   6.051   9.923 -3.0186  1.8667  0.9942
   81SAPS   C27 7528   3.209   5.851   9.826 -0.3246 -0.3749  0.4130
   81SAPS   H7R 7529   3.230   5.743   9.845 -1.6117 -0.6864  0.1560
   81SAPS   H7S 7530   3.273   5.885   9.742 -1.9523  2.2727  0.1363
   81SAPS   C28 7531   3.059   5.858   9.792  0.3935 -0.8844  0.4640
   81SAPS   H8R 7532   2.985   5.812   9.859 -1.6257  0.1315 -0.9682
   81SAPS   C29 7533   3.006   5.905   9.674  0.1680  0.2417 -0.4995
   81SAPS   H9R 7534   2.897   5.894   9.663  0.2319 -2.5332  0.8159
   81SAPS  C210 7535   3.091   5.966   9.564  0.2965  0.3045 -0.0887
   81SAPS  H10R 7536   3.170   5.897   9.527 -2.1936 -1.4620 -2.5746
   81SAPS  H10S 7537   3.150   6.053   9.600  1.2583 -0.9022  1.3708
   81SAPS  C211 7538   2.997   6.010   9.450  0.3935  0.1309 -0.6446
   81SAPS  H11R 7539   2.992   6.119   9.446 -1.0137  0.2362  1.7780
   81SAPS  C212 7540   2.923   5.936   9.371 -0.7805  0.0911  0.2379
   81SAPS  H12R 7541   2.873   5.993   9.291  1.1413  1.3847 -0.1148
   81SAPS  C213 7542   2.911   5.787   9.381 -0.5352 -0.0101 -0.0015
   81SAPS  H13R 7543   2.823   5.772   9.448 -0.9886 -0.7118 -0.7308
   81SAPS  H13S 7544   2.993   5.758   9.450 -0.0607  2.1796  0.4262
   81SAPS  C214 7545   2.904   5.702   9.260  0.6674 -0.6186  0.0933
   81SAPS  H14R 7546   2.826   5.625   9.270  0.2086  0.0898  2.9678
   81SAPS  C215 7547   2.982   5.705   9.148 -0.3920  0.3754  0.0828
   81SAPS  H15R 7548   2.982   5.621   9.078  0.8264 -0.1550  0.6890
   81SAPS  C216 7549   3.097   5.802   9.117  0.1378 -0.2710  0.6281
   81SAPS  H16R 7550   3.189   5.742   9.101  0.2088 -0.6903  2.4116
   81SAPS  H16S 7551   3.110   5.883   9.191 -0.4007 -0.4868  0.9678
   81SAPS  C217 7552   3.054   5.870   8.982  0.1888  0.7520  0.6091
   81SAPS  H17R 7553   2.965   5.936   8.984 -0.4548  0.0115 -1.2284
   81SAPS  H17S 7554   3.044   5.790   8.905  3.3516 -2.0911  2.8796
   81SAPS  C218 7555   3.167   5.960   8.938 -0.0840 -0.4174  0.6039
   81SAPS  H18R 7556   3.265   5.907   8.934 -1.1216 -2.3490 -0.2624
   81SAPS  H18S 7557   3.185   6.039   9.015  0.5832 -1.5246  1.6306
   81SAPS  C219 7558   3.150   6.017   8.799 -0.3239  0.3230 -0.2392
   81SAPS  H19R 7559   3.048   6.060   8.799 -0.6436 -0.3801  1.2633
   81SAPS  H19S 7560   3.163   5.928   8.732  1.2894 -0.0968  0.5807
   81SAPS  C220 7561   3.261   6.110   8.773 -0.1086  0.2006  0.5417
   81SAPS  H20R 7562   3.282   6.132   8.666  1.3410 -0.9675  0.5606
   81SAPS  H20S 7563   3.360   6.084   8.815  1.6553  1.4213 -2.5875
   81SAPS  H20T 7564   3.234   6.206   8.824 -2.8835 -0.6816  0.9017
   81SAPS   C33 7565   3.153   6.378  10.401 -0.1051 -0.4886  0.2376
   81SAPS   H3X 7566   3.187   6.463  10.339 -1.2338 -0.1315  0.0835
   81SAPS   H3Y 7567   3.065   6.427  10.447 -1.1835  0.5528 -2.6895
   81SAPS   C34 7568   3.102   6.262  10.306  0.3557 -0.1142  0.4323
   81SAPS   H4X 7569   3.035   6.187  10.354  0.7772 -1.8225 -1.4831
   81SAPS   H4Y 7570   3.188   6.206  10.263 -0.7362  0.4297 -2.7009
   81SAPS   C35 7571   3.034   6.320  10.177 -0.1498 -0.5455  0.2360
   81SAPS   H5X 7572   3.078   6.416  10.144 -1.1373 -0.4843 -0.9519
   81SAPS   H5Y 7573   2.932   6.350  10.211 -0.4324  0.5455 -1.4476
   81SAPS   C36 7574   3.034   6.218  10.056  0.2448 -0.1159  0.8872
   81SAPS   H6X 7575   2.983   6.125  10.089  1.8289 -1.9947 -1.5447
   81SAPS   H6Y 7576   3.136   6.186  10.026 -0.0550 -1.7554  1.4859
   81SAPS   C37 7577   2.946   6.266   9.940 -0.4086 -0.1504 -0.0372
   81SAPS   H7X 7578   2.849   6.295   9.986 -1.0324  0.2008 -1.4963
   81SAPS   H7Y 7579   2.930   6.181   9.870 -0.1824 -0.8763  0.7724
   81SAPS   C38 7580   3.008   6.397   9.877  0.4191  0.3565 -0.0085
   81SAPS   H8X 7581   3.043   6.471   9.952 -0.9537  3.0516 -1.8465
   81SAPS   H8Y 7582   2.923   6.435   9.815  0.3368 -2.1270 -1.5543
   81SAPS   C39 7583   3.122   6.366   9.773  0.2183  0.3928  0.0346
   81SAPS   H9X 7584   3.091   6.266   9.735  3.0431 -0.0190 -1.4034
   81SAPS   H9Y 7585   3.211   6.360   9.839 -0.6043 -1.3984  1.0759
   81SAPS  C310 7586   3.114   6.473   9.660 -0.4496  0.3056 -0.4249
   81SAPS  H10X 7587   3.121   6.574   9.705 -2.4259 -0.1629  1.1021
   81SAPS  H10Y 7588   3.013   6.456   9.617 -0.7300 -2.5739  1.1155
   81SAPS  C311 7589   3.223   6.448   9.557  0.1346  0.3864  0.3528
   81SAPS  H11X 7590   3.234   6.339   9.537  0.2340  0.4293  0.1623
   81SAPS  H11Y 7591   3.307   6.477   9.623 -0.0017 -2.2344  1.8201
   81SAPS  C312 7592   3.221   6.537   9.435 -0.3458  0.0213  0.0309
   81SAPS  H12X 7593   3.323   6.530   9.391 -0.7536  1.7653 -1.2985
   81SAPS  H12Y 7594   3.191   6.640   9.464  0.9572 -0.1085  2.0565
   81SAPS  C313 7595   3.109   6.499   9.334  0.6215 -0.0232  0.3170
   81SAPS  H13X 7596   3.095   6.590   9.273 -2.6618  0.5164  1.6494
   81SAPS  H13Y 7597   3.021   6.469   9.395  2.0554 -2.9542  1.1417
   81SAPS  C314 7598   3.152   6.389   9.243  0.3013  1.1801  0.3895
   81SAPS  H14X 7599   3.179   6.305   9.310  0.9248 -0.3254 -1.6575
   81SAPS  H14Y 7600   3.244   6.417   9.187 -0.0860 -0.9786 -1.4797
   81SAPS  C315 7601   3.054   6.341   9.131  0.3506 -0.1399  0.3678
   81SAPS  H15X 7602   2.963   6.310   9.188  0.8207  0.7661  1.6620
   81SAPS  H15Y 7603   3.091   6.251   9.076 -0.0802 -0.2409  0.2429
   81SAPS  C316 7604   3.001   6.444   9.030 -0.1412  0.2982 -0.0710
   81SAPS  H16X 7605   2.934   6.509   9.091  1.2975 -0.2726  2.2260
   81SAPS  H16Y 7606   2.936   6.387   8.961 -1.7585 -2.4991  3.4465
   81SAPS  C317 7607   3.111   6.529   8.969  0.1071 -0.0810  0.3868
   81SAPS  H17X 7608   3.177   6.458   8.914  0.1424  0.2658 -0.0234
   81SAPS  H17Y 7609   3.166   6.581   9.050 -0.1591  2.0860 -0.7472
   81SAPS  C318 7610   3.054   6.624   8.871 -0.2769 -0.7608  0.0226
   81SAPS  H18X 7611   2.975   6.685   8.919  1.3825  1.7059 -0.2278
   81SAPS  H18Y 7612   3.013   6.578   8.778  2.2471  1.7935 -2.5745
   81SAPS  H18Z 7613   3.131   6.698   8.841 -1.7743  0.1875 -1.6317
   82SAPS     N 7614   1.842   5.791  10.899 -0.3343 -0.1844 -0.6356
   82SAPS   HN1 7615   1.739   5.781  10.891 -0.2844  0.1562 -1.9566
   82SAPS   HN2 7616   1.864   5.879  10.951  2.3052 -0.6219 -0.9109
   82SAPS   HN3 7617   1.878   5.814  10.804 -0.9756  0.8436 -0.6549
   82SAPS   C12 7618   1.895   5.670  10.964 -0.1495  0.0437  0.9926
   82SAPS  H12A 7619   2.003   5.669  10.967 -0.0594 -0.7442 -0.8994
   82SAPS   C13 7620   1.847   5.656  11.107 -0.2809 -0.1231 -0.1986
   82SAPS  O13A 7621   1.763   5.729  11.161 -0.5548 -0.0657  0.5121
   82SAPS  O13B 7622   1.912   5.569  11.181  0.0859 -0.0186 -0.3331
   82SAPS   C11 7623   1.854   5.542  10.890 -0.6715 -0.4936 -0.3704
   82SAPS  H11A 7624   1.744   5.530  10.901 -0.5300 -1.1239  0.4602
   82SAPS  H11B 7625   1.904   5.453  10.933 -0.9419 -1.6617 -2.3555
   82SAPS     P 7626   2.025   5.486  10.704  0.0206  0.2733  0.3199
   82SAPS   O13 7627   2.042   5.527  10.562  0.3590  0.0665  0.2136
   82SAPS   O14 7628   2.135   5.529  10.800  0.3246 -0.3526 -0.0174
   82SAPS   O12 7629   1.889   5.555  10.751 -0.2722 -0.2542 -0.4641
   82SAPS   O11 7630   2.005   5.333  10.721 -0.0785  0.0978 -0.8310
   82SAPS    C1 7631   1.884   5.262  10.688  0.4099 -0.1706  0.3382
   82SAPS    HA 7632   1.873   5.186  10.769  2.1110 -1.0069 -0.1789
   82SAPS    HB 7633   1.793   5.327  10.689 -0.9273 -1.9295 -0.5499
   82SAPS    C2 7634   1.890   5.202  10.548  0.1161  0.5485 -0.2652
   82SAPS    HS 7635   1.997   5.172  10.549 -0.0426 -0.0203  0.3888
   82SAPS   O21 7636   1.856   5.301  10.449  0.2747 -0.5874  0.4027
   82SAPS   C21 7637   1.948   5.309  10.359 -0.4421  0.0917 -0.3675
   82SAPS   O22 7638   2.050   5.239  10.356 -1.0384 -0.0303  0.4477
   82SAPS   C22 7639   1.906   5.404  10.245 -0.2753  0.1140  0.0152
   82SAPS   H2R 7640   1.850   5.487  10.294  0.0209  0.5929 -0.4401
   82SAPS   H2S 7641   1.992   5.447  10.189 -0.8470  4.5429  2.0660
   82SAPS    C3 7642   1.811   5.064  10.517  0.2925 -0.0231 -0.3653
   82SAPS    HX 7643   1.704   5.092  10.530 -0.6982 -2.2732 -2.7755
   82SAPS    HY 7644   1.834   4.991  10.598 -0.6584 -0.7639 -0.7458
   82SAPS   O31 7645   1.830   5.002  10.392 -0.0317  0.6091  0.0683
   82SAPS   C31 7646   1.945   4.943  10.382 -0.1209 -0.3645 -0.1705
   82SAPS   O32 7647   2.027   4.933  10.475 -0.1177  0.1255 -0.0878
   82SAPS   C32 7648   1.956   4.875  10.248  0.0695 -1.0088 -0.1376
   82SAPS   H2X 7649   2.039   4.925  10.193 -0.4383 -2.4225 -2.3056
   82SAPS   H2Y 7650   1.858   4.879  10.197  0.5697 -1.4803 -1.1685
   82SAPS   C23 7651   1.814   5.325  10.149  0.0542  0.1426  0.8368
   82SAPS   H3R 7652   1.765   5.399  10.081  2.7795  1.1933 -0.1440
   82SAPS   H3S 7653   1.730   5.282  10.208 -1.7428 -2.8259 -3.3146
   82SAPS   C24 7654   1.890   5.223  10.062  0.4643  0.2934  0.8318
   82SAPS   H4R 7655   1.927   5.150  10.136  2.7286  2.3894  1.9264
   82SAPS   H4S 7656   1.988   5.267  10.031  0.5961  0.7140  1.8056
   82SAPS   C25 7657   1.790   5.160   9.963  0.4823 -0.6694  0.2319
   82SAPS   H5R 7658   1.702   5.120  10.016 -1.0781 -0.1977 -1.8741
   82SAPS   C26 7659   1.797   5.164   9.829  0.5919  0.3198 -0.4332
   82SAPS   H6R 7660   1.709   5.129   9.773 -0.1406  1.3644  0.0153
   82SAPS   C27 7661   1.904   5.233   9.753 -0.4051  0.1482 -0.0885
   82SAPS   H7R 7662   1.975   5.296   9.810  0.3407  1.7161 -2.5938
   82SAPS   H7S 7663   1.856   5.313   9.691  1.5020  0.6557 -0.9705
   82SAPS   C28 7664   1.971   5.120   9.672  0.6116  0.1209  0.1957
   82SAPS   H8R 7665   1.986   5.026   9.727  0.6715 -1.1312 -1.8683
   82SAPS   C29 7666   1.993   5.112   9.537 -0.3039 -0.2102 -0.0636
   82SAPS   H9R 7667   2.034   5.016   9.500 -0.6570 -0.4433  0.1412
   82SAPS  C210 7668   1.966   5.222   9.437 -0.9144  0.0452 -0.8351
   82SAPS  H10R 7669   1.916   5.303   9.495 -0.3687 -0.5712  0.5386
   82SAPS  H10S 7670   1.896   5.176   9.364 -1.3242 -0.0359 -0.3952
   82SAPS  C211 7671   2.088   5.282   9.358  0.4604 -0.1941 -0.4793
   82SAPS  H11R 7672   2.133   5.359   9.422 -1.4618  1.4902 -1.0238
   82SAPS  C212 7673   2.099   5.268   9.225 -0.1375  0.0081 -0.0157
   82SAPS  H12R 7674   2.182   5.325   9.180 -0.0885 -0.6302 -0.7620
   82SAPS  C213 7675   2.011   5.190   9.131 -0.1536 -0.0478 -0.2858
   82SAPS  H13R 7676   2.005   5.090   9.180  3.3015  0.5799  1.7265
   82SAPS  H13S 7677   2.069   5.158   9.042  1.3402  0.9535  0.2911
   82SAPS  C214 7678   1.884   5.264   9.091 -0.3770  0.7054  0.9966
   82SAPS  H14R 7679   1.874   5.357   9.150  0.0887 -0.2029  2.5724
   82SAPS  C215 7680   1.793   5.213   9.007  0.3595  0.4138  0.7873
   82SAPS  H15R 7681   1.705   5.275   8.981 -1.6620 -2.0317  1.3683
   82SAPS  C216 7682   1.800   5.081   8.936 -0.1975 -0.2749 -1.1223
   82SAPS  H16R 7683   1.719   5.010   8.964  0.0023 -0.7459 -1.7208
   82SAPS  H16S 7684   1.895   5.030   8.960 -0.5977 -0.5809 -0.1345
   82SAPS  C217 7685   1.786   5.111   8.787  0.4665  0.1253  0.0259
   82SAPS  H17R 7686   1.775   5.018   8.728  0.1616 -0.9938  1.7781
   82SAPS  H17S 7687   1.878   5.162   8.750  0.3714  0.8424  0.7540
   82SAPS  C218 7688   1.659   5.194   8.739 -0.4730  0.3042 -0.0628
   82SAPS  H18R 7689   1.654   5.293   8.790 -0.6093  2.3436 -3.6883
   82SAPS  H18S 7690   1.575   5.138   8.784 -0.1435 -1.1386 -1.1851
   82SAPS  C219 7691   1.641   5.195   8.588 -0.4542 -0.3583 -0.0224
   82SAPS  H19R 7692   1.682   5.096   8.558 -0.0633  0.1100 -1.0580
   82SAPS  H19S 7693   1.713   5.270   8.551 -0.7158  0.0827  0.3484
   82SAPS  C220 7694   1.499   5.223   8.542  0.1005  0.2648  0.6654
   82SAPS  H20R 7695   1.461   5.319   8.581  0.1714 -0.7145  3.3562
   82SAPS  H20S 7696   1.432   5.142   8.577 -0.4993 -0.0088 -1.0436
   82SAPS  H20T 7697   1.493   5.224   8.431 -0.1787  0.6744  0.6854
   82SAPS   C33 7698   1.996   4.729  10.264  0.2947 -0.2680  0.2167
   82SAPS   H3X 7699   1.937   4.675  10.341 -2.2348 -0.0058 -1.4118
   82SAPS   H3Y 7700   2.106   4.718  10.276  0.8481  3.6085 -0.2150
   82SAPS   C34 7701   1.985   4.671  10.115  0.0667  0.9879  0.1786
   82SAPS   H4X 7702   1.882   4.694  10.080  0.2680 -0.4828 -1.5307
   82SAPS   H4Y 7703   2.005   4.562  10.120 -0.1268  0.9834  4.0918
   82SAPS   C35 7704   2.081   4.737  10.018  0.1104  0.0389 -0.4658
   82SAPS   H5X 7705   2.181   4.735  10.065  0.5345 -0.2145 -1.3517
   82SAPS   H5Y 7706   2.048   4.842  10.008  0.7556  0.1462 -1.6374
   82SAPS   C36 7707   2.074   4.668   9.884 -0.0439 -0.4388  0.2200
   82SAPS   H6X 7708   1.969   4.666   9.850 -0.0346 -5.0986 -0.1712
   82SAPS   H6Y 7709   2.104   4.561   9.887  0.7293 -0.2167  0.9384
   82SAPS   C37 7710   2.152   4.741   9.769  0.2658  0.0655 -0.7670
   82SAPS   H7X 7711   2.260   4.718   9.778  0.3293  0.8474  0.7598
   82SAPS   H7Y 7712   2.147   4.850   9.788 -0.3204  0.1185 -1.1917
   82SAPS   C38 7713   2.103   4.711   9.628 -0.3184  0.0215  0.7836
   82SAPS   H8X 7714   1.997   4.745   9.620 -0.5965 -1.1031 -0.6775
   82SAPS   H8Y 7715   2.107   4.600   9.625  1.7299  0.0764  0.5921
   82SAPS   C39 7716   2.190   4.777   9.514 -0.2881 -0.0739 -0.5619
   82SAPS   H9X 7717   2.286   4.721   9.512 -0.2283  0.0364 -0.9535
   82SAPS   H9Y 7718   2.209   4.883   9.539  1.3037 -0.2346 -0.9561
   82SAPS  C310 7719   2.118   4.750   9.381  0.3339 -0.6592 -0.3274
   82SAPS  H10X 7720   2.030   4.818   9.372  0.1465 -1.0699 -1.7347
   82SAPS  H10Y 7721   2.095   4.641   9.381  1.1730 -0.8472  0.2898
   82SAPS  C311 7722   2.205   4.764   9.259  0.0734  0.1597  0.8137
   82SAPS  H11X 7723   2.146   4.741   9.168  0.3999 -0.1032  0.6716
   82SAPS  H11Y 7724   2.287   4.691   9.267  1.2518  1.0576 -1.8146
   82SAPS  C312 7725   2.251   4.910   9.230  0.7105  0.4187 -0.0320
   82SAPS  H12X 7726   2.317   4.947   9.312  0.6585  3.2043 -1.1505
   82SAPS  H12Y 7727   2.160   4.975   9.231  0.3980  0.0895 -2.3283
   82SAPS  C313 7728   2.331   4.925   9.095 -0.4261  0.1148 -0.8664
   82SAPS  H13X 7729   2.427   4.870   9.108 -1.3471 -1.6608 -1.1912
   82SAPS  H13Y 7730   2.356   5.033   9.092  1.4346 -0.2524 -0.1086
   82SAPS  C314 7731   2.257   4.867   8.974  0.0455 -0.0896 -0.3726
   82SAPS  H14X 7732   2.155   4.907   8.989  0.0097 -0.1790 -0.3775
   82SAPS  H14Y 7733   2.243   4.756   8.979  0.4847 -0.1047  0.6244
   82SAPS  C315 7734   2.312   4.918   8.845  0.5568 -0.3044  0.4284
   82SAPS  H15X 7735   2.335   5.027   8.842 -0.7309 -0.0339 -0.6157
   82SAPS  H15Y 7736   2.231   4.895   8.773  0.2511  0.8122  0.4028
   82SAPS  C316 7737   2.440   4.842   8.806  0.6881  0.6426 -0.3727
   82SAPS  H16X 7738   2.429   4.731   8.803  2.9066  0.3944 -1.4754
   82SAPS  H16Y 7739   2.523   4.865   8.875  0.8644  0.1783 -0.4216
   82SAPS  C317 7740   2.503   4.892   8.675  0.1811  0.2081  0.2641
   82SAPS  H17X 7741   2.489   5.002   8.667 -1.6220  0.0325  0.5401
   82SAPS  H17Y 7742   2.448   4.854   8.586  0.4811  1.6303 -0.5653
   82SAPS  C318 7743   2.650   4.859   8.670  0.6305  0.4300  0.8667
   82SAPS  H18X 7744   2.663   4.750   8.654 -1.7035  0.2171  0.0542
   82SAPS  H18Y 7745   2.705   4.893   8.760  1.2462 -0.1379  0.7134
   82SAPS  H18Z 7746   2.704   4.893   8.579  1.0292  0.3250  1.0614
   83SAPS     N 7747   4.429   5.866  11.029 -0.1515 -0.4102 -0.0253
   83SAPS   HN1 7748   4.417   5.867  10.925 -1.4797  1.1832  0.0993
   83SAPS   HN2 7749   4.521   5.821  11.049  0.1816  0.4535  0.4538
   83SAPS   HN3 7750   4.347   5.819  11.071 -0.2339 -0.9039 -0.7057
   83SAPS   C12 7751   4.438   6.007  11.075  0.5289  0.1295  0.0052
   83SAPS  H12A 7752   4.437   6.004  11.183 -3.0566  1.6783  0.1697
   83SAPS   C13 7753   4.550   6.101  11.023 -0.1334 -0.1043 -0.1370
   83SAPS  O13A 7754   4.630   6.050  10.941 -0.5511  0.0290  0.0141
   83SAPS  O13B 7755   4.580   6.211  11.076  0.1268  0.1144 -0.0800
   83SAPS   C11 7756   4.307   6.077  11.025 -0.1438  0.3124 -0.4295
   83SAPS  H11A 7757   4.318   6.093  10.915  1.0522  0.4112 -0.3076
   83SAPS  H11B 7758   4.305   6.172  11.083  0.0741 -0.4456  0.8585
   83SAPS     P 7759   4.066   5.983  10.964  0.0720  0.1496 -0.7952
   83SAPS   O13 7760   4.060   5.835  10.942 -0.4877 -0.3464 -0.1416
   83SAPS   O14 7761   3.942   6.049  11.022  0.0643  0.4023 -0.5924
   83SAPS   O12 7762   4.191   6.013  11.056  0.4069  0.3647 -0.5217
   83SAPS   O11 7763   4.111   6.058  10.829 -0.2531 -0.0398  0.0218
   83SAPS    C1 7764   4.066   6.197  10.814 -0.1426 -0.3269  0.1690
   83SAPS    HA 7765   4.086   6.264  10.900 -0.1433 -0.8544  0.5885
   83SAPS    HB 7766   4.141   6.236  10.741  1.0247 -1.5832  0.6402
   83SAPS    C2 7767   3.922   6.224  10.763 -0.1007 -0.6700 -0.1296
   83SAPS    HS 7768   3.853   6.203  10.848  1.3876 -0.6554  1.1383
   83SAPS   O21 7769   3.900   6.139  10.646  0.5398 -0.4507  0.3388
   83SAPS   C21 7770   3.772   6.127  10.615 -0.6293  0.1358 -0.6534
   83SAPS   O22 7771   3.676   6.189  10.660 -0.1292  0.1828 -0.4847
   83SAPS   C22 7772   3.760   6.002  10.523 -0.4066  0.8552 -0.3458
   83SAPS   H2R 7773   3.851   5.938  10.527 -0.7793  0.3721  0.6096
   83SAPS   H2S 7774   3.681   5.947  10.577  0.5734  0.5729  0.8507
   83SAPS    C3 7775   3.902   6.371  10.709  0.0706  0.3527  0.1447
   83SAPS    HX 7776   3.924   6.440  10.793 -0.4535  0.9986 -0.2366
   83SAPS    HY 7777   3.798   6.381  10.672 -0.0301  0.1907  0.3786
   83SAPS   O31 7778   3.983   6.396  10.588  0.2833 -0.0392 -0.3571
   83SAPS   C31 7779   4.104   6.448  10.597  0.1312 -1.3262 -0.5955
   83SAPS   O32 7780   4.164   6.471  10.700  0.2558  0.0751  0.0437
   83SAPS   C32 7781   4.152   6.505  10.459  0.6929 -0.8259 -0.2119
   83SAPS   H2X 7782   4.253   6.543  10.483 -0.4956  1.9562  0.8680
   83SAPS   H2Y 7783   4.082   6.589  10.439  1.3839 -0.3590 -0.6874
   83SAPS   C23 7784   3.737   6.023  10.374 -0.1034  0.0614  0.3369
   83SAPS   H3R 7785   3.666   6.105  10.349  1.5047  1.4617  0.1566
   83SAPS   H3S 7786   3.685   5.932  10.337 -0.2679 -0.9048  2.7953
   83SAPS   C24 7787   3.868   6.057  10.297 -0.1127 -0.2102 -0.1506
   83SAPS   H4R 7788   3.917   6.142  10.349  0.7052 -0.1980 -0.9213
   83SAPS   H4S 7789   3.847   6.099  10.196  0.1758  0.0029 -0.1228
   83SAPS   C25 7790   3.975   5.946  10.282  0.2249 -0.2877 -0.6012
   83SAPS   H5R 7791   4.030   5.916  10.372  0.9595  1.9422 -0.2485
   83SAPS   C26 7792   4.010   5.879  10.169 -0.0829 -0.0335 -0.0384
   83SAPS   H6R 7793   4.096   5.811  10.166  0.0121  0.1112 -2.1269
   83SAPS   C27 7794   3.947   5.899  10.033  0.0656 -0.0157 -0.6846
   83SAPS   H7R 7795   3.941   6.008  10.014 -2.6027  0.0397  0.1548
   83SAPS   H7S 7796   3.839   5.874  10.030  0.3885 -1.4034 -3.5691
   83SAPS   C28 7797   4.018   5.819   9.925 -0.0478  0.0458  0.6823
   83SAPS   H8R 7798   4.105   5.760   9.955 -1.0285 -0.6887  2.2480
   83SAPS   C29 7799   3.978   5.818   9.798 -0.2063  0.6657  0.3038
   83SAPS   H9R 7800   4.040   5.759   9.728 -0.3197  2.5034 -1.4130
   83SAPS  C210 7801   3.867   5.882   9.728 -0.1141  0.3494 -0.5004
   83SAPS  H10R 7802   3.787   5.903   9.803  0.7546  0.5028  0.4011
   83SAPS  H10S 7803   3.822   5.807   9.660 -0.2566 -1.0065  1.0441
   83SAPS  C211 7804   3.902   6.010   9.662  0.0917 -0.6834  0.1557
   83SAPS  H11R 7805   3.925   6.099   9.722 -0.3134  0.1563 -0.8965
   83SAPS  C212 7806   3.912   6.026   9.528  0.0157 -0.4035 -1.4847
   83SAPS  H12R 7807   3.936   6.128   9.495  0.7663 -0.5255 -1.3444
   83SAPS  C213 7808   3.887   5.933   9.412 -0.4335  1.3913 -0.5519
   83SAPS  H13R 7809   3.799   5.962   9.351 -0.4545  1.4774 -0.4812
   83SAPS  H13S 7810   3.848   5.836   9.449 -2.0223  2.2046  0.0039
   83SAPS  C214 7811   4.006   5.906   9.324  0.0351  0.1611 -0.1486
   83SAPS  H14R 7812   4.074   5.991   9.312 -0.2341  0.3057 -0.6761
   83SAPS  C215 7813   4.042   5.777   9.292 -0.1579  0.5892  0.0286
   83SAPS  H15R 7814   4.137   5.758   9.241 -0.1009  2.9464 -0.8970
   83SAPS  C216 7815   3.969   5.643   9.313 -0.5090 -0.2913 -1.0601
   83SAPS  H16R 7816   3.961   5.587   9.217 -2.7183 -2.0771  0.0501
   83SAPS  H16S 7817   3.862   5.664   9.338 -1.1726 -0.8097 -3.2186
   83SAPS  C217 7818   4.037   5.564   9.427 -1.5484  0.4969  0.0325
   83SAPS  H17R 7819   3.970   5.485   9.469 -0.5200 -0.0301  0.7248
   83SAPS  H17S 7820   4.055   5.631   9.513  2.9496 -0.6058  0.1955
   83SAPS  C218 7821   4.172   5.495   9.391 -0.1814 -0.2385 -0.0176
   83SAPS  H18R 7822   4.243   5.576   9.362  0.1889 -1.3418 -2.4500
   83SAPS  H18S 7823   4.153   5.434   9.300  2.8663 -0.1992 -0.8137
   83SAPS  C219 7824   4.220   5.403   9.506  0.3249  0.1814  0.3623
   83SAPS  H19R 7825   4.143   5.332   9.545  1.3636 -0.3297  1.5321
   83SAPS  H19S 7826   4.245   5.470   9.591  0.7846  3.1913 -1.9770
   83SAPS  C220 7827   4.335   5.316   9.471 -0.4073  0.2437  0.1774
   83SAPS  H20R 7828   4.321   5.242   9.389 -1.2189 -0.8294  1.2456
   83SAPS  H20S 7829   4.382   5.264   9.558  1.4390  1.9295  0.2523
   83SAPS  H20T 7830   4.416   5.383   9.434 -0.9962  0.0678 -1.4720
   83SAPS   C33 7831   4.146   6.401  10.344 -0.1507  0.5087  0.0608
   83SAPS   H3X 7832   4.155   6.465  10.254  1.5198 -1.1304 -1.0127
   83SAPS   H3Y 7833   4.046   6.353  10.345  0.4638 -0.8822  2.0283
   83SAPS   C34 7834   4.245   6.287  10.344 -0.1689  0.0555  0.1684
   83SAPS   H4X 7835   4.229   6.222  10.433  1.7769 -1.7528 -0.7047
   83SAPS   H4Y 7836   4.348   6.328  10.354 -0.0150  0.0516 -1.1954
   83SAPS   C35 7837   4.254   6.197  10.212  0.2547 -0.4327 -0.7401
   83SAPS   H5X 7838   4.163   6.133  10.216 -1.2774  1.7396  1.5709
   83SAPS   H5Y 7839   4.353   6.148  10.212  0.7628  0.5490  0.3813
   83SAPS   C36 7840   4.239   6.268  10.078 -0.4725 -0.6772  0.1333
   83SAPS   H6X 7841   4.301   6.359  10.093  0.7029 -1.1311 -1.6038
   83SAPS   H6Y 7842   4.133   6.298  10.064 -1.2990 -2.6609  1.6781
   83SAPS   C37 7843   4.293   6.202   9.951 -0.4233 -0.9862  0.1509
   83SAPS   H7X 7844   4.225   6.115   9.937 -2.6295  0.7313 -0.3478
   83SAPS   H7Y 7845   4.400   6.170   9.951  0.4511  1.6858  1.2417
   83SAPS   C38 7846   4.272   6.278   9.825  0.3688 -0.0759  0.4155
   83SAPS   H8X 7847   4.344   6.362   9.821  0.3608 -0.0837  0.0741
   83SAPS   H8Y 7848   4.170   6.323   9.822  0.6201  0.4777 -0.0848
   83SAPS   C39 7849   4.275   6.189   9.693 -0.5564  0.6108 -0.6354
   83SAPS   H9X 7850   4.206   6.102   9.700 -1.4396  1.4264  1.8033
   83SAPS   H9Y 7851   4.376   6.143   9.682 -0.3807  1.3576 -2.3390
   83SAPS  C310 7852   4.252   6.277   9.573 -0.8211  0.3375 -0.3220
   83SAPS  H10X 7853   4.331   6.355   9.576 -2.3953  1.9476  1.4807
   83SAPS  H10Y 7854   4.149   6.317   9.584 -1.5895 -1.8862  1.1604
   83SAPS  C311 7855   4.270   6.225   9.433  0.2406  0.4727 -0.0624
   83SAPS  H11X 7856   4.229   6.122   9.437 -0.9022  0.8895 -0.5362
   83SAPS  H11Y 7857   4.374   6.214   9.396  0.6854  2.2358  0.5945
   83SAPS  C312 7858   4.186   6.318   9.345  0.6345  0.0294  0.0189
   83SAPS  H12X 7859   4.231   6.419   9.336 -1.1185  0.7110 -1.9256
   83SAPS  H12Y 7860   4.082   6.337   9.381 -0.3012 -0.1743 -2.4003
   83SAPS  C313 7861   4.171   6.263   9.202  0.1808  0.5148  0.0102
   83SAPS  H13X 7862   4.114   6.169   9.217  2.7616 -0.9932  0.8676
   83SAPS  H13Y 7863   4.266   6.231   9.153  0.3143 -0.5880  0.9491
   83SAPS  C314 7864   4.090   6.345   9.095 -0.9330 -0.5377  0.2921
   83SAPS  H14X 7865   4.158   6.426   9.060 -0.5614 -0.3611  1.3926
   83SAPS  H14Y 7866   3.995   6.395   9.121 -1.5254 -1.2879 -0.3821
   83SAPS  C315 7867   4.064   6.259   8.972  0.0059  0.2799 -0.7900
   83SAPS  H15X 7868   3.993   6.178   9.000 -2.2875  2.5270  0.2732
   83SAPS  H15Y 7869   4.153   6.208   8.930 -0.0292 -1.3697  1.0196
   83SAPS  C316 7870   3.997   6.335   8.861  0.2177 -0.0336  0.2550
   83SAPS  H16X 7871   3.955   6.430   8.901  2.8560  2.5908 -2.6546
   83SAPS  H16Y 7872   3.908   6.279   8.826  0.1500 -0.6401  1.3637
   83SAPS  C317 7873   4.087   6.366   8.745 -0.1211 -0.3758  0.2676
   83SAPS  H17X 7874   4.147   6.281   8.706 -0.9266 -0.1786 -1.5040
   83SAPS  H17Y 7875   4.159   6.444   8.779  0.2454 -0.6301  0.0899
   83SAPS  C318 7876   4.020   6.423   8.623 -0.0981 -0.1000 -0.1488
   83SAPS  H18X 7877   3.964   6.518   8.635  2.3866  1.6024 -1.3316
   83SAPS  H18Y 7878   3.950   6.345   8.585 -0.3460  0.5225 -1.0161
   83SAPS  H18Z 7879   4.090   6.435   8.537 -0.1025  0.0671 -0.1293
   84SAPS     N 7880   4.832   5.877  10.945  0.1361  0.0149  0.3251
   84SAPS   HN1 7881   4.779   5.803  10.894  0.3912 -0.3270  0.5586
   84SAPS   HN2 7882   4.757   5.947  10.962 -0.4368 -0.6970  0.7655
   84SAPS   HN3 7883   4.901   5.912  10.875 -2.2224  0.0550 -2.1994
   84SAPS   C12 7884   4.893   5.824  11.063 -0.4012  0.1395 -0.0306
   84SAPS  H12A 7885   4.924   5.912  11.118  1.5786 -0.4280 -0.1443
   84SAPS   C13 7886   4.777   5.747  11.143  0.2180  0.5611 -0.4094
   84SAPS  O13A 7887   4.659   5.749  11.109 -0.0339  0.1415  0.2192
   84SAPS  O13B 7888   4.810   5.710  11.256  0.9276  0.0609 -0.4844
   84SAPS   C11 7889   5.009   5.723  11.032  0.2728 -0.4986 -0.0652
   84SAPS  H11A 7890   4.958   5.636  10.985  1.1306 -0.0153 -1.9959
   84SAPS  H11B 7891   5.055   5.680  11.123 -0.4542 -0.4260  0.3450
   84SAPS     P 7892   5.165   5.697  10.834  0.1303 -0.6183 -0.0190
   84SAPS   O13 7893   5.292   5.758  10.773 -0.1040  0.7414 -0.3606
   84SAPS   O14 7894   5.192   5.557  10.876 -0.0160 -0.0165 -0.4786
   84SAPS   O12 7895   5.109   5.786  10.953  0.0612 -0.9110 -0.2571
   84SAPS   O11 7896   5.044   5.719  10.733 -0.3777 -0.3813 -0.5480
   84SAPS    C1 7897   4.976   5.610  10.671 -0.2396  0.8558  0.3998
   84SAPS    HA 7898   4.932   5.552  10.754  0.1057  1.2810  0.8860
   84SAPS    HB 7899   4.888   5.650  10.616 -0.1684  1.2158  0.5422
   84SAPS    C2 7900   5.062   5.527  10.578  0.9272  0.5454  0.2335
   84SAPS    HS 7901   5.115   5.447  10.635  3.0198  0.7491 -1.3078
   84SAPS   O21 7902   5.161   5.604  10.509  0.8521  0.3725 -0.2975
   84SAPS   C21 7903   5.271   5.538  10.465 -0.4269 -0.9418 -0.1996
   84SAPS   O22 7904   5.287   5.416  10.487  0.2692 -0.5422 -0.5070
   84SAPS   C22 7905   5.367   5.629  10.393 -0.1968  0.2619  0.2565
   84SAPS   H2R 7906   5.313   5.696  10.322 -2.5560  0.1227  1.8112
   84SAPS   H2S 7907   5.425   5.690  10.465  0.9759 -1.6777  1.0298
   84SAPS    C3 7908   4.980   5.441  10.474 -0.4640  0.3465  0.7124
   84SAPS    HX 7909   4.912   5.376  10.532 -0.2342  1.2094  2.0018
   84SAPS    HY 7910   5.047   5.374  10.416 -1.1890  0.8546 -0.7561
   84SAPS   O31 7911   4.894   5.525  10.388 -0.2242 -0.3723 -0.0412
   84SAPS   C31 7912   4.966   5.571  10.279  0.4152 -0.2009  0.6871
   84SAPS   O32 7913   5.081   5.543  10.247  0.2657  0.8524  0.1834
   84SAPS   C32 7914   4.869   5.624  10.178 -0.0133 -0.6745 -0.4514
   84SAPS   H2X 7915   4.834   5.715  10.231  0.9472 -0.1667 -0.6741
   84SAPS   H2Y 7916   4.783   5.553  10.179 -0.4820 -0.1667 -1.7089
   84SAPS   C23 7917   5.477   5.553  10.315  0.0504  0.5376  0.1675
   84SAPS   H3R 7918   5.433   5.462  10.270  0.8490  0.0198  0.4105
   84SAPS   H3S 7919   5.556   5.513  10.381 -0.9521 -0.7199  0.6362
   84SAPS   C24 7920   5.532   5.627  10.193 -0.0795  0.0791  0.0353
   84SAPS   H4R 7921   5.617   5.567  10.153 -0.4139 -1.0878  1.0072
   84SAPS   H4S 7922   5.573   5.720  10.237 -1.4431 -0.6715  3.1874
   84SAPS   C25 7923   5.428   5.643  10.083 -0.3070  0.3135  0.3765
   84SAPS   H5R 7924   5.377   5.548  10.060 -0.8652  0.6135  0.3641
   84SAPS   C26 7925   5.382   5.748  10.018  0.1149 -0.0861 -0.3336
   84SAPS   H6R 7926   5.300   5.744   9.945 -1.7459  1.9020  1.5087
   84SAPS   C27 7927   5.423   5.889  10.051 -0.3047  0.6407 -0.6929
   84SAPS   H7R 7928   5.500   5.907   9.974 -0.7178  1.3911 -0.9438
   84SAPS   H7S 7929   5.477   5.887  10.148 -0.7553 -0.0697 -0.4488
   84SAPS   C28 7930   5.318   5.999  10.060  0.2538  0.3846 -0.7229
   84SAPS   H8R 7931   5.310   6.041  10.161 -1.5922 -3.2581  0.8648
   84SAPS   C29 7932   5.261   6.059   9.955  0.0043 -0.5435  0.4998
   84SAPS   H9R 7933   5.188   6.141   9.962  1.2785  1.0460 -2.9065
   84SAPS  C210 7934   5.274   6.022   9.812  0.7000 -0.1523 -0.0573
   84SAPS  H10R 7935   5.192   6.074   9.759  0.4341 -0.9835 -0.4725
   84SAPS  H10S 7936   5.249   5.916   9.790  0.2945 -0.2415  0.7886
   84SAPS  C211 7937   5.406   6.043   9.740  0.3972 -0.0502 -0.7363
   84SAPS  H11R 7938   5.494   6.057   9.805 -0.8015 -0.3684  1.0457
   84SAPS  C212 7939   5.423   6.044   9.607 -0.3065 -0.1004 -0.4100
   84SAPS  H12R 7940   5.523   6.071   9.568  0.2666  0.5589  1.4333
   84SAPS  C213 7941   5.305   6.040   9.506 -0.4739  0.3335  0.0220
   84SAPS  H13R 7942   5.267   6.144   9.516  0.1481  0.5975 -0.2465
   84SAPS  H13S 7943   5.220   5.978   9.539 -0.1053 -1.3514 -1.9550
   84SAPS  C214 7944   5.336   6.013   9.361  0.1861  0.3536 -0.0360
   84SAPS  H14R 7945   5.331   5.906   9.339 -0.8385  0.9729 -3.4258
   84SAPS  C215 7946   5.342   6.101   9.263 -0.1158  0.0503 -0.1386
   84SAPS  H15R 7947   5.366   6.071   9.160  1.6191 -2.2361  0.8376
   84SAPS  C216 7948   5.322   6.251   9.277  0.6583 -0.3261 -0.7389
   84SAPS  H16R 7949   5.420   6.297   9.251 -0.2810  1.7633 -0.7405
   84SAPS  H16S 7950   5.306   6.286   9.381  0.0184 -1.1035 -0.5628
   84SAPS  C217 7951   5.212   6.316   9.176  0.4162  0.8274 -0.0580
   84SAPS  H17R 7952   5.120   6.257   9.192 -1.9246  3.7062 -1.9213
   84SAPS  H17S 7953   5.245   6.309   9.070  0.8953 -1.5823  0.1926
   84SAPS  C218 7954   5.171   6.455   9.219  0.0296 -0.1852  0.1563
   84SAPS  H18R 7955   5.256   6.525   9.201  0.6150 -1.2362 -1.4484
   84SAPS  H18S 7956   5.154   6.435   9.327  1.7163 -0.3766  0.4229
   84SAPS  C219 7957   5.041   6.497   9.146 -0.0138  0.0378 -0.0443
   84SAPS  H19R 7958   5.012   6.591   9.198  3.5137  0.6148  1.1551
   84SAPS  H19S 7959   4.977   6.407   9.161  0.6653 -0.6034 -0.9544
   84SAPS  C220 7960   5.053   6.531   8.996  0.0542  0.0939 -0.1380
   84SAPS  H20R 7961   5.148   6.584   8.973  1.1404 -0.5158  2.6190
   84SAPS  H20S 7962   4.966   6.588   8.955  0.9431  0.2493 -1.9146
   84SAPS  H20T 7963   5.047   6.435   8.941 -0.6292  0.5601 -0.9207
   84SAPS   C33 7964   4.937   5.663  10.042  0.2455  0.4357 -0.0411
   84SAPS   H3X 7965   4.950   5.573   9.978 -1.5138 -0.1749  0.4148
   84SAPS   H3Y 7966   5.043   5.688  10.066  1.0630 -1.6942 -1.1336
   84SAPS   C34 7967   4.886   5.784   9.961 -0.6685  0.3697  1.3255
   84SAPS   H4X 7968   4.886   5.870  10.032 -1.2759  0.8048  0.8109
   84SAPS   H4Y 7969   4.781   5.754   9.942 -0.8416  2.0503 -0.6375
   84SAPS   C35 7970   4.969   5.816   9.833  0.0790  0.6571  0.4167
   84SAPS   H5X 7971   5.077   5.807   9.858 -0.1690  2.8545  2.7644
   84SAPS   H5Y 7972   4.953   5.925   9.815  1.3873  0.7371 -0.4475
   84SAPS   C36 7973   4.942   5.722   9.712  0.6924  0.0711 -0.6103
   84SAPS   H6X 7974   4.833   5.712   9.698  0.1506  1.4740  2.0079
   84SAPS   H6Y 7975   4.984   5.623   9.738 -0.9020 -0.1597  1.2829
   84SAPS   C37 7976   4.997   5.768   9.582  0.3681  0.4752  0.5203
   84SAPS   H7X 7977   4.979   5.679   9.519 -0.0069 -0.0351  1.3276
   84SAPS   H7Y 7978   5.107   5.777   9.594  0.4813 -0.1746  0.0427
   84SAPS   C38 7979   4.934   5.892   9.516  0.7521  1.2613  0.4117
   84SAPS   H8X 7980   4.956   5.981   9.580 -0.8025  1.1597  1.1337
   84SAPS   H8Y 7981   4.825   5.884   9.501  0.6629 -0.0728  1.5480
   84SAPS   C39 7982   4.983   5.908   9.368 -0.0810 -0.8153 -0.5938
   84SAPS   H9X 7983   4.998   5.813   9.312  1.3239 -0.3258 -1.0690
   84SAPS   H9Y 7984   5.086   5.947   9.382 -1.1265  1.3112  2.2023
   84SAPS  C310 7985   4.887   6.008   9.301  0.7304  0.4998 -1.0831
   84SAPS  H10X 7986   4.887   6.114   9.334  0.0177  0.4660 -0.9687
   84SAPS  H10Y 7987   4.779   5.983   9.305 -0.1690  3.9963  1.0607
   84SAPS  C311 7988   4.924   6.008   9.156  0.0592  0.6037  0.6013
   84SAPS  H11X 7989   4.891   5.909   9.116  1.1364  0.8765 -1.0359
   84SAPS  H11Y 7990   5.034   6.001   9.141  0.2598 -0.3602  2.2318
   84SAPS  C312 7991   4.858   6.111   9.068  0.0873  0.5136 -0.2716
   84SAPS  H12X 7992   4.906   6.210   9.084  0.1280  0.4466  0.0221
   84SAPS  H12Y 7993   4.751   6.116   9.100  0.1038 -2.0134  0.4061
   84SAPS  C313 7994   4.858   6.092   8.912 -0.3493  0.0091 -0.4100
   84SAPS  H13X 7995   4.785   6.162   8.868 -0.1947  0.2692 -0.2564
   84SAPS  H13Y 7996   4.811   5.992   8.899 -0.3223 -0.2624  1.3242
   84SAPS  C314 7997   4.997   6.099   8.843  0.0823 -0.1229  0.1102
   84SAPS  H14X 7998   5.074   6.046   8.902  2.0802  2.8544  0.3865
   84SAPS  H14Y 7999   5.026   6.206   8.833  0.0513 -0.0891  0.3694
   84SAPS  C315 8000   4.984   6.046   8.697  0.8775 -0.7012 -0.3168
   84SAPS  H15X 8001   4.903   6.104   8.648  1.8141  1.6476  0.7700
   84SAPS  H15Y 8002   4.956   5.938   8.692 -1.2370 -0.1267 -2.4779
   84SAPS  C316 8003   5.107   6.078   8.612  0.0996 -0.4902 -0.4644
   84SAPS  H16X 8004   5.194   6.019   8.648  0.4213  0.1614 -0.1397
   84SAPS  H16Y 8005   5.126   6.186   8.632  1.4130 -0.7972  0.0309
   84SAPS  C317 8006   5.095   6.045   8.462  0.3975 -0.1885 -0.0512
   84SAPS  H17X 8007   5.000   6.082   8.418 -0.3500 -2.7109 -0.7027
   84SAPS  H17Y 8008   5.097   5.935   8.449  0.3212 -0.1660 -0.2506
   84SAPS  C318 8009   5.209   6.105   8.391 -0.2243 -0.0399  0.4017
   84SAPS  H18X 8010   5.301   6.044   8.403 -0.4762 -0.4133  0.4718
   84SAPS  H18Y 8011   5.222   6.213   8.411  0.2726 -0.4184  2.3641
   84SAPS  H18Z 8012   5.188   6.104   8.282 -2.3312  0.8501  0.7582
   85SAPS     N 8013   2.938   6.753  10.858 -0.1771 -0.2956 -0.0791
   85SAPS   HN1 8014   2.878   6.835  10.880  1.1143  0.8098 -0.5611
   85SAPS   HN2 8015   3.037   6.782  10.862 -1.1033  3.1552  2.0900
   85SAPS   HN3 8016   2.916   6.714  10.764  0.6948 -1.9032  0.3424
   85SAPS   C12 8017   2.921   6.651  10.968  0.4371 -0.5762  0.6613
   85SAPS  H12A 8018   2.978   6.571  10.923  0.8529 -0.0996  0.3275
   85SAPS   C13 8019   2.984   6.683  11.103  0.6086 -0.0620  0.2534
   85SAPS  O13A 8020   3.035   6.796  11.136 -0.1529 -0.1604  0.4481
   85SAPS  O13B 8021   2.987   6.600  11.194 -0.4004  0.1398  0.2064
   85SAPS   C11 8022   2.766   6.615  10.980  0.2491  0.0736  0.1784
   85SAPS  H11A 8023   2.722   6.679  11.058  1.8109 -0.2405  1.3715
   85SAPS  H11B 8024   2.767   6.515  11.028  1.8073  0.1678  0.4093
   85SAPS     P 8025   2.559   6.534  10.833 -0.1062 -0.3356 -0.4413
   85SAPS   O13 8026   2.531   6.470  10.962  0.1212 -0.0976 -0.6423
   85SAPS   O14 8027   2.457   6.613  10.761  0.5977  0.4443 -0.3506
   85SAPS   O12 8028   2.697   6.619  10.854 -0.1579  0.4824 -0.5933
   85SAPS   O11 8029   2.616   6.415  10.738  0.5242 -0.1639 -0.4871
   85SAPS    C1 8030   2.753   6.424  10.701  0.1566  0.5194  0.0006
   85SAPS    HA 8031   2.790   6.526  10.674 -0.3984  0.9314  0.7527
   85SAPS    HB 8032   2.823   6.388  10.779 -0.0947  3.0519  1.5179
   85SAPS    C2 8033   2.793   6.345  10.563 -0.0455  0.4615  0.0609
   85SAPS    HS 8034   2.903   6.351  10.552 -0.0729  1.0115  0.0551
   85SAPS   O21 8035   2.723   6.403  10.451 -0.7246 -0.6155 -0.4100
   85SAPS   C21 8036   2.782   6.503  10.385  0.2212 -0.1447 -0.2813
   85SAPS   O22 8037   2.887   6.557  10.415  0.1012  0.2754 -0.0974
   85SAPS   C22 8038   2.684   6.535  10.269  0.6612  0.7969 -0.2411
   85SAPS   H2R 8039   2.700   6.459  10.190  1.1733  0.0803  0.5280
   85SAPS   H2S 8040   2.582   6.518  10.307  1.1152 -0.2514  0.5646
   85SAPS    C3 8041   2.746   6.199  10.555 -0.2075 -0.2983  0.3865
   85SAPS    HX 8042   2.641   6.187  10.521 -0.0958 -0.7358  0.1765
   85SAPS    HY 8043   2.745   6.156  10.657 -1.7640  0.1137  0.5612
   85SAPS   O31 8044   2.832   6.118  10.475 -0.4161 -0.3551 -0.0498
   85SAPS   C31 8045   2.813   5.989  10.483  0.2956 -0.8900  0.4012
   85SAPS   O32 8046   2.726   5.932  10.546 -0.1941 -0.0140 -0.4649
   85SAPS   C32 8047   2.919   5.920  10.397 -0.4061 -0.3232 -0.0717
   85SAPS   H2X 8048   3.013   5.920  10.456  1.0942  0.5244 -2.3082
   85SAPS   H2Y 8049   2.941   5.968  10.299 -1.5933 -1.3818 -0.8883
   85SAPS   C23 8050   2.724   6.673  10.218  0.0245  0.0618  0.6201
   85SAPS   H3R 8051   2.834   6.686  10.206 -0.0930 -0.2203 -0.9881
   85SAPS   H3S 8052   2.701   6.748  10.296 -2.0673 -1.9146  2.0297
   85SAPS   C24 8053   2.646   6.716  10.088  0.4689  0.3423  0.0063
   85SAPS   H4R 8054   2.653   6.825  10.066  1.7490 -0.2139 -2.8508
   85SAPS   H4S 8055   2.539   6.703  10.112  0.5680  0.7230  0.6704
   85SAPS   C25 8056   2.674   6.633   9.971 -0.1782 -0.0379 -0.0778
   85SAPS   H5R 8057   2.655   6.525   9.980 -0.6045  0.2248  3.1384
   85SAPS   C26 8058   2.705   6.672   9.848 -0.9179 -0.2647 -0.2187
   85SAPS   H6R 8059   2.738   6.596   9.776  1.5907  0.8206 -0.3170
   85SAPS   C27 8060   2.733   6.815   9.807  0.3080 -0.7080  0.4860
   85SAPS   H7R 8061   2.728   6.898   9.881 -0.8202  1.9747 -2.3899
   85SAPS   H7S 8062   2.651   6.845   9.739  0.4807 -0.7177  0.2719
   85SAPS   C28 8063   2.867   6.811   9.739  0.2824 -0.4241 -0.3310
   85SAPS   H8R 8064   2.955   6.814   9.804  0.0549  0.7434 -0.0589
   85SAPS   C29 8065   2.896   6.817   9.607 -0.2900  0.7281 -0.5768
   85SAPS   H9R 8066   2.999   6.819   9.569  0.3928  0.1177  1.1338
   85SAPS  C210 8067   2.796   6.822   9.497 -0.1737 -0.1663  0.4393
   85SAPS  H10R 8068   2.752   6.924   9.495  0.8172  0.3404  2.0730
   85SAPS  H10S 8069   2.712   6.752   9.515 -0.4223  0.1518  0.5274
   85SAPS  C211 8070   2.853   6.813   9.356 -0.0701  0.9692  0.5407
   85SAPS  H11R 8071   2.855   6.711   9.315 -2.0579  0.6781  1.0331
   85SAPS  C212 8072   2.900   6.911   9.277 -0.2277 -0.3910 -0.8550
   85SAPS  H12R 8073   2.951   6.883   9.184  0.5879 -0.5173 -0.3755
   85SAPS  C213 8074   2.909   7.062   9.313  0.2214 -0.0925  0.1902
   85SAPS  H13R 8075   2.876   7.089   9.416  1.2012  2.2385 -0.0384
   85SAPS  H13S 8076   2.839   7.121   9.251 -0.7537  0.2141  1.5348
   85SAPS  C214 8077   3.058   7.098   9.309  0.0155 -0.6524 -0.1569
   85SAPS  H14R 8078   3.117   7.045   9.386  0.0440  1.9398  1.7354
   85SAPS  C215 8079   3.121   7.192   9.230  0.1154  0.4866 -0.4875
   85SAPS  H15R 8080   3.230   7.207   9.231  0.3596 -1.0711 -0.5663
   85SAPS  C216 8081   3.042   7.274   9.136  0.1014  0.3810  0.1940
   85SAPS  H16R 8082   3.100   7.362   9.100 -0.6130  0.4719 -0.7473
   85SAPS  H16S 8083   2.960   7.323   9.193 -0.9396 -0.4763 -0.5346
   85SAPS  C217 8084   2.992   7.199   9.010 -0.6308 -0.5840  0.2629
   85SAPS  H17R 8085   2.898   7.247   8.976 -0.1124 -0.2843 -0.7798
   85SAPS  H17S 8086   2.954   7.103   9.051  2.2263 -1.5121  0.9657
   85SAPS  C218 8087   3.090   7.186   8.897 -0.8224 -0.4693 -0.5874
   85SAPS  H18R 8088   3.053   7.130   8.809 -2.4153  0.8563 -0.8146
   85SAPS  H18S 8089   3.182   7.132   8.928 -2.2041 -2.6788 -0.0546
   85SAPS  C219 8090   3.124   7.328   8.838 -0.4297  0.1459  0.6611
   85SAPS  H19R 8091   3.184   7.381   8.914  0.6966 -2.8421  2.0222
   85SAPS  H19S 8092   3.039   7.389   8.803  0.9342  1.3173 -0.7663
   85SAPS  C220 8093   3.207   7.331   8.712  0.0354  0.1368 -0.0998
   85SAPS  H20R 8094   3.202   7.431   8.664  1.4469  0.5904  0.6351
   85SAPS  H20S 8095   3.172   7.252   8.642 -0.1091 -0.3943  0.5629
   85SAPS  H20T 8096   3.313   7.303   8.728 -0.3124 -2.1598 -1.3862
   85SAPS   C33 8097   2.881   5.776  10.371 -0.0459  0.4716 -0.0254
   85SAPS   H3X 8098   2.841   5.719  10.459 -2.6190  0.9469 -0.7977
   85SAPS   H3Y 8099   2.967   5.715  10.336 -0.4364  0.1182 -0.3893
   85SAPS   C34 8100   2.763   5.756  10.272  0.0069  0.4301 -0.5216
   85SAPS   H4X 8101   2.668   5.802  10.307 -0.5633  1.6770 -3.4138
   85SAPS   H4Y 8102   2.749   5.645  10.269  0.7000  0.3016  0.4797
   85SAPS   C35 8103   2.789   5.796  10.129  0.1284  1.3377 -0.1894
   85SAPS   H5X 8104   2.882   5.746  10.095 -0.5099  0.8412 -1.2860
   85SAPS   H5Y 8105   2.802   5.906  10.115 -0.6667  1.6595  1.4101
   85SAPS   C36 8106   2.670   5.757  10.035 -0.0141  0.2570 -0.5412
   85SAPS   H6X 8107   2.583   5.822  10.054  1.7792  2.1966  1.6972
   85SAPS   H6Y 8108   2.652   5.649  10.057 -2.5191 -0.0811 -3.4984
   85SAPS   C37 8109   2.707   5.783   9.894 -0.4490  0.0798  1.0452
   85SAPS   H7X 8110   2.800   5.732   9.862 -1.7999 -1.5167 -0.5463
   85SAPS   H7Y 8111   2.723   5.890   9.867  0.2828 -0.1514  0.5424
   85SAPS   C38 8112   2.598   5.734   9.797  0.1403  0.1034 -0.5362
   85SAPS   H8X 8113   2.503   5.791   9.809 -0.0376 -0.5386  1.4879
   85SAPS   H8Y 8114   2.571   5.627   9.813 -1.6915  0.5005 -0.7315
   85SAPS   C39 8115   2.632   5.744   9.645 -0.1641 -0.0065 -0.2328
   85SAPS   H9X 8116   2.710   5.669   9.619  0.0018  0.8348 -2.3442
   85SAPS   H9Y 8117   2.677   5.844   9.625 -1.6287  1.3173  2.5946
   85SAPS  C310 8118   2.506   5.725   9.553 -1.0806 -0.3052  0.1090
   85SAPS  H10X 8119   2.424   5.793   9.585 -1.3749  0.7342 -2.6207
   85SAPS  H10Y 8120   2.480   5.617   9.562  0.3090 -0.6745 -0.1157
   85SAPS  C311 8121   2.540   5.740   9.404 -0.0434  0.5625  0.4341
   85SAPS  H11X 8122   2.452   5.695   9.353  1.8015 -3.4375  0.4216
   85SAPS  H11Y 8123   2.633   5.683   9.382  1.4668  1.8724  2.9306
   85SAPS  C312 8124   2.543   5.887   9.358 -0.5573  0.1824 -0.7556
   85SAPS  H12X 8125   2.612   5.939   9.428 -0.5553 -0.8793  0.0656
   85SAPS  H12Y 8126   2.438   5.911   9.383 -0.7287 -0.8366 -0.4662
   85SAPS  C313 8127   2.579   5.909   9.212  0.5193 -0.4024 -0.4658
   85SAPS  H13X 8128   2.686   5.886   9.191  0.8310 -1.9645  2.3607
   85SAPS  H13Y 8129   2.577   6.020   9.206  1.9950 -0.3583 -0.6036
   85SAPS  C314 8130   2.481   5.853   9.107 -0.4213  0.0152 -0.5018
   85SAPS  H14X 8131   2.381   5.848   9.154  0.0562 -2.1888  0.4311
   85SAPS  H14Y 8132   2.493   5.743   9.095  0.3906  0.2435 -2.0364
   85SAPS  C315 8133   2.486   5.923   8.971 -0.2118  0.7281 -0.3422
   85SAPS  H15X 8134   2.456   6.031   8.973 -1.0299  0.4967  0.5598
   85SAPS  H15Y 8135   2.417   5.863   8.907 -1.1849 -0.7409  1.9763
   85SAPS  C316 8136   2.619   5.907   8.901 -0.4791  0.8017 -0.5152
   85SAPS  H16X 8137   2.663   5.806   8.892  0.4306  1.3663 -3.7300
   85SAPS  H16Y 8138   2.698   5.963   8.955  1.8576 -2.7626  0.0864
   85SAPS  C317 8139   2.599   5.957   8.754  0.8846 -0.0649  0.0714
   85SAPS  H17X 8140   2.524   5.892   8.706 -0.6825  0.4896  1.6549
   85SAPS  H17Y 8141   2.697   5.938   8.706  1.1276 -2.6938  1.4249
   85SAPS  C318 8142   2.557   6.107   8.738  0.0162  0.3595  0.3130
   85SAPS  H18X 8143   2.631   6.172   8.788  0.8255  0.0296 -0.4277
   85SAPS  H18Y 8144   2.457   6.137   8.776 -0.2639  1.3294 -1.1032
   85SAPS  H18Z 8145   2.556   6.118   8.627 -1.2651  0.0399  0.2761
   86SAPS     N 8146   4.258   0.954  11.005  0.0364 -0.5090  0.2859
   86SAPS   HN1 8147   4.226   0.930  10.909  1.8215  0.5095 -0.6119
   86SAPS   HN2 8148   4.228   1.052  11.025 -2.4663 -1.3543  1.0388
   86SAPS   HN3 8149   4.361   0.948  10.997 -0.0116 -1.2288  0.1551
   86SAPS   C12 8150   4.193   0.865  11.102 -0.2535  0.2841  0.0255
   86SAPS  H12A 8151   4.269   0.795  11.133 -0.0655 -0.2181 -1.4927
   86SAPS   C13 8152   4.150   0.937  11.230  0.5202  0.1458  0.4472
   86SAPS  O13A 8153   4.167   1.062  11.247 -0.4028 -0.0011 -0.0471
   86SAPS  O13B 8154   4.129   0.862  11.327  0.8564 -0.1344 -0.3301
   86SAPS   C11 8155   4.072   0.789  11.044 -0.7215 -0.4547 -0.2414
   86SAPS  H11A 8156   3.990   0.860  11.017  0.7003  1.0669 -0.6904
   86SAPS  H11B 8157   4.029   0.719  11.119  1.8616 -2.8557 -0.8646
   86SAPS     P 8158   4.034   0.580  10.886  0.3962  0.0701  0.1441
   86SAPS   O13 8159   4.071   0.474  10.983 -0.1882 -0.2919 -0.0171
   86SAPS   O14 8160   3.882   0.607  10.879 -0.1986  0.5862 -0.3086
   86SAPS   O12 8161   4.112   0.714  10.923  0.4874  0.5389 -0.7718
   86SAPS   O11 8162   4.097   0.553  10.749 -0.0956  0.3865  0.0370
   86SAPS    C1 8163   4.233   0.525  10.718  0.5345  0.4653  0.5362
   86SAPS    HA 8164   4.271   0.615  10.664 -1.5300  1.1522  0.1549
   86SAPS    HB 8165   4.298   0.517  10.808  0.1413 -0.5363  0.7452
   86SAPS    C2 8166   4.252   0.389  10.653  0.2010 -0.4035 -0.6591
   86SAPS    HS 8167   4.359   0.361  10.660 -0.1884 -1.5510  1.3747
   86SAPS   O21 8168   4.210   0.401  10.521 -0.1903 -0.0412  0.1360
   86SAPS   C21 8169   4.298   0.447  10.436  0.4542 -0.2616  0.5025
   86SAPS   O22 8170   4.413   0.463  10.456  0.0255 -0.6946  0.3996
   86SAPS   C22 8171   4.228   0.474  10.305  0.1926 -0.1195  0.8774
   86SAPS   H2R 8172   4.119   0.454  10.312  0.2144 -1.2583 -1.1742
   86SAPS   H2S 8173   4.241   0.577  10.268 -1.4811  0.2018  1.1216
   86SAPS    C3 8174   4.172   0.272  10.719  0.0271 -0.8339 -0.6345
   86SAPS    HX 8175   4.067   0.268  10.685 -0.2628  0.1918  0.0973
   86SAPS    HY 8176   4.169   0.296  10.827  1.5451 -0.3163 -0.6693
   86SAPS   O31 8177   4.238   0.143  10.699 -0.1594  0.3160 -0.0824
   86SAPS   C31 8178   4.342   0.126  10.782  0.4804 -0.5010 -0.2863
   86SAPS   O32 8179   4.368   0.189  10.882 -0.4445  0.0189  0.4475
   86SAPS   C32 8180   4.435   0.015  10.730 -1.0400  0.4626  0.2975
   86SAPS   H2X 8181   4.425  -0.074  10.796  1.1986 -1.8158 -2.1950
   86SAPS   H2Y 8182   4.540   0.049  10.742 -1.9845  3.9261 -0.3723
   86SAPS   C23 8183   4.289   0.391  10.183 -0.7924 -0.2598 -0.2958
   86SAPS   H3R 8184   4.289   0.289  10.225  2.7970  0.9578  3.3116
   86SAPS   H3S 8185   4.396   0.414  10.166 -0.3957 -2.0427 -0.3574
   86SAPS   C24 8186   4.199   0.409  10.059 -0.0895  0.1692  0.4281
   86SAPS   H4R 8187   4.212   0.513  10.021  1.7631 -0.5954 -1.1948
   86SAPS   H4S 8188   4.089   0.402  10.076 -0.5387  0.8826 -1.8543
   86SAPS   C25 8189   4.244   0.314   9.952  0.4885 -0.3848 -0.1311
   86SAPS   H5R 8190   4.350   0.288   9.961  0.4952 -1.1589 -2.0050
   86SAPS   C26 8191   4.164   0.236   9.877 -0.5700 -0.3339  0.4583
   86SAPS   H6R 8192   4.218   0.162   9.815 -2.3754 -1.6109  0.3216
   86SAPS   C27 8193   4.015   0.235   9.867  0.7000  0.1615  0.5329
   86SAPS   H7R 8194   3.969   0.250   9.968  1.0663  2.7181  0.3879
   86SAPS   H7S 8195   3.974   0.135   9.842 -0.0699  0.6061 -0.0220
   86SAPS   C28 8196   3.937   0.338   9.781  1.1927  0.9028  0.0174
   86SAPS   H8R 8197   3.863   0.400   9.835 -0.2657  0.5192 -1.4679
   86SAPS   C29 8198   3.954   0.370   9.653  0.0880  0.2064 -0.0472
   86SAPS   H9R 8199   3.895   0.458   9.620  0.6685  0.3425 -0.7444
   86SAPS  C210 8200   4.044   0.304   9.549  0.1749 -0.3567 -0.0694
   86SAPS  H10R 8201   3.996   0.236   9.476  0.4061 -1.1472  0.5052
   86SAPS  H10S 8202   4.121   0.247   9.605  0.2675  1.0345  1.2845
   86SAPS  C211 8203   4.126   0.404   9.467  0.0148  0.0162  0.2476
   86SAPS  H11R 8204   4.225   0.427   9.510 -0.3612 -0.5305  1.4485
   86SAPS  C212 8205   4.090   0.465   9.354  0.1765  0.4078  0.1060
   86SAPS  H12R 8206   4.151   0.544   9.307 -0.5172  0.2989 -1.0311
   86SAPS  C213 8207   3.958   0.445   9.286 -0.2769  0.5702 -0.3913
   86SAPS  H13R 8208   3.918   0.548   9.277  0.4938  0.8954 -0.1413
   86SAPS  H13S 8209   3.889   0.386   9.350  0.2118 -0.6168 -0.9087
   86SAPS  C214 8210   3.959   0.378   9.142  0.3408  0.8210 -0.1991
   86SAPS  H14R 8211   3.915   0.277   9.135 -0.1238  0.9475  0.7448
   86SAPS  C215 8212   3.993   0.431   9.024 -0.1399 -0.0416  0.2516
   86SAPS  H15R 8213   3.968   0.375   8.933 -1.8518  0.6902  0.2365
   86SAPS  C216 8214   4.053   0.564   8.995  0.1378  0.6446 -0.0736
   86SAPS  H16R 8215   4.048   0.624   9.088  0.6965  2.1734 -0.9915
   86SAPS  H16S 8216   3.980   0.610   8.925 -0.6330  0.0952  0.3575
   86SAPS  C217 8217   4.193   0.587   8.935  1.3828 -0.2683  0.3059
   86SAPS  H17R 8218   4.178   0.677   8.871  1.6274 -0.3595  0.1176
   86SAPS  H17S 8219   4.213   0.497   8.873  0.2360 -0.6053  0.3882
   86SAPS  C218 8220   4.306   0.609   9.036  0.9287  0.0072 -0.2457
   86SAPS  H18R 8221   4.318   0.511   9.088 -0.2042 -0.8748 -1.5693
   86SAPS  H18S 8222   4.277   0.686   9.111  1.1656 -1.6863  1.6613
   86SAPS  C219 8223   4.430   0.673   8.972 -0.5402  0.2342 -0.0001
   86SAPS  H19R 8224   4.406   0.763   8.911  1.4623  0.2765 -0.7829
   86SAPS  H19S 8225   4.496   0.607   8.913 -1.7414 -1.6024  0.5965
   86SAPS  C220 8226   4.523   0.712   9.087  0.1600  0.1323 -0.2654
   86SAPS  H20R 8227   4.537   0.633   9.164 -0.0405  0.0854 -0.2770
   86SAPS  H20S 8228   4.489   0.808   9.130  2.4167  0.4652  0.9308
   86SAPS  H20T 8229   4.615   0.744   9.034  0.8915  1.0500  1.4864
   86SAPS   C33 8230   4.421  -0.024  10.583  0.1917 -0.0232  0.5071
   86SAPS   H3X 8231   4.440   0.062  10.515  0.2757 -2.4821 -2.8342
   86SAPS   H3Y 8232   4.324  -0.067  10.550 -0.7583  1.2653  1.5338
   86SAPS   C34 8233   4.533  -0.121  10.537 -0.8335  0.6260  0.2850
   86SAPS   H4X 8234   4.526  -0.216  10.593 -0.6949  0.2444 -0.3346
   86SAPS   H4Y 8235   4.634  -0.078  10.553 -0.3318 -0.7989  1.0971
   86SAPS   C35 8236   4.525  -0.141  10.384  0.1798 -0.3272  0.4039
   86SAPS   H5X 8237   4.528  -0.046  10.326 -1.1419 -1.5401 -1.7787
   86SAPS   H5Y 8238   4.422  -0.179  10.369 -0.6313  1.4287  1.2052
   86SAPS   C36 8239   4.640  -0.235  10.340 -0.8390 -0.9650  0.3081
   86SAPS   H6X 8240   4.634  -0.324  10.407  0.0805 -1.1385  0.1739
   86SAPS   H6Y 8241   4.742  -0.192  10.353 -2.1070  2.5220 -0.0912
   86SAPS   C37 8242   4.630  -0.281  10.195  0.2416  0.2781  0.2567
   86SAPS   H7X 8243   4.530  -0.329  10.185  0.2695 -0.2768  2.1819
   86SAPS   H7Y 8244   4.708  -0.360  10.185  0.0759 -0.0771  1.5469
   86SAPS   C38 8245   4.677  -0.172  10.096 -0.0642  0.5314  0.1799
   86SAPS   H8X 8246   4.788  -0.168  10.093 -0.0314  0.6860  1.0659
   86SAPS   H8Y 8247   4.643  -0.071  10.129 -1.5471  0.2733 -0.4998
   86SAPS   C39 8248   4.622  -0.195   9.957 -0.2827 -0.8015  0.9381
   86SAPS   H9X 8249   4.653  -0.292   9.912 -1.3034 -1.1041  0.8610
   86SAPS   H9Y 8250   4.674  -0.123   9.889 -0.5263 -1.7169 -0.2413
   86SAPS  C310 8251   4.471  -0.176   9.935  0.2766  0.5564 -0.0302
   86SAPS  H10X 8252   4.447  -0.074   9.972 -0.7924  0.3357 -0.0854
   86SAPS  H10Y 8253   4.418  -0.248  10.001  2.6573 -1.0291  0.2518
   86SAPS  C311 8254   4.425  -0.182   9.789 -0.2969  0.1104 -0.2992
   86SAPS  H11X 8255   4.457  -0.273   9.734  1.9820  0.8767 -0.3732
   86SAPS  H11Y 8256   4.484  -0.109   9.729  4.2699 -1.1827  2.1173
   86SAPS  C312 8257   4.278  -0.154   9.755  0.5738 -0.5963  0.0421
   86SAPS  H12X 8258   4.256  -0.057   9.805 -2.8077 -1.3891  0.2873
   86SAPS  H12Y 8259   4.213  -0.235   9.795  1.6467 -1.5917 -0.1745
   86SAPS  C313 8260   4.262  -0.147   9.605 -0.6051 -0.8331 -0.2603
   86SAPS  H13X 8261   4.301  -0.246   9.573 -0.3767 -0.3817 -1.4277
   86SAPS  H13Y 8262   4.328  -0.066   9.568 -0.8264 -0.6150 -0.1811
   86SAPS  C314 8263   4.120  -0.111   9.545  0.1449  0.6213  0.0405
   86SAPS  H14X 8264   4.080  -0.022   9.597  1.1345  0.3348  1.3235
   86SAPS  H14Y 8265   4.048  -0.194   9.564 -0.2782  0.4674 -1.9416
   86SAPS  C315 8266   4.140  -0.083   9.395  0.9918 -0.6126 -0.1280
   86SAPS  H15X 8267   4.216  -0.156   9.359  1.5685 -0.9903  1.7334
   86SAPS  H15Y 8268   4.173   0.023   9.385  0.8708 -0.3229  2.0856
   86SAPS  C316 8269   4.004  -0.099   9.320  0.3349 -0.2411  0.1258
   86SAPS  H16X 8270   3.918  -0.103   9.389  1.2446 -0.0456  1.2955
   86SAPS  H16Y 8271   4.009  -0.197   9.268 -1.4846 -0.3562  0.1104
   86SAPS  C317 8272   3.975   0.018   9.221 -0.6236 -0.2145 -0.5154
   86SAPS  H17X 8273   4.071   0.052   9.175 -0.7876  0.2071 -0.5525
   86SAPS  H17Y 8274   3.948   0.099   9.291  0.9534  0.0629 -0.1746
   86SAPS  C318 8275   3.870  -0.028   9.118 -0.7842  0.3437  0.0411
   86SAPS  H18X 8276   3.846   0.058   9.052  3.3602 -0.2683 -2.6047
   86SAPS  H18Y 8277   3.781  -0.068   9.172 -0.4422 -0.8824 -0.2775
   86SAPS  H18Z 8278   3.918  -0.104   9.053  1.8070  3.1154 -1.4869
   87SAPS     N 8279   4.704   1.936  10.911  0.5510  0.1444  0.3675
   87SAPS   HN1 8280   4.628   1.866  10.924 -1.6382  2.2335 -0.4568
   87SAPS   HN2 8281   4.709   1.986  11.002 -1.5937 -0.5311  0.9036
   87SAPS   HN3 8282   4.676   2.017  10.852 -1.6868  1.2091  2.6965
   87SAPS   C12 8283   4.831   1.872  10.873  0.0812 -0.3822 -0.2123
   87SAPS  H12A 8284   4.898   1.951  10.841  0.7735 -1.0706 -0.5037
   87SAPS   C13 8285   4.903   1.790  10.978  0.0281 -0.7919  0.3058
   87SAPS  O13A 8286   4.872   1.784  11.098 -0.2216  0.4607 -0.4241
   87SAPS  O13B 8287   5.007   1.737  10.935 -0.2128  0.7624  0.0691
   87SAPS   C11 8288   4.796   1.786  10.748 -0.2846 -0.6846 -0.1457
   87SAPS  H11A 8289   4.881   1.718  10.726 -0.1069 -1.1532  1.7575
   87SAPS  H11B 8290   4.784   1.860  10.666 -0.2195  0.1824  0.6018
   87SAPS     P 8291   4.558   1.717  10.665 -0.0380  0.0999 -0.1655
   87SAPS   O13 8292   4.478   1.590  10.657 -1.1861 -0.0343  0.4842
   87SAPS   O14 8293   4.478   1.838  10.695  0.4852 -0.1598  0.3389
   87SAPS   O12 8294   4.673   1.703  10.772 -0.0055 -0.8486  0.3116
   87SAPS   O11 8295   4.642   1.732  10.535 -0.3952  0.2090  0.0802
   87SAPS    C1 8296   4.696   1.615  10.464 -0.3344  0.4403  0.4026
   87SAPS    HA 8297   4.660   1.515  10.499 -1.9767  0.8263 -0.0863
   87SAPS    HB 8298   4.669   1.623  10.356 -1.8181 -0.0350  0.7168
   87SAPS    C2 8299   4.855   1.604  10.456  0.3754  0.6546  0.1696
   87SAPS    HS 8300   4.882   1.576  10.560 -2.1145 -0.2033  0.6636
   87SAPS   O21 8301   4.907   1.735  10.420  0.2887 -0.7902 -0.3256
   87SAPS   C21 8302   5.039   1.753  10.442 -0.3041  0.4140 -0.7102
   87SAPS   O22 8303   5.107   1.680  10.512 -0.5635  0.0549 -0.0217
   87SAPS   C22 8304   5.087   1.885  10.375  0.2711  0.6831  0.0208
   87SAPS   H2R 8305   5.027   1.955  10.437 -3.0117 -0.4524 -1.6841
   87SAPS   H2S 8306   5.196   1.886  10.401  1.0707 -1.2184 -2.8663
   87SAPS    C3 8307   4.901   1.504  10.348  0.5180 -0.3657 -0.3746
   87SAPS    HX 8308   4.851   1.405  10.362 -1.6147  0.7641  0.5415
   87SAPS    HY 8309   5.008   1.482  10.369  0.6806  0.0038 -0.7957
   87SAPS   O31 8310   4.873   1.550  10.212 -0.4890  0.0854  0.5675
   87SAPS   C31 8311   4.978   1.578  10.136 -0.2595  0.0218  0.1506
   87SAPS   O32 8312   5.099   1.558  10.153  0.4098 -0.2720 -0.4946
   87SAPS   C32 8313   4.928   1.654  10.013  0.2815  0.1634 -0.3717
   87SAPS   H2X 8314   5.014   1.671   9.945 -0.3123  1.2535 -0.8661
   87SAPS   H2Y 8315   4.908   1.754  10.056 -1.4306  0.0195 -0.7812
   87SAPS   C23 8316   5.061   1.902  10.227 -0.3972  0.0306  0.0835
   87SAPS   H3R 8317   4.955   1.899  10.194 -0.3509  0.3179 -0.1048
   87SAPS   H3S 8318   5.128   1.832  10.173 -1.1508 -0.9328  0.3869
   87SAPS   C24 8319   5.106   2.047  10.187  0.0329 -0.2861 -0.6949
   87SAPS   H4R 8320   5.212   2.055  10.218 -0.1631 -0.8226  0.1338
   87SAPS   H4S 8321   5.049   2.121  10.247  1.8924 -1.1309  2.2981
   87SAPS   C25 8322   5.092   2.080  10.041  0.2851  0.2939 -0.0801
   87SAPS   H5R 8323   5.010   2.150  10.020 -1.9070 -1.8886  0.6954
   87SAPS   C26 8324   5.171   2.038   9.940  0.1622 -0.4738 -0.2970
   87SAPS   H6R 8325   5.135   2.058   9.838 -1.3792  0.4806  0.3955
   87SAPS   C27 8326   5.285   1.945   9.947 -0.5932  0.1023  0.2275
   87SAPS   H7R 8327   5.318   1.924  10.051 -1.5016 -1.9681  0.1493
   87SAPS   H7S 8328   5.369   1.996   9.895 -1.8618  2.7285  0.6006
   87SAPS   C28 8329   5.261   1.809   9.883  0.4862 -0.2366 -0.0614
   87SAPS   H8R 8330   5.243   1.726   9.953 -0.8066  0.5034  0.5128
   87SAPS   C29 8331   5.250   1.781   9.751  0.0800  0.0713 -0.2327
   87SAPS   H9R 8332   5.217   1.677   9.732 -1.4166  0.5852 -0.6010
   87SAPS  C210 8333   5.263   1.883   9.638 -0.5311  0.3063  0.7381
   87SAPS  H10R 8334   5.290   1.983   9.677  0.5163  0.9623 -1.4641
   87SAPS  H10S 8335   5.168   1.898   9.583 -1.4789  0.7917  2.4633
   87SAPS  C211 8336   5.372   1.844   9.538  0.6209  0.0819  0.6309
   87SAPS  H11R 8337   5.460   1.792   9.578  2.1175  1.0991 -1.1558
   87SAPS  C212 8338   5.355   1.856   9.406  0.0839 -0.1823  0.2805
   87SAPS  H12R 8339   5.432   1.827   9.333  0.6026 -1.1073  1.1633
   87SAPS  C213 8340   5.248   1.930   9.336 -1.1179 -0.7133  0.5717
   87SAPS  H13R 8341   5.294   1.992   9.257 -1.1709  1.1404  1.9421
   87SAPS  H13S 8342   5.205   2.007   9.403  1.0999  1.7677 -0.6598
   87SAPS  C214 8343   5.135   1.849   9.274 -0.6083 -0.4697  0.2377
   87SAPS  H14R 8344   5.048   1.834   9.341  0.2663 -0.3403  1.4292
   87SAPS  C215 8345   5.129   1.792   9.148 -0.5004  0.5488  0.0742
   87SAPS  H15R 8346   5.039   1.740   9.113  0.5093  0.3909 -2.4894
   87SAPS  C216 8347   5.238   1.792   9.046 -0.3997 -0.4128 -0.1336
   87SAPS  H16R 8348   5.304   1.704   9.061  0.9219  0.3025 -1.4126
   87SAPS  H16S 8349   5.305   1.879   9.061  0.2716 -1.0056  0.3598
   87SAPS  C217 8350   5.180   1.782   8.901 -0.5341  0.0681 -0.4872
   87SAPS  H17R 8351   5.116   1.873   8.893 -0.6294  0.1029  0.5298
   87SAPS  H17S 8352   5.104   1.702   8.885 -2.5398  1.9139 -0.7693
   87SAPS  C218 8353   5.273   1.782   8.782  0.5175  0.0634  0.2670
   87SAPS  H18R 8354   5.322   1.880   8.766 -1.7709  0.8427 -3.2989
   87SAPS  H18S 8355   5.226   1.758   8.684  1.0943 -3.1533  0.6668
   87SAPS  C219 8356   5.378   1.673   8.793 -0.3403 -0.3996  0.1233
   87SAPS  H19R 8357   5.454   1.674   8.875  1.9966 -2.0531 -1.8947
   87SAPS  H19S 8358   5.442   1.690   8.704  0.0598 -1.9282  0.0981
   87SAPS  C220 8359   5.334   1.525   8.785  0.2531  0.3929 -0.2331
   87SAPS  H20R 8360   5.246   1.508   8.851 -0.4495 -0.4531 -1.3523
   87SAPS  H20S 8361   5.416   1.469   8.837  2.2688  0.7595 -2.7912
   87SAPS  H20T 8362   5.311   1.492   8.682 -1.4892  1.6546 -0.2847
   87SAPS   C33 8363   4.806   1.599   9.939  0.2750 -0.8091  0.7843
   87SAPS   H3X 8364   4.740   1.675   9.893 -0.4710 -0.3064  2.6058
   87SAPS   H3Y 8365   4.729   1.562  10.010 -1.9402 -0.7510 -1.4765
   87SAPS   C34 8366   4.844   1.492   9.831  0.1385 -0.7364 -0.5124
   87SAPS   H4X 8367   4.837   1.396   9.886  3.2774 -1.8734 -1.8100
   87SAPS   H4Y 8368   4.949   1.519   9.804  0.0090  0.6991  0.3267
   87SAPS   C35 8369   4.748   1.489   9.709  0.0075 -0.9816 -0.1788
   87SAPS   H5X 8370   4.641   1.498   9.737  0.4433  0.0695  1.2626
   87SAPS   H5Y 8371   4.754   1.394   9.651 -2.4729  0.7688 -3.6512
   87SAPS   C36 8372   4.789   1.601   9.602  1.0446 -0.4805 -0.5303
   87SAPS   H6X 8373   4.900   1.590   9.597  0.9443 -1.5942 -0.5503
   87SAPS   H6Y 8374   4.773   1.707   9.630 -2.1510 -0.9749 -0.1527
   87SAPS   C37 8375   4.721   1.578   9.463 -0.5417  0.3801  0.1424
   87SAPS   H7X 8376   4.614   1.600   9.483 -1.1104 -1.2632 -0.9525
   87SAPS   H7Y 8377   4.723   1.478   9.417  2.8685  0.6126 -0.5025
   87SAPS   C38 8378   4.764   1.684   9.357  0.4379  0.1433 -0.5231
   87SAPS   H8X 8379   4.871   1.677   9.330  0.9957  3.7450  0.1256
   87SAPS   H8Y 8380   4.754   1.785   9.404 -1.8483  1.4356 -3.4923
   87SAPS   C39 8381   4.665   1.683   9.238  0.5323 -0.0919 -0.2342
   87SAPS   H9X 8382   4.564   1.705   9.279  0.0400 -1.3268 -0.7389
   87SAPS   H9Y 8383   4.659   1.579   9.198  0.7716 -0.3241  0.3319
   87SAPS  C310 8384   4.713   1.771   9.119 -0.1289  0.0654 -0.0986
   87SAPS  H10X 8385   4.822   1.755   9.106  0.0469  0.4465  0.7840
   87SAPS  H10Y 8386   4.690   1.876   9.145  1.0301 -0.3484  3.1895
   87SAPS  C311 8387   4.636   1.730   8.991 -0.1524  0.0557  0.0955
   87SAPS  H11X 8388   4.529   1.754   9.007 -0.0598  1.4868 -1.1605
   87SAPS  H11Y 8389   4.640   1.620   8.981  0.2594 -0.1830  2.3881
   87SAPS  C312 8390   4.691   1.803   8.874 -0.0633 -0.0781 -0.4008
   87SAPS  H12X 8391   4.762   1.742   8.814 -0.0425 -0.9313  0.4594
   87SAPS  H12Y 8392   4.749   1.892   8.905 -2.0824  1.1425  0.0525
   87SAPS  C313 8393   4.572   1.845   8.785  0.2986  0.8457 -0.0778
   87SAPS  H13X 8394   4.488   1.897   8.836 -0.3785  0.1355 -0.4661
   87SAPS  H13Y 8395   4.519   1.756   8.746 -2.5590  2.2077  0.4495
   87SAPS  C314 8396   4.611   1.948   8.673 -1.5504 -1.3582 -0.1197
   87SAPS  H14X 8397   4.682   1.902   8.602  0.4016  1.7992 -0.3822
   87SAPS  H14Y 8398   4.667   2.036   8.712  0.4701 -2.7408  0.2721
   87SAPS  C315 8399   4.477   2.005   8.605 -0.1867  0.5926 -0.2568
   87SAPS  H15X 8400   4.416   2.062   8.678  0.5567  1.1270 -0.0405
   87SAPS  H15Y 8401   4.419   1.915   8.576  1.8010 -0.6325 -0.6299
   87SAPS  C316 8402   4.512   2.101   8.490  0.4803 -0.3844  0.4585
   87SAPS  H16X 8403   4.583   2.054   8.419 -0.9520 -0.3824 -1.0412
   87SAPS  H16Y 8404   4.566   2.185   8.539  1.7823 -1.0258  0.1634
   87SAPS  C317 8405   4.398   2.168   8.414  0.0191 -0.4131  0.0154
   87SAPS  H17X 8406   4.370   2.260   8.470 -1.4798 -0.3801 -0.7217
   87SAPS  H17Y 8407   4.311   2.099   8.421 -1.1728  0.9012 -1.0837
   87SAPS  C318 8408   4.429   2.219   8.276  0.2331 -0.5369 -0.1019
   87SAPS  H18X 8409   4.419   2.139   8.200 -0.3672  0.1561 -0.7694
   87SAPS  H18Y 8410   4.534   2.250   8.256 -0.1465  0.9601  0.0803
   87SAPS  H18Z 8411   4.360   2.301   8.246  0.1350 -0.2761  0.7956
   88SAPS     N 8412   0.158   0.590  10.866 -1.0653  0.0152 -0.2389
   88SAPS   HN1 8413   0.120   0.686  10.877  0.5802  0.5771  0.8309
   88SAPS   HN2 8414   0.198   0.584  10.770 -0.4316 -0.6397  0.0623
   88SAPS   HN3 8415   0.088   0.515  10.883  0.1950 -1.0609  0.3771
   88SAPS   C12 8416   0.256   0.567  10.976  0.0624  0.2298 -0.4517
   88SAPS  H12A 8417   0.342   0.631  10.969 -0.4490  0.8287 -1.5457
   88SAPS   C13 8418   0.198   0.583  11.118  0.1516  0.1122  0.0907
   88SAPS  O13A 8419   0.073   0.600  11.138 -0.2968  0.2192 -0.2007
   88SAPS  O13B 8420   0.275   0.576  11.219 -0.0482 -0.4784  0.0479
   88SAPS   C11 8421   0.319   0.426  10.954  0.1893  0.4312  0.6489
   88SAPS  H11A 8422   0.244   0.347  10.975  1.5004 -0.7970  0.9156
   88SAPS  H11B 8423   0.401   0.408  11.027 -0.4478 -1.6233  0.9383
   88SAPS     P 8424   0.501   0.448  10.777  0.0353 -0.3167  0.0501
   88SAPS   O13 8425   0.505   0.599  10.782  0.6770 -0.6299 -0.1046
   88SAPS   O14 8426   0.599   0.372  10.859 -0.4630 -0.3900  0.3339
   88SAPS   O12 8427   0.360   0.400  10.817 -0.0257 -0.2389  0.0642
   88SAPS   O11 8428   0.513   0.408  10.628  0.1422 -0.1334 -0.4142
   88SAPS    C1 8429   0.413   0.447  10.539 -0.2974 -0.0126  0.1972
   88SAPS    HA 8430   0.363   0.359  10.494 -0.1794  0.0182  0.0057
   88SAPS    HB 8431   0.335   0.515  10.581  0.0318 -0.9190  2.3856
   88SAPS    C2 8432   0.487   0.513  10.413 -0.1386 -0.3009 -0.1020
   88SAPS    HS 8433   0.560   0.592  10.441 -0.0877  0.3443 -1.9046
   88SAPS   O21 8434   0.383   0.558  10.326 -0.5775 -0.2759 -0.3384
   88SAPS   C21 8435   0.415   0.661  10.245 -0.2693 -0.2611  0.3023
   88SAPS   O22 8436   0.521   0.722  10.252 -0.0373  0.3188 -0.1725
   88SAPS   C22 8437   0.316   0.684  10.126 -0.1599 -0.3560 -0.6793
   88SAPS   H2R 8438   0.216   0.701  10.171  0.5201 -0.3979  0.8941
   88SAPS   H2S 8439   0.352   0.776  10.074 -0.5803  0.9996  1.3035
   88SAPS    C3 8440   0.558   0.393  10.336 -0.6068 -0.5903  0.4102
   88SAPS    HX 8441   0.475   0.322  10.316 -0.0837 -1.0334 -0.2704
   88SAPS    HY 8442   0.629   0.349  10.410 -0.2051  0.3451  0.6030
   88SAPS   O31 8443   0.624   0.425  10.208  0.3911 -0.1544  0.2611
   88SAPS   C31 8444   0.736   0.493  10.214 -1.8991  0.0703 -0.0547
   88SAPS   O32 8445   0.782   0.546  10.316 -0.4428  0.0337  0.1186
   88SAPS   C32 8446   0.801   0.512  10.073  0.7513 -0.0588  0.2514
   88SAPS   H2X 8447   0.833   0.408  10.053  3.4164  0.6084  0.6822
   88SAPS   H2Y 8448   0.892   0.575  10.072  1.5997 -1.2062 -2.1379
   88SAPS   C23 8449   0.298   0.565  10.034  0.0374  0.2515  0.0287
   88SAPS   H3R 8450   0.257   0.480  10.092 -3.5278  2.3239  0.8147
   88SAPS   H3S 8451   0.398   0.538   9.992  0.6479  0.0582  1.5149
   88SAPS   C24 8452   0.195   0.591   9.930 -0.5324  0.0241 -0.1690
   88SAPS   H4R 8453   0.096   0.596   9.980 -0.4701 -2.0326  0.2592
   88SAPS   H4S 8454   0.179   0.489   9.888  1.1507 -0.5373  0.4357
   88SAPS   C25 8455   0.219   0.705   9.828 -0.1069  0.8560 -0.8503
   88SAPS   H5R 8456   0.234   0.808   9.863  1.3837 -0.1289  1.6636
   88SAPS   C26 8457   0.222   0.689   9.691  0.4742  0.0716 -0.6594
   88SAPS   H6R 8458   0.233   0.776   9.624 -1.2965  1.2979  0.5528
   88SAPS   C27 8459   0.176   0.561   9.626 -0.1161  0.7076 -0.4773
   88SAPS   H7R 8460   0.071   0.559   9.590  0.3368 -1.2396 -1.8290
   88SAPS   H7S 8461   0.179   0.474   9.696  2.7277  0.2347 -1.0539
   88SAPS   C28 8462   0.266   0.524   9.506  0.2248  0.0626 -0.3922
   88SAPS   H8R 8463   0.364   0.491   9.543 -0.3895 -0.6392  0.6696
   88SAPS   C29 8464   0.237   0.516   9.376 -0.4065 -0.5933  0.7509
   88SAPS   H9R 8465   0.314   0.475   9.309 -0.5855  1.9314 -1.1854
   88SAPS  C210 8466   0.108   0.530   9.307 -0.3010  0.3561 -0.6461
   88SAPS  H10R 8467   0.125   0.574   9.207 -0.0188 -0.0408 -0.7745
   88SAPS  H10S 8468   0.041   0.604   9.355 -2.3336 -1.0029 -1.2373
   88SAPS  C211 8469   0.024   0.410   9.303 -0.1689  0.0045 -0.3871
   88SAPS  H11R 8470  -0.027   0.400   9.400 -3.2455 -2.3197 -2.0776
   88SAPS  C212 8471   0.030   0.307   9.216 -0.6958  0.2000  0.3693
   88SAPS  H12R 8472  -0.028   0.217   9.242 -0.3630 -0.1708 -0.1602
   88SAPS  C213 8473   0.115   0.286   9.095 -1.0725 -0.2718  0.2250
   88SAPS  H13R 8474   0.193   0.209   9.114 -1.0365 -0.0461  1.0356
   88SAPS  H13S 8475   0.167   0.383   9.086  2.0661 -1.6316  2.1248
   88SAPS  C214 8476   0.043   0.260   8.964  0.6805  0.4992  0.0319
   88SAPS  H14R 8477  -0.055   0.307   8.950  0.5004 -0.1785 -1.1812
   88SAPS  C215 8478   0.075   0.185   8.860 -0.0512  0.3121 -0.0521
   88SAPS  H15R 8479   0.020   0.200   8.766 -0.3304 -0.5999 -0.0467
   88SAPS  C216 8480   0.195   0.099   8.845 -0.3702  0.0387 -0.9511
   88SAPS  H16R 8481   0.175  -0.006   8.817 -0.2301 -0.0076 -0.8794
   88SAPS  H16S 8482   0.242   0.098   8.945  0.3192 -1.0237 -1.2710
   88SAPS  C217 8483   0.310   0.147   8.757 -0.3702  0.1030  0.2365
   88SAPS  H17R 8484   0.289   0.109   8.654 -0.3131 -1.4468  0.7739
   88SAPS  H17S 8485   0.396   0.086   8.791 -1.2960 -1.9738 -0.8928
   88SAPS  C218 8486   0.343   0.294   8.752 -0.7735  0.8014 -0.2720
   88SAPS  H18R 8487   0.344   0.331   8.857 -0.9438  2.8815 -0.9673
   88SAPS  H18S 8488   0.270   0.347   8.689 -0.1721  2.8958  0.7130
   88SAPS  C219 8489   0.474   0.324   8.674  0.5084 -0.4289  0.0223
   88SAPS  H19R 8490   0.478   0.257   8.585 -0.5522 -1.3893  0.6835
   88SAPS  H19S 8491   0.561   0.317   8.743  0.4344  2.3635  0.5017
   88SAPS  C220 8492   0.484   0.466   8.606 -0.1491 -0.3262 -0.7191
   88SAPS  H20R 8493   0.586   0.488   8.569  2.2893  0.1905  5.2075
   88SAPS  H20S 8494   0.462   0.548   8.678  0.3223 -0.6357 -0.2166
   88SAPS  H20T 8495   0.398   0.472   8.536 -1.3214 -0.2388  0.6791
   88SAPS   C33 8496   0.710   0.563   9.957 -0.0975  0.4838  0.5478
   88SAPS   H3X 8497   0.681   0.667   9.985  0.3369  0.7703 -0.0451
   88SAPS   H3Y 8498   0.614   0.508   9.957  0.7336 -1.0136 -0.0106
   88SAPS   C34 8499   0.770   0.541   9.819  0.5650 -0.2059 -0.1655
   88SAPS   H4X 8500   0.810   0.437   9.820  0.1339 -0.3739 -0.1471
   88SAPS   H4Y 8501   0.862   0.602   9.809  0.1779  0.2725 -0.8905
   88SAPS   C35 8502   0.673   0.582   9.709  0.3048  0.1164 -0.2577
   88SAPS   H5X 8503   0.644   0.688   9.725 -2.8880 -0.7023  0.0782
   88SAPS   H5Y 8504   0.580   0.524   9.726  1.8739 -2.3328  0.5456
   88SAPS   C36 8505   0.724   0.564   9.562  0.2445 -0.5067  0.9388
   88SAPS   H6X 8506   0.740   0.458   9.533 -1.1006 -0.6493  0.6355
   88SAPS   H6Y 8507   0.824   0.611   9.550  0.1567 -0.4342  0.5051
   88SAPS   C37 8508   0.642   0.642   9.458 -1.0797  0.2528 -0.0100
   88SAPS   H7X 8509   0.647   0.750   9.484 -0.2794 -0.0490  1.2026
   88SAPS   H7Y 8510   0.535   0.614   9.472 -0.9015 -1.9352 -2.3657
   88SAPS   C38 8511   0.689   0.618   9.315  0.3252 -0.4914 -0.0713
   88SAPS   H8X 8512   0.798   0.641   9.311  0.3627  0.1206  2.6376
   88SAPS   H8Y 8513   0.639   0.695   9.252 -1.3009 -1.3226  0.1717
   88SAPS   C39 8514   0.649   0.484   9.258  0.1791 -0.0370 -0.0847
   88SAPS   H9X 8515   0.545   0.452   9.283 -0.6588  1.9558 -0.8018
   88SAPS   H9Y 8516   0.708   0.405   9.309 -0.9602 -0.6958  0.2526
   88SAPS  C310 8517   0.657   0.470   9.107 -0.8145  0.2630 -0.1208
   88SAPS  H10X 8518   0.705   0.370   9.099  0.7723  0.5152  3.8793
   88SAPS  H10Y 8519   0.724   0.539   9.050  0.6372  0.5594  1.8414
   88SAPS  C311 8520   0.522   0.470   9.033  0.2425 -0.4914  0.0133
   88SAPS  H11X 8521   0.459   0.386   9.071 -0.8294  0.0222 -0.5771
   88SAPS  H11Y 8522   0.541   0.445   8.926  0.0366  1.7876 -0.5995
   88SAPS  C312 8523   0.435   0.599   9.069  0.3531  0.3249  0.5342
   88SAPS  H12X 8524   0.425   0.600   9.180 -1.3338 -0.6216  0.4202
   88SAPS  H12Y 8525   0.334   0.593   9.024  1.7898 -0.0354 -2.9354
   88SAPS  C313 8526   0.491   0.739   9.018 -0.6346 -0.2003  0.8643
   88SAPS  H13X 8527   0.591   0.763   9.059 -0.7623  3.2259 -0.4632
   88SAPS  H13Y 8528   0.424   0.818   9.058 -0.4936  1.6966 -2.3094
   88SAPS  C314 8529   0.500   0.769   8.861 -0.1384 -0.0035 -0.2720
   88SAPS  H14X 8530   0.536   0.672   8.822 -0.5634 -0.8252  1.2908
   88SAPS  H14Y 8531   0.586   0.839   8.850  0.0418  0.3346  2.5213
   88SAPS  C315 8532   0.371   0.827   8.793 -0.2391 -0.5742  0.0602
   88SAPS  H15X 8533   0.334   0.899   8.869 -0.4680 -0.6386  0.0100
   88SAPS  H15Y 8534   0.298   0.743   8.785 -1.2283  0.4144 -2.3015
   88SAPS  C316 8535   0.391   0.874   8.649 -0.2246 -0.0171  0.5242
   88SAPS  H16X 8536   0.475   0.817   8.603  1.3371  2.2625  0.3381
   88SAPS  H16Y 8537   0.416   0.981   8.632 -1.9081  0.3868  0.4605
   88SAPS  C317 8538   0.266   0.853   8.567  0.5703 -0.5932  0.2490
   88SAPS  H17X 8539   0.200   0.939   8.590  0.6015 -0.8830  1.4971
   88SAPS  H17Y 8540   0.205   0.764   8.592  0.8176 -1.2430 -1.3138
   88SAPS  C318 8541   0.290   0.845   8.415 -0.6752  0.3163 -0.6926
   88SAPS  H18X 8542   0.343   0.756   8.376  0.2443  0.5846 -0.0870
   88SAPS  H18Y 8543   0.345   0.932   8.375  0.8215 -0.3553 -0.1776
   88SAPS  H18Z 8544   0.188   0.849   8.370 -1.4877  0.2489  1.0356
   89SAPS     N 8545   1.040   3.545  10.678  0.3190  0.6551  0.6449
   89SAPS   HN1 8546   1.127   3.491  10.662  0.7127  0.6062  2.6159
   89SAPS   HN2 8547   0.995   3.560  10.585  0.9087  0.6040  0.3496
   89SAPS   HN3 8548   1.048   3.634  10.732 -0.8275 -0.9059  3.6558
   89SAPS   C12 8549   0.953   3.449  10.752  0.6371  0.3934 -0.1270
   89SAPS  H12A 8550   0.926   3.384  10.671  0.9715  2.0638 -1.6379
   89SAPS   C13 8551   1.021   3.363  10.868 -0.0373  0.3381  0.4505
   89SAPS  O13A 8552   1.143   3.380  10.898  0.3369 -0.4415  0.0123
   89SAPS  O13B 8553   0.945   3.290  10.934 -0.3531 -0.4556  0.4125
   89SAPS   C11 8554   0.822   3.528  10.805 -0.3916 -0.2294  1.0573
   89SAPS  H11A 8555   0.850   3.603  10.882  0.4599 -0.7138  1.2386
   89SAPS  H11B 8556   0.762   3.450  10.856  0.4321  0.3854  3.0819
   89SAPS     P 8557   0.606   3.639  10.695 -0.4781  0.3981  0.0223
   89SAPS   O13 8558   0.522   3.553  10.608 -0.1037  0.0595  0.3173
   89SAPS   O14 8559   0.560   3.654  10.837 -0.6670 -0.3573  0.7300
   89SAPS   O12 8560   0.753   3.590  10.697 -0.3472 -0.6983 -0.0938
   89SAPS   O11 8561   0.625   3.779  10.633  0.1571  0.0752 -0.5412
   89SAPS    C1 8562   0.741   3.849  10.590  0.1878  0.1892 -0.0542
   89SAPS    HA 8563   0.752   3.952  10.631  1.5263  0.3556 -0.7526
   89SAPS    HB 8564   0.833   3.798  10.626  0.2097  0.9193  0.9450
   89SAPS    C2 8565   0.745   3.873  10.434  0.4862 -0.0513 -0.2529
   89SAPS    HS 8566   0.666   3.948  10.411  1.5291  1.3702  0.7075
   89SAPS   O21 8567   0.715   3.743  10.371  0.1648  0.0622 -0.4596
   89SAPS   C21 8568   0.809   3.651  10.377  0.3074  0.5411 -0.5039
   89SAPS   O22 8569   0.910   3.649  10.445 -0.3574 -0.0045  0.2056
   89SAPS   C22 8570   0.753   3.543  10.289 -0.3300 -0.2678 -0.6124
   89SAPS   H2R 8571   0.716   3.455  10.347  0.5187 -0.9205 -1.0310
   89SAPS   H2S 8572   0.670   3.585  10.229  0.2596  0.6861 -0.7877
   89SAPS    C3 8573   0.882   3.936  10.384  0.5196 -0.1901 -0.1428
   89SAPS    HX 8574   0.967   3.894  10.442 -0.3540 -1.5304  0.2218
   89SAPS    HY 8575   0.892   4.042  10.415 -2.5392  1.1544 -3.0729
   89SAPS   O31 8576   0.903   3.914  10.241 -0.4178  0.2427 -0.7514
   89SAPS   C31 8577   0.837   3.997  10.161 -0.7265  1.6167 -0.0666
   89SAPS   O32 8578   0.762   4.080  10.212  0.0093  0.2343 -0.1637
   89SAPS   C32 8579   0.874   3.977  10.016  0.7024  0.5374  0.0655
   89SAPS   H2X 8580   0.802   3.902   9.976  0.3700  0.6336  0.4758
   89SAPS   H2Y 8581   0.978   3.940  10.020 -0.0415 -1.5661  1.3698
   89SAPS   C23 8582   0.857   3.481  10.190  0.5252  0.4872 -0.2708
   89SAPS   H3R 8583   0.820   3.379  10.164  0.3377  0.5890 -0.4036
   89SAPS   H3S 8584   0.950   3.465  10.250  0.0585 -2.3883 -0.1772
   89SAPS   C24 8585   0.889   3.559  10.061  0.5680  0.4602 -0.4921
   89SAPS   H4R 8586   0.960   3.492  10.009  2.0399  0.6903  1.1054
   89SAPS   H4S 8587   0.937   3.657  10.084  1.6426  0.1218 -1.2215
   89SAPS   C25 8588   0.762   3.583   9.983  0.0614  0.0687  0.1202
   89SAPS   H5R 8589   0.677   3.527  10.025  0.1009 -0.4968 -0.5389
   89SAPS   C26 8590   0.756   3.623   9.861 -0.0890  0.4297 -1.1023
   89SAPS   H6R 8591   0.663   3.626   9.803 -2.7552  0.9454  2.8364
   89SAPS   C27 8592   0.880   3.660   9.772 -0.0340 -0.0117 -0.1385
   89SAPS   H7R 8593   0.954   3.713   9.836 -1.3397 -0.6163  1.9755
   89SAPS   H7S 8594   0.863   3.746   9.704  0.4738  2.1382  2.2689
   89SAPS   C28 8595   0.946   3.540   9.722 -0.0908  0.8386 -0.1628
   89SAPS   H8R 8596   0.983   3.469   9.797 -1.9409  1.5489  1.5305
   89SAPS   C29 8597   0.962   3.522   9.591  0.3033 -0.0723  0.4154
   89SAPS   H9R 8598   1.014   3.432   9.554  2.3385  0.6346  1.4090
   89SAPS  C210 8599   0.912   3.615   9.484 -0.4120 -0.5685 -0.3394
   89SAPS  H10R 8600   0.874   3.716   9.512 -0.4300 -0.2875 -1.3418
   89SAPS  H10S 8601   0.820   3.568   9.444 -2.5098  2.0368  1.1218
   89SAPS  C211 8602   1.002   3.640   9.368 -0.1019 -0.4421  1.1074
   89SAPS  H11R 8603   1.072   3.724   9.378  0.2047 -0.8001  2.1182
   89SAPS  C212 8604   1.000   3.569   9.245  1.3479  0.4337  0.2222
   89SAPS  H12R 8605   1.079   3.590   9.170  1.0113 -2.7198 -1.1591
   89SAPS  C213 8606   0.923   3.444   9.198  0.3612 -0.3628 -0.0522
   89SAPS  H13R 8607   0.854   3.468   9.114  0.1815  1.3861  0.5492
   89SAPS  H13S 8608   0.855   3.404   9.275 -0.9069 -0.5515 -1.2360
   89SAPS  C214 8609   1.012   3.328   9.163  0.4307 -0.1800  0.4613
   89SAPS  H14R 8610   1.091   3.309   9.237  2.2969  3.3903 -0.4139
   89SAPS  C215 8611   0.997   3.240   9.054 -0.3825  0.1626 -0.3548
   89SAPS  H15R 8612   1.072   3.161   9.038 -1.1821 -0.8519  0.7486
   89SAPS  C216 8613   0.897   3.252   8.940 -0.3130  0.6661 -0.5869
   89SAPS  H16R 8614   0.804   3.310   8.960 -0.3928  0.2489  0.3061
   89SAPS  H16S 8615   0.856   3.150   8.921 -3.2651  2.1213 -2.8623
   89SAPS  C217 8616   0.967   3.287   8.811 -0.1783  0.0419  0.2854
   89SAPS  H17R 8617   0.900   3.286   8.723 -1.3772 -0.9890  1.1717
   89SAPS  H17S 8618   1.045   3.210   8.794  1.5583  2.0039 -1.0767
   89SAPS  C218 8619   1.039   3.423   8.811  0.3135  0.0135  0.0177
   89SAPS  H18R 8620   1.103   3.430   8.902  0.0408 -0.1106  0.2211
   89SAPS  H18S 8621   0.957   3.498   8.823  1.5020  1.3031  0.3121
   89SAPS  C219 8622   1.133   3.450   8.684 -0.2256  0.3285 -0.0920
   89SAPS  H19R 8623   1.070   3.439   8.594  0.9386  0.4600 -0.9379
   89SAPS  H19S 8624   1.211   3.371   8.693 -1.5128 -0.9941 -0.2275
   89SAPS  C220 8625   1.194   3.587   8.687 -0.4066  0.1327 -0.2048
   89SAPS  H20R 8626   1.261   3.593   8.598  1.4896 -1.3712  1.0660
   89SAPS  H20S 8627   1.251   3.618   8.776 -0.2180  0.4597 -0.4358
   89SAPS  H20T 8628   1.106   3.653   8.668 -1.3157 -1.4848 -1.9388
   89SAPS   C33 8629   0.861   4.108   9.931 -0.2739  0.2693  0.3708
   89SAPS   H3X 8630   0.956   4.159   9.905 -0.5071  1.2003  1.2692
   89SAPS   H3Y 8631   0.797   4.188   9.973 -1.2077 -0.4699  0.3941
   89SAPS   C34 8632   0.807   4.066   9.789  0.5931 -0.1481  0.4136
   89SAPS   H4X 8633   0.698   4.041   9.786  0.6920 -0.4921 -1.0893
   89SAPS   H4Y 8634   0.873   3.983   9.756  1.3048  1.4474 -2.5496
   89SAPS   C35 8635   0.818   4.181   9.678  0.0564 -0.2068  0.4186
   89SAPS   H5X 8636   0.923   4.217   9.680 -0.2600  0.9996 -1.7186
   89SAPS   H5Y 8637   0.752   4.264   9.711  0.8262  0.7580 -0.4038
   89SAPS   C36 8638   0.770   4.146   9.539  0.2938 -0.0770 -0.1230
   89SAPS   H6X 8639   0.662   4.122   9.526 -0.3856  0.6329  3.2270
   89SAPS   H6Y 8640   0.830   4.056   9.513 -0.5090  0.0267 -2.5903
   89SAPS   C37 8641   0.802   4.263   9.439  0.0038 -0.3067  0.1517
   89SAPS   H7X 8642   0.909   4.285   9.456 -0.2094 -0.7163  2.3815
   89SAPS   H7Y 8643   0.729   4.343   9.466 -0.3333 -0.8203  0.7757
   89SAPS   C38 8644   0.758   4.219   9.305 -0.1903  1.2500  0.3904
   89SAPS   H8X 8645   0.660   4.167   9.303 -0.2451  1.3127  1.3100
   89SAPS   H8Y 8646   0.826   4.137   9.273 -1.8405 -0.1702  0.3421
   89SAPS   C39 8647   0.768   4.329   9.189 -0.0683  0.0539  0.5196
   89SAPS   H9X 8648   0.704   4.408   9.235 -2.3426 -0.8989 -0.8536
   89SAPS   H9Y 8649   0.731   4.295   9.090  0.0680  2.4940 -0.4586
   89SAPS  C310 8650   0.908   4.398   9.162 -0.1707  0.5876 -0.0720
   89SAPS  H10X 8651   0.935   4.377   9.056  1.9270  1.8241  0.1697
   89SAPS  H10Y 8652   0.988   4.352   9.224  0.6152 -0.1766 -1.5793
   89SAPS  C311 8653   0.905   4.547   9.195  0.2429  0.0936 -0.9189
   89SAPS  H11X 8654   0.886   4.569   9.302  3.3150 -1.3493  0.0308
   89SAPS  H11Y 8655   0.821   4.592   9.137 -0.5802 -1.2013 -0.7639
   89SAPS  C312 8656   1.039   4.612   9.168  0.2702  0.0052 -0.1435
   89SAPS  H12X 8657   1.107   4.530   9.199 -1.3894 -1.7654 -0.9420
   89SAPS  H12Y 8658   1.066   4.702   9.226 -0.6782 -0.4381  1.0323
   89SAPS  C313 8659   1.075   4.642   9.019 -0.0960 -0.0351 -0.3072
   89SAPS  H13X 8660   1.088   4.543   8.971 -3.0547 -1.0121  0.6460
   89SAPS  H13Y 8661   1.174   4.688   9.039 -0.0832  0.0290 -0.5094
   89SAPS  C314 8662   0.974   4.728   8.940 -0.6367  0.0676 -0.2188
   89SAPS  H14X 8663   1.000   4.836   8.945  0.8956 -0.3195  0.6877
   89SAPS  H14Y 8664   0.873   4.732   8.986 -0.5752  3.0530 -0.1484
   89SAPS  C315 8665   0.957   4.677   8.798  0.1815 -1.0219 -0.4956
   89SAPS  H15X 8666   1.059   4.669   8.754  0.9473 -0.6846  1.1474
   89SAPS  H15Y 8667   0.906   4.760   8.745  0.2259  0.6802  1.9674
   89SAPS  C316 8668   0.877   4.544   8.773  0.5273  0.0926 -0.2226
   89SAPS  H16X 8669   0.785   4.561   8.832 -0.4152  2.0713 -2.1422
   89SAPS  H16Y 8670   0.926   4.463   8.832 -1.6023 -1.3599 -0.3276
   89SAPS  C317 8671   0.854   4.503   8.630  0.4597 -0.3031 -0.3235
   89SAPS  H17X 8672   0.790   4.582   8.584  0.8752  0.6298  0.6488
   89SAPS  H17Y 8673   0.795   4.408   8.634  0.4630 -0.3158  3.8270
   89SAPS  C318 8674   0.979   4.500   8.541  0.2848  0.2221 -0.4420
   89SAPS  H18X 8675   1.040   4.412   8.569 -1.6084 -1.2663 -0.8246
   89SAPS  H18Y 8676   1.041   4.592   8.554 -0.7926  0.7528  1.2603
   89SAPS  H18Z 8677   0.950   4.489   8.435 -1.9116  1.1656  0.0218
   90SAPS     N 8678   3.025   1.669  10.881  1.0213 -0.1095 -0.1276
   90SAPS   HN1 8679   3.095   1.599  10.911 -0.8141 -1.3860  1.4345
   90SAPS   HN2 8680   3.057   1.715  10.794 -0.6544 -0.1863 -0.8130
   90SAPS   HN3 8681   3.013   1.743  10.954 -0.6987  0.0934 -0.5559
   90SAPS   C12 8682   2.894   1.601  10.846  0.0215  0.3978 -0.4255
   90SAPS  H12A 8683   2.917   1.539  10.761 -0.5689 -0.3847 -0.0303
   90SAPS   C13 8684   2.841   1.509  10.963  0.2846  1.0357  0.1236
   90SAPS  O13A 8685   2.903   1.497  11.072  0.0148  0.0940  0.2298
   90SAPS  O13B 8686   2.724   1.462  10.956  0.0225 -0.2571  0.9441
   90SAPS   C11 8687   2.781   1.706  10.813  0.2313  0.1603 -0.6620
   90SAPS  H11A 8688   2.753   1.765  10.903 -0.5044 -1.7764  0.4320
   90SAPS  H11B 8689   2.693   1.645  10.784  0.6989 -0.5795 -0.5585
   90SAPS     P 8690   2.736   1.835  10.595 -0.3005  0.0305 -0.5128
   90SAPS   O13 8691   2.601   1.880  10.633 -0.8284  0.1375 -0.8339
   90SAPS   O14 8692   2.809   1.943  10.521 -1.0969  0.3074  0.0704
   90SAPS   O12 8693   2.827   1.799  10.719  0.7723  0.6431 -0.2346
   90SAPS   O11 8694   2.732   1.700  10.515  0.4839 -0.6970 -0.3370
   90SAPS    C1 8695   2.854   1.642  10.462  0.1102  0.2676  0.3564
   90SAPS    HA 8696   2.944   1.684  10.512  0.1139  0.9559 -0.2190
   90SAPS    HB 8697   2.849   1.539  10.501 -1.0791  0.2984  0.3432
   90SAPS    C2 8698   2.856   1.647  10.307  1.0624 -0.2513  0.3315
   90SAPS    HS 8699   2.855   1.751  10.268 -1.1829  0.0349  0.9994
   90SAPS   O21 8700   2.737   1.579  10.248 -0.3094  0.3303  0.1279
   90SAPS   C21 8701   2.627   1.652  10.233 -0.5427  0.2791 -0.5778
   90SAPS   O22 8702   2.617   1.773  10.259 -0.1937  0.5129  0.0539
   90SAPS   C22 8703   2.508   1.566  10.194 -0.1363  0.0577  0.3705
   90SAPS   H2R 8704   2.548   1.464  10.175  0.8625  0.5632 -0.3387
   90SAPS   H2S 8705   2.435   1.548  10.276 -0.7684 -3.0970 -0.7344
   90SAPS    C3 8706   2.980   1.577  10.251 -0.0863 -0.9164 -0.5832
   90SAPS    HX 8707   2.990   1.482  10.307 -2.4492 -0.5175  0.6250
   90SAPS    HY 8708   3.075   1.627  10.284 -1.0411  0.1790  0.6257
   90SAPS   O31 8709   2.974   1.557  10.110  0.1037  0.5151  0.3247
   90SAPS   C31 8710   3.004   1.671  10.041 -0.1846 -0.8809 -0.0424
   90SAPS   O32 8711   3.036   1.776  10.094 -0.0539 -0.1449 -0.3883
   90SAPS   C32 8712   2.981   1.646   9.891  0.8670 -0.2577 -0.4922
   90SAPS   H2X 8713   2.924   1.550   9.887  1.9118 -1.0065  1.2188
   90SAPS   H2Y 8714   3.080   1.639   9.841  0.6317 -1.9320 -0.7825
   90SAPS   C23 8715   2.436   1.612  10.063 -0.1258  0.3464  0.4521
   90SAPS   H3R 8716   2.363   1.693  10.087 -2.3782 -1.0201 -1.3711
   90SAPS   H3S 8717   2.371   1.532  10.021 -2.1312  1.2376  1.6899
   90SAPS   C24 8718   2.528   1.656   9.947 -0.5342  0.4273 -0.1673
   90SAPS   H4R 8719   2.582   1.749   9.974  1.2423  0.0577 -2.1803
   90SAPS   H4S 8720   2.448   1.676   9.873 -0.8866 -1.3719 -0.3282
   90SAPS   C25 8721   2.632   1.551   9.888 -0.1736 -0.2801 -0.2915
   90SAPS   H5R 8722   2.695   1.496   9.960  0.5312  0.0524 -0.6487
   90SAPS   C26 8723   2.640   1.512   9.761  0.7266  0.4609 -0.2691
   90SAPS   H6R 8724   2.719   1.441   9.732 -0.1591 -0.4997 -0.3657
   90SAPS   C27 8725   2.535   1.551   9.654 -0.5996  0.0468 -0.1855
   90SAPS   H7R 8726   2.432   1.525   9.688 -1.8863  0.2470 -3.5199
   90SAPS   H7S 8727   2.540   1.495   9.558  1.1252  0.2598 -0.2562
   90SAPS   C28 8728   2.540   1.696   9.617 -0.5468 -0.0946 -0.4958
   90SAPS   H8R 8729   2.557   1.762   9.704  0.2785 -2.8144  1.5530
   90SAPS   C29 8730   2.548   1.743   9.490  0.0675  0.6345 -0.2078
   90SAPS   H9R 8731   2.563   1.852   9.480  1.6737  0.5784  1.1817
   90SAPS  C210 8732   2.554   1.668   9.355 -0.6510 -0.0273 -0.2599
   90SAPS  H10R 8733   2.456   1.626   9.324 -0.6499  0.8847 -1.5724
   90SAPS  H10S 8734   2.622   1.581   9.360  1.4279  1.5157 -0.5501
   90SAPS  C211 8735   2.604   1.749   9.245  0.0546  0.1141  0.7880
   90SAPS  H11R 8736   2.695   1.709   9.198 -0.5611 -1.3600  0.8069
   90SAPS  C212 8737   2.534   1.840   9.174 -0.0462 -0.4743 -0.4554
   90SAPS  H12R 8738   2.578   1.879   9.081  0.8360 -0.1779  0.0761
   90SAPS  C213 8739   2.391   1.875   9.204  0.2968  0.0932  0.1539
   90SAPS  H13R 8740   2.388   1.924   9.304  2.0764  1.2581 -0.3071
   90SAPS  H13S 8741   2.321   1.790   9.221  1.4580 -0.5303  2.2200
   90SAPS  C214 8742   2.329   1.974   9.115 -0.8627  0.0310  0.6804
   90SAPS  H14R 8743   2.364   1.966   9.011 -2.3988  0.3594  0.1051
   90SAPS  C215 8744   2.230   2.054   9.144 -0.2661 -0.5064 -0.5453
   90SAPS  H15R 8745   2.176   2.104   9.062 -0.9678  1.7471  1.1998
   90SAPS  C216 8746   2.152   2.054   9.274  0.0896 -0.0429  1.1903
   90SAPS  H16R 8747   2.173   1.976   9.350  2.0586 -1.8991 -1.0943
   90SAPS  H16S 8748   2.043   2.049   9.251  0.0403  0.6994  1.2147
   90SAPS  C217 8749   2.175   2.192   9.351  0.2055  0.5595 -0.3928
   90SAPS  H17R 8750   2.285   2.209   9.352  0.3293 -0.1895  0.6831
   90SAPS  H17S 8751   2.149   2.172   9.457  4.5472  0.9842  0.9567
   90SAPS  C218 8752   2.115   2.313   9.288  0.3166 -0.0156 -0.4694
   90SAPS  H18R 8753   2.009   2.301   9.255  0.2076  2.2427 -1.0803
   90SAPS  H18S 8754   2.171   2.324   9.193  0.4500  0.7370 -0.3085
   90SAPS  C219 8755   2.147   2.445   9.375 -0.1639 -0.1482  0.3108
   90SAPS  H19R 8756   2.256   2.454   9.397 -0.2938  2.8641  0.2527
   90SAPS  H19S 8757   2.104   2.429   9.475 -0.4222  0.6409  0.3391
   90SAPS  C220 8758   2.083   2.576   9.321  1.1132  0.2345  0.1157
   90SAPS  H20R 8759   2.131   2.630   9.237 -0.5899 -0.0507 -1.0760
   90SAPS  H20S 8760   2.068   2.652   9.401  2.3096 -1.1052  1.7038
   90SAPS  H20T 8761   1.986   2.536   9.284 -0.2369 -0.3439  3.8336
   90SAPS   C33 8762   2.903   1.754   9.818  0.2464 -0.7101  0.0438
   90SAPS   H3X 8763   2.839   1.809   9.890  1.3611  1.9508 -0.8493
   90SAPS   H3Y 8764   2.844   1.712   9.734  0.9198 -2.1786  0.2713
   90SAPS   C34 8765   2.999   1.863   9.765 -0.3578  0.4146  0.4986
   90SAPS   H4X 8766   3.045   1.833   9.669  0.9629 -2.3365  1.8552
   90SAPS   H4Y 8767   3.083   1.889   9.834 -0.7862 -0.1136  1.2393
   90SAPS   C35 8768   2.910   1.985   9.729 -0.5988 -0.1877 -0.1271
   90SAPS   H5X 8769   2.862   2.007   9.827  0.6845 -0.8916  0.6963
   90SAPS   H5Y 8770   2.833   1.950   9.657 -2.2279 -1.3061  2.0453
   90SAPS   C36 8771   2.976   2.113   9.676 -0.0325 -0.6416  0.5887
   90SAPS   H6X 8772   3.061   2.143   9.740 -0.0082 -1.3930  0.9127
   90SAPS   H6Y 8773   2.906   2.198   9.661  0.3969  0.1829  2.8993
   90SAPS   C37 8774   3.032   2.093   9.537 -0.0671  0.7682  0.3627
   90SAPS   H7X 8775   3.082   1.994   9.535  0.4320  0.9944  1.0283
   90SAPS   H7Y 8776   3.105   2.170   9.505 -0.9382  1.0795 -0.9300
   90SAPS   C38 8777   2.928   2.075   9.425  0.2799 -0.5006 -0.2694
   90SAPS   H8X 8778   2.875   2.172   9.414  1.8655  0.3871 -0.3616
   90SAPS   H8Y 8779   2.857   1.995   9.456  1.0617 -1.2863 -0.4536
   90SAPS   C39 8780   2.983   2.033   9.282 -0.1318 -1.1275 -1.1268
   90SAPS   H9X 8781   3.074   1.973   9.303  0.9299  0.4847 -0.9765
   90SAPS   H9Y 8782   3.021   2.121   9.227  0.1025  0.1287  0.9309
   90SAPS  C310 8783   2.890   1.955   9.193 -0.1377  0.0342 -0.0462
   90SAPS  H10X 8784   2.788   2.000   9.188  0.0054  0.4392  0.6265
   90SAPS  H10Y 8785   2.868   1.855   9.235 -2.1799  1.4168  2.4334
   90SAPS  C311 8786   2.933   1.941   9.046  0.1129 -0.4217  0.2945
   90SAPS  H11X 8787   2.848   1.895   8.992  1.1616 -1.2657 -0.6930
   90SAPS  H11Y 8788   3.020   1.876   9.023  0.2463  0.2355 -1.1483
   90SAPS  C312 8789   2.959   2.084   8.987  0.6245 -0.5684  0.8435
   90SAPS  H12X 8790   3.062   2.122   9.008  0.7631 -0.6995  0.4160
   90SAPS  H12Y 8791   2.898   2.157   9.043  1.4544  1.1248 -0.3959
   90SAPS  C313 8792   2.927   2.087   8.832 -0.7329 -0.0553 -0.8384
   90SAPS  H13X 8793   2.980   2.009   8.774  0.3563  1.6276 -2.1929
   90SAPS  H13Y 8794   2.965   2.174   8.774  1.7322  0.3624  1.2109
   90SAPS  C314 8795   2.775   2.092   8.797  0.2822 -0.4445  0.2223
   90SAPS  H14X 8796   2.733   2.195   8.801 -1.1899 -1.0190  0.2830
   90SAPS  H14Y 8797   2.717   2.025   8.864  1.7978 -0.3543  1.7174
   90SAPS  C315 8798   2.743   2.036   8.656  0.4649  0.0642  0.0309
   90SAPS  H15X 8799   2.746   1.925   8.664 -1.2583 -0.0797 -0.9094
   90SAPS  H15Y 8800   2.830   2.065   8.593  1.1636  1.0755  1.4165
   90SAPS  C316 8801   2.603   2.069   8.597  0.5214 -0.6898  0.1139
   90SAPS  H16X 8802   2.527   2.012   8.654  0.1067 -1.4731 -1.1804
   90SAPS  H16Y 8803   2.598   2.036   8.491  0.8565  0.3974 -0.2620
   90SAPS  C317 8804   2.570   2.214   8.585  0.5059 -0.3471 -0.3026
   90SAPS  H17X 8805   2.657   2.264   8.537  1.3436 -1.6421 -0.1851
   90SAPS  H17Y 8806   2.556   2.248   8.690 -2.0000 -3.1027  0.3897
   90SAPS  C318 8807   2.445   2.251   8.507 -0.0176  0.3475  0.0759
   90SAPS  H18X 8808   2.359   2.182   8.522 -0.0902  0.0715 -1.4648
   90SAPS  H18Y 8809   2.466   2.249   8.398 -2.1130  2.3209 -0.4529
   90SAPS  H18Z 8810   2.410   2.353   8.536  0.4220  0.0393  1.8086
   91SAPS     N 8811   6.586   0.419   5.717 -0.1965  0.4209 -0.1675
   91SAPS   HN1 8812   6.627   0.408   5.622  3.8305  0.7621  1.3470
   91SAPS   HN2 8813   6.482   0.424   5.717 -0.3925 -2.2557 -0.5495
   91SAPS   HN3 8814   6.624   0.512   5.744 -1.2173  1.5666 -2.3921
   91SAPS   C12 8815   6.643   0.316   5.807 -0.2745 -0.0250  0.0348
   91SAPS  H12A 8816   6.617   0.347   5.907 -0.6355 -0.1158 -0.0306
   91SAPS   C13 8817   6.592   0.176   5.765 -0.2892 -0.2947  0.4554
   91SAPS  O13A 8818   6.504   0.168   5.675 -0.3568  0.2586  0.1732
   91SAPS  O13B 8819   6.632   0.079   5.833  0.3116 -0.4621  1.0105
   91SAPS   C11 8820   6.793   0.325   5.808 -0.5672 -0.2992 -0.0949
   91SAPS  H11A 8821   6.826   0.294   5.707  0.2056  1.9510 -0.6046
   91SAPS  H11B 8822   6.825   0.249   5.883  0.7509 -0.3359 -0.6755
   91SAPS     P 8823   6.895   0.495   5.984 -0.1529  0.0442  0.0285
   91SAPS   O13 8824   6.999   0.396   6.015  0.4918  0.2347  0.2456
   91SAPS   O14 8825   6.933   0.639   5.972  0.1982 -0.0171  0.2026
   91SAPS   O12 8826   6.839   0.461   5.834  0.6269  0.4143 -0.3209
   91SAPS   O11 8827   6.759   0.472   6.068 -0.4231 -0.1536 -0.2151
   91SAPS    C1 8828   6.661   0.573   6.067  0.4991 -0.7206  0.4399
   91SAPS    HA 8829   6.697   0.669   6.025 -0.7128 -0.9615 -1.2133
   91SAPS    HB 8830   6.581   0.542   5.997  2.6851  0.6863 -2.9112
   91SAPS    C2 8831   6.607   0.589   6.206 -0.1398  0.1363 -0.2259
   91SAPS    HS 8832   6.530   0.669   6.208 -1.0627 -0.7455  1.1196
   91SAPS   O21 8833   6.713   0.634   6.300  0.5397 -0.1421  0.4749
   91SAPS   C21 8834   6.743   0.766   6.285 -0.0964 -0.0708 -0.6576
   91SAPS   O22 8835   6.695   0.845   6.207  0.5257  0.2739 -0.5678
   91SAPS   C22 8836   6.838   0.801   6.405  0.2579  0.6985  0.0537
   91SAPS   H2R 8837   6.881   0.705   6.441 -0.1724  0.0736 -1.0610
   91SAPS   H2S 8838   6.915   0.858   6.349 -2.3133  3.7503 -0.6609
   91SAPS    C3 8839   6.540   0.461   6.254 -0.8477  0.3673  0.1078
   91SAPS    HX 8840   6.608   0.374   6.240 -0.5837  0.3632  1.2811
   91SAPS    HY 8841   6.448   0.447   6.193  0.0296 -0.4472 -1.0587
   91SAPS   O31 8842   6.490   0.476   6.393  0.5859 -0.4063 -0.0232
   91SAPS   C31 8843   6.563   0.422   6.489  0.2387 -0.1715  0.0055
   91SAPS   O32 8844   6.669   0.365   6.477  0.5289  0.2372 -0.1694
   91SAPS   C32 8845   6.492   0.450   6.627  0.2588  0.5426  0.2143
   91SAPS   H2X 8846   6.384   0.423   6.626  0.9201 -2.6715  1.2649
   91SAPS   H2Y 8847   6.506   0.556   6.657 -3.2931  1.7672 -1.8959
   91SAPS   C23 8848   6.800   0.885   6.533 -0.0581  0.1542  0.2592
   91SAPS   H3R 8849   6.764   0.989   6.517 -0.8875 -0.2038 -0.2787
   91SAPS   H3S 8850   6.895   0.908   6.585 -0.2887  1.6650  0.0607
   91SAPS   C24 8851   6.706   0.806   6.628 -0.9188 -0.6837 -0.0329
   91SAPS   H4R 8852   6.609   0.780   6.582 -1.4401  0.2561  0.5086
   91SAPS   H4S 8853   6.692   0.880   6.710  0.8459 -0.2112 -0.1161
   91SAPS   C25 8854   6.778   0.685   6.684  0.6936  0.4920  0.7563
   91SAPS   H5R 8855   6.786   0.603   6.611 -0.2908  1.3717 -0.3706
   91SAPS   C26 8856   6.813   0.646   6.805 -0.2593 -0.1292 -0.2417
   91SAPS   H6R 8857   6.854   0.545   6.817 -0.9019 -0.3525  0.0630
   91SAPS   C27 8858   6.795   0.730   6.932  0.9519  0.0419  0.3736
   91SAPS   H7R 8859   6.793   0.662   7.020  0.4019 -0.2576  0.1375
   91SAPS   H7S 8860   6.691   0.770   6.933  0.7666 -0.2039  3.8940
   91SAPS   C28 8861   6.899   0.841   6.966 -0.1259  0.2272  0.0403
   91SAPS   H8R 8862   6.897   0.925   6.895 -0.0550 -1.6420 -2.3100
   91SAPS   C29 8863   6.977   0.847   7.077  0.1395 -0.2964 -0.0800
   91SAPS   H9R 8864   7.052   0.926   7.092  1.8638 -2.2982  3.0207
   91SAPS  C210 8865   6.981   0.749   7.185  0.5435  0.4330  0.4713
   91SAPS  H10R 8866   7.063   0.777   7.254 -0.9562  1.9475  1.7164
   91SAPS  H10S 8867   7.001   0.648   7.143 -1.5999 -0.6411  1.8492
   91SAPS  C211 8868   6.861   0.745   7.275  0.2539 -1.0454 -0.0619
   91SAPS  H11R 8869   6.765   0.766   7.225  0.1508 -0.0615  0.5251
   91SAPS  C212 8870   6.854   0.735   7.413  0.1103 -0.6584 -0.0589
   91SAPS  H12R 8871   6.761   0.749   7.471  1.2577 -2.4156  2.3706
   91SAPS  C213 8872   6.972   0.725   7.508 -0.4994  0.3912  0.1158
   91SAPS  H13R 8873   7.066   0.702   7.453 -0.2032 -2.6938  1.7227
   91SAPS  H13S 8874   6.954   0.646   7.583 -0.4663  1.0912  0.8834
   91SAPS  C214 8875   7.004   0.850   7.580  0.1358  0.6996  0.2504
   91SAPS  H14R 8876   6.987   0.940   7.519 -0.3042  0.1149 -0.4953
   91SAPS  C215 8877   7.055   0.867   7.705  0.0368  0.0545  0.0189
   91SAPS  H15R 8878   7.067   0.968   7.745  0.6367 -0.2089  0.5175
   91SAPS  C216 8879   7.101   0.766   7.802  0.2613  0.4097 -1.1670
   91SAPS  H16R 8880   7.189   0.790   7.867  0.2680  0.8734 -1.3514
   91SAPS  H16S 8881   7.135   0.675   7.747  0.1081 -1.0225  0.9746
   91SAPS  C217 8882   6.994   0.724   7.908  0.3971 -0.3266  0.1875
   91SAPS  H17R 8883   7.034   0.637   7.965 -0.5884 -1.2775 -0.5363
   91SAPS  H17S 8884   6.903   0.687   7.856  0.5158  1.4204 -1.3782
   91SAPS  C218 8885   6.957   0.843   8.003 -0.3718  0.9492  0.1546
   91SAPS  H18R 8886   6.916   0.928   7.944  0.1569  0.3999 -1.0341
   91SAPS  H18S 8887   7.053   0.879   8.044 -1.1722  2.7999  0.5114
   91SAPS  C219 8888   6.879   0.802   8.123 -0.3041  0.1046  0.2562
   91SAPS  H19R 8889   6.949   0.751   8.193  0.4245  0.4908 -0.1747
   91SAPS  H19S 8890   6.813   0.719   8.093  1.6002 -1.4314  0.0884
   91SAPS  C220 8891   6.811   0.919   8.185  0.8491 -0.1023  0.0862
   91SAPS  H20R 8892   6.879   1.004   8.209  0.7681  0.9761 -2.9963
   91SAPS  H20S 8893   6.768   0.875   8.278  1.0603  1.3394  0.8946
   91SAPS  H20T 8894   6.730   0.954   8.117 -0.1113 -3.2908 -0.5855
   91SAPS   C33 8895   6.553   0.348   6.733 -0.5604 -0.1831  0.4895
   91SAPS   H3X 8896   6.658   0.375   6.756 -0.8855 -0.0002  1.8405
   91SAPS   H3Y 8897   6.555   0.251   6.680  0.2400  1.2282 -2.2612
   91SAPS   C34 8898   6.467   0.331   6.863  0.1866  0.3777  0.2232
   91SAPS   H4X 8899   6.514   0.244   6.915  2.5477  1.2157 -0.3818
   91SAPS   H4Y 8900   6.361   0.310   6.835  0.4691 -1.8155  0.5530
   91SAPS   C35 8901   6.487   0.446   6.955 -0.0176 -0.3018  0.3394
   91SAPS   H5X 8902   6.438   0.539   6.917 -0.4304 -0.8235 -0.4356
   91SAPS   H5Y 8903   6.597   0.461   6.967 -0.1294 -0.1581  1.2369
   91SAPS   C36 8904   6.433   0.420   7.095 -0.4963 -0.2816  0.5340
   91SAPS   H6X 8905   6.461   0.320   7.135 -0.9386 -0.1631  1.1583
   91SAPS   H6Y 8906   6.322   0.422   7.098 -0.5672 -0.5995 -0.9576
   91SAPS   C37 8907   6.487   0.521   7.201  0.4166  0.6306  0.7550
   91SAPS   H7X 8908   6.437   0.615   7.168 -0.4631 -0.6004 -1.6238
   91SAPS   H7Y 8909   6.597   0.528   7.192  0.5354 -1.3198  0.4260
   91SAPS   C38 8910   6.450   0.476   7.345 -0.4622 -0.1664  0.1587
   91SAPS   H8X 8911   6.523   0.398   7.376  0.0796 -0.0582 -0.8197
   91SAPS   H8Y 8912   6.348   0.431   7.345 -1.5416  2.1425  0.7630
   91SAPS   C39 8913   6.443   0.599   7.441  0.0272 -0.0593 -0.7029
   91SAPS   H9X 8914   6.356   0.658   7.406 -1.1365 -1.6197 -0.5549
   91SAPS   H9Y 8915   6.528   0.671   7.440 -1.0043  1.2586  1.1387
   91SAPS  C310 8916   6.408   0.566   7.584  0.7540  0.3583 -0.3758
   91SAPS  H10X 8917   6.473   0.484   7.621  1.5766  0.0502 -2.3980
   91SAPS  H10Y 8918   6.318   0.500   7.580  1.1410 -0.1549 -0.7994
   91SAPS  C311 8919   6.404   0.674   7.680  0.2618  0.0848 -0.2107
   91SAPS  H11X 8920   6.337   0.755   7.646 -0.1418 -0.0941  0.1481
   91SAPS  H11Y 8921   6.505   0.720   7.691  0.1823  0.8538 -2.2809
   91SAPS  C312 8922   6.369   0.624   7.823 -0.0144  0.0892  0.2078
   91SAPS  H12X 8923   6.446   0.549   7.851 -0.3890 -0.6538 -0.6951
   91SAPS  H12Y 8924   6.268   0.580   7.812  0.1627 -0.0486 -0.9991
   91SAPS  C313 8925   6.376   0.741   7.923  0.9084  0.9162 -0.4662
   91SAPS  H13X 8926   6.346   0.833   7.868 -1.2367  0.0704 -0.7804
   91SAPS  H13Y 8927   6.484   0.765   7.937  0.7545  2.2923 -1.4000
   91SAPS  C314 8928   6.294   0.709   8.053  0.0015 -0.3421  0.6797
   91SAPS  H14X 8929   6.328   0.620   8.110  2.7148  0.6630  0.7972
   91SAPS  H14Y 8930   6.187   0.690   8.032  0.1130  0.7119 -1.0416
   91SAPS  C315 8931   6.303   0.824   8.161 -0.4412 -0.1378  0.2101
   91SAPS  H15X 8932   6.255   0.780   8.251 -0.0818  0.3978  0.6699
   91SAPS  H15Y 8933   6.242   0.914   8.139  0.9072  1.2942  2.0090
   91SAPS  C316 8934   6.450   0.863   8.196  0.3124  0.2996 -0.1877
   91SAPS  H16X 8935   6.494   0.901   8.102  0.4861 -0.6203 -0.4936
   91SAPS  H16Y 8936   6.515   0.790   8.250 -1.3371 -0.1930  1.2180
   91SAPS  C317 8937   6.468   0.978   8.298  1.2768  0.0489  0.4840
   91SAPS  H17X 8938   6.415   1.062   8.249 -1.2457 -1.0588  1.1442
   91SAPS  H17Y 8939   6.575   0.997   8.322  1.2644  1.3080 -0.3781
   91SAPS  C318 8940   6.390   0.964   8.426  0.0318  0.4144  0.8079
   91SAPS  H18X 8941   6.292   0.916   8.404  0.2606  0.4774 -0.4394
   91SAPS  H18Y 8942   6.360   1.063   8.465 -2.0690  0.1167  0.1142
   91SAPS  H18Z 8943   6.440   0.893   8.496  0.7379 -1.2502 -1.2705
   92SAPS     N 8944   6.760   6.181   6.269 -0.5607  0.5468 -0.2835
   92SAPS   HN1 8945   6.704   6.136   6.343 -1.9565  3.1326  0.3306
   92SAPS   HN2 8946   6.859   6.174   6.301 -0.7492 -1.1530  0.0470
   92SAPS   HN3 8947   6.740   6.282   6.253  1.6609  1.7465  3.3348
   92SAPS   C12 8948   6.751   6.104   6.144 -0.1528  0.4480  0.3539
   92SAPS  H12A 8949   6.658   6.056   6.118  1.0110 -1.1774 -0.9915
   92SAPS   C13 8950   6.797   6.189   6.011 -0.2083  0.4928 -0.6034
   92SAPS  O13A 8951   6.808   6.312   6.022  0.0761 -0.2139 -0.1139
   92SAPS  O13B 8952   6.806   6.134   5.897 -0.6475  0.3798 -0.4979
   92SAPS   C11 8953   6.857   5.989   6.159  0.5115  0.2964  0.1269
   92SAPS  H11A 8954   6.960   6.026   6.175  1.2570 -1.0641 -1.2416
   92SAPS  H11B 8955   6.858   5.927   6.067 -0.1397  0.4833 -0.0127
   92SAPS     P 8956   6.833   5.756   6.267  0.0124 -0.3124 -0.0495
   92SAPS   O13 8957   6.696   5.705   6.245 -0.4862 -0.0261  0.0753
   92SAPS   O14 8958   6.934   5.716   6.172 -0.3294 -0.5736  1.3484
   92SAPS   O12 8959   6.829   5.911   6.282  0.1049 -0.1648  0.1977
   92SAPS   O11 8960   6.873   5.719   6.417  0.0054 -0.2676 -0.0138
   92SAPS    C1 8961   6.994   5.769   6.460 -0.6671  0.1003 -0.3819
   92SAPS    HA 8962   7.075   5.702   6.424  0.0046 -0.3764  1.8083
   92SAPS    HB 8963   7.025   5.871   6.428 -0.7407  0.4502  0.6210
   92SAPS    C2 8964   7.002   5.769   6.617  0.1509 -0.1576 -0.3822
   92SAPS    HS 8965   7.091   5.824   6.654  0.5150 -0.8106 -0.2747
   92SAPS   O21 8966   6.981   5.640   6.673 -0.3251 -0.8412 -0.6523
   92SAPS   C21 8967   7.076   5.551   6.654  0.0377 -0.5143 -0.3127
   92SAPS   O22 8968   7.171   5.560   6.576 -0.3951  0.1439  0.3047
   92SAPS   C22 8969   7.057   5.433   6.744  1.0376 -0.1902 -0.7238
   92SAPS   H2R 8970   6.948   5.414   6.750  1.2710 -1.3679  0.1622
   92SAPS   H2S 8971   7.102   5.346   6.692  1.6032 -1.0417  1.0885
   92SAPS    C3 8972   6.883   5.856   6.665  0.6488 -0.4197  0.1199
   92SAPS    HX 8973   6.798   5.826   6.601  0.9577 -0.6570 -0.1844
   92SAPS    HY 8974   6.917   5.962   6.652  0.5439 -0.6204 -2.1215
   92SAPS   O31 8975   6.845   5.822   6.797 -0.0844 -0.5593 -0.1419
   92SAPS   C31 8976   6.807   5.926   6.875 -0.6119  0.3778 -0.9288
   92SAPS   O32 8977   6.805   6.043   6.842  0.5512 -0.1317  0.3902
   92SAPS   C32 8978   6.771   5.873   7.014  0.7694 -0.4338 -0.8592
   92SAPS   H2X 8979   6.831   5.784   7.043  0.8765 -1.3135 -3.5305
   92SAPS   H2Y 8980   6.665   5.840   7.011 -0.0142  1.8964 -0.5551
   92SAPS   C23 8981   7.098   5.438   6.895 -0.5258  0.0664  0.1844
   92SAPS   H3R 8982   7.075   5.341   6.944 -0.9812  0.6346  1.1304
   92SAPS   H3S 8983   7.031   5.514   6.939  1.2843  2.5585 -1.1160
   92SAPS   C24 8984   7.239   5.474   6.939 -0.5482 -0.0360 -0.2273
   92SAPS   H4R 8985   7.309   5.404   6.889  0.8457  1.8073 -0.9513
   92SAPS   H4S 8986   7.251   5.454   7.048  2.1835 -1.4193 -0.7034
   92SAPS   C25 8987   7.282   5.613   6.906 -0.1979  0.1125 -0.2569
   92SAPS   H5R 8988   7.298   5.635   6.799 -0.4244 -2.1369 -0.7977
   92SAPS   C26 8989   7.286   5.716   6.992 -0.2543  0.0276  0.6456
   92SAPS   H6R 8990   7.315   5.810   6.943  0.9322 -0.9310 -0.5879
   92SAPS   C27 8991   7.251   5.704   7.135 -0.0449 -0.0447  0.0795
   92SAPS   H7R 8992   7.343   5.750   7.175  0.8592  0.4792 -2.4348
   92SAPS   H7S 8993   7.241   5.601   7.177  0.7780 -1.0337 -2.0036
   92SAPS   C28 8994   7.120   5.783   7.155  0.2225 -0.0335  0.9453
   92SAPS   H8R 8995   7.042   5.747   7.087  2.6086 -3.8206 -0.0798
   92SAPS   C29 8996   7.093   5.873   7.252  0.0562  0.7156 -0.4843
   92SAPS   H9R 8997   6.991   5.914   7.265 -0.1191 -0.4609  2.8969
   92SAPS  C210 8998   7.174   5.918   7.370 -0.0105 -0.7259  0.4538
   92SAPS  H10R 8999   7.151   6.024   7.392 -0.0093 -0.5628 -0.3127
   92SAPS  H10S 9000   7.277   5.927   7.329  0.0413 -3.2259 -0.1327
   92SAPS  C211 9001   7.169   5.833   7.496  0.7487 -0.4722  0.3188
   92SAPS  H11R 9002   7.129   5.732   7.485 -0.2435 -0.1597  0.9220
   92SAPS  C212 9003   7.219   5.884   7.614 -0.0705  0.4716 -0.2806
   92SAPS  H12R 9004   7.209   5.825   7.706 -2.1000  1.3685  0.1120
   92SAPS  C213 9005   7.275   6.025   7.642  0.3231  0.7561 -0.6840
   92SAPS  H13R 9006   7.192   6.079   7.694  0.1320 -2.0313  2.2495
   92SAPS  H13S 9007   7.316   6.067   7.548 -0.1588 -1.4513 -1.9428
   92SAPS  C214 9008   7.383   6.021   7.745  0.2151  0.7087 -0.6090
   92SAPS  H14R 9009   7.421   5.922   7.775  0.4134  1.3334  1.3669
   92SAPS  C215 9010   7.451   6.120   7.803 -0.0298 -0.1485 -0.6790
   92SAPS  H15R 9011   7.538   6.098   7.867  0.4701  0.7707 -1.0292
   92SAPS  C216 9012   7.430   6.270   7.787 -0.8059 -0.6167  0.1349
   92SAPS  H16R 9013   7.416   6.321   7.885 -0.7726  1.1534 -0.7437
   92SAPS  H16S 9014   7.331   6.287   7.740 -1.1932  0.5386  1.2928
   92SAPS  C217 9015   7.551   6.346   7.719 -0.1345 -0.0252  0.2361
   92SAPS  H17R 9016   7.648   6.322   7.769  1.1410 -1.0143 -2.4896
   92SAPS  H17S 9017   7.525   6.453   7.727  1.2645  0.3152  0.5497
   92SAPS  C218 9018   7.562   6.322   7.567 -0.3822  0.1531 -0.0537
   92SAPS  H18R 9019   7.607   6.416   7.529 -1.0152  0.1595 -0.8186
   92SAPS  H18S 9020   7.456   6.321   7.533 -1.0601 -0.7709  1.9139
   92SAPS  C219 9021   7.631   6.200   7.522 -0.3916 -0.1438  0.8467
   92SAPS  H19R 9022   7.567   6.111   7.543 -0.4766  0.2629  2.3671
   92SAPS  H19S 9023   7.723   6.193   7.584 -0.5540 -1.9416  0.9636
   92SAPS  C220 9024   7.671   6.193   7.375 -0.0181 -1.0781  0.1935
   92SAPS  H20R 9025   7.763   6.132   7.365  0.3709 -0.9514  2.4238
   92SAPS  H20S 9026   7.688   6.299   7.346 -2.4992  0.2972  3.1475
   92SAPS  H20T 9027   7.589   6.149   7.314 -1.5543  3.5011 -1.4812
   92SAPS   C33 9028   6.763   5.989   7.117  0.1544  0.5933 -0.4483
   92SAPS   H3X 9029   6.678   6.054   7.088 -2.9500 -2.2403  1.4977
   92SAPS   H3Y 9030   6.858   6.046   7.112  1.4251 -1.4079 -0.3839
   92SAPS   C34 9031   6.730   5.931   7.253  0.7229  0.0002 -0.7022
   92SAPS   H4X 9032   6.808   5.855   7.277  1.5732  1.1050  0.1559
   92SAPS   H4Y 9033   6.637   5.872   7.244 -0.9557  2.4121 -0.0288
   92SAPS   C35 9034   6.731   6.042   7.367 -0.5076  0.1055 -0.2252
   92SAPS   H5X 9035   6.641   6.102   7.344  0.5263  2.0864  0.7051
   92SAPS   H5Y 9036   6.821   6.103   7.346 -0.6896  1.4439  2.5243
   92SAPS   C36 9037   6.715   6.004   7.515 -0.1842 -0.3912  0.4443
   92SAPS   H6X 9038   6.765   5.906   7.528 -0.4900 -0.5547  0.3995
   92SAPS   H6Y 9039   6.607   5.986   7.532 -1.3304  2.5998 -2.5369
   92SAPS   C37 9040   6.757   6.107   7.618 -0.7583  0.2834  0.9836
   92SAPS   H7X 9041   6.694   6.197   7.600 -1.8005 -0.8645 -1.7765
   92SAPS   H7Y 9042   6.862   6.138   7.601 -0.7532  0.6258  1.6257
   92SAPS   C38 9043   6.768   6.049   7.756 -0.2621 -0.1365 -0.4122
   92SAPS   H8X 9044   6.664   6.029   7.789  0.4858  0.2743  2.4310
   92SAPS   H8Y 9045   6.820   6.121   7.824 -1.0329 -1.5603  1.7700
   92SAPS   C39 9046   6.846   5.918   7.775 -0.3846 -0.2012 -0.4094
   92SAPS   H9X 9047   6.930   5.929   7.703  0.7339  1.4579  1.0532
   92SAPS   H9Y 9048   6.780   5.834   7.745 -0.8929  0.4728 -1.2226
   92SAPS  C310 9049   6.890   5.894   7.918  0.0801  0.3635 -0.5546
   92SAPS  H10X 9050   6.817   5.834   7.975  0.1263  1.6135  0.9027
   92SAPS  H10Y 9051   6.920   5.980   7.982  1.9877 -1.6836  1.5061
   92SAPS  C311 9052   7.012   5.803   7.909  0.3539 -0.2450 -0.4439
   92SAPS  H11X 9053   7.110   5.855   7.906 -0.2726  1.0306  0.1629
   92SAPS  H11Y 9054   7.002   5.744   7.815  2.1911  2.1465 -2.2757
   92SAPS  C312 9055   7.014   5.689   8.019 -0.0831  0.5410  0.8041
   92SAPS  H12X 9056   7.095   5.614   8.004 -2.1303 -1.4968 -0.8023
   92SAPS  H12Y 9057   6.918   5.634   8.025  0.6532 -0.7331  1.4417
   92SAPS  C313 9058   7.042   5.750   8.157 -0.2171 -0.7063 -1.2652
   92SAPS  H13X 9059   6.963   5.823   8.184  0.7403 -0.8567  2.5749
   92SAPS  H13Y 9060   7.133   5.814   8.147  0.5567 -1.3919  0.8132
   92SAPS  C314 9061   7.066   5.647   8.270 -0.0660 -0.2977 -0.4057
   92SAPS  H14X 9062   7.166   5.606   8.244  0.6088  0.8491  0.3109
   92SAPS  H14Y 9063   6.990   5.566   8.261 -0.6167  0.1808 -0.1548
   92SAPS  C315 9064   7.073   5.709   8.411  0.8961 -0.2867  0.0546
   92SAPS  H15X 9065   6.968   5.745   8.417  0.5076 -0.7917 -2.3761
   92SAPS  H15Y 9066   7.131   5.804   8.407  1.2789 -0.4789  0.8511
   92SAPS  C316 9067   7.124   5.620   8.520 -0.4126  0.3426  0.4978
   92SAPS  H16X 9068   7.039   5.550   8.538 -0.3027  0.2100  0.4969
   92SAPS  H16Y 9069   7.141   5.681   8.612  0.4765  3.3231 -1.4731
   92SAPS  C317 9070   7.258   5.545   8.500 -0.3000 -0.2551  0.5438
   92SAPS  H17X 9071   7.253   5.475   8.414 -0.5109  0.3207  0.0836
   92SAPS  H17Y 9072   7.286   5.486   8.590  0.3380 -1.1046 -0.1860
   92SAPS  C318 9073   7.375   5.646   8.474 -0.1416 -0.3986 -0.4233
   92SAPS  H18X 9074   7.333   5.734   8.422 -0.0418  0.0955  0.3175
   92SAPS  H18Y 9075   7.457   5.595   8.418 -1.3093 -1.0570 -1.5880
   92SAPS  H18Z 9076   7.410   5.668   8.577  2.4484 -2.1855 -0.7918
   93SAPS     N 9077   0.364   4.483   6.073  0.2550  0.6463 -0.1339
   93SAPS   HN1 9078   0.365   4.391   6.023 -0.2379 -0.8217  2.3963
   93SAPS   HN2 9079   0.269   4.503   6.111  0.7371 -2.6622  3.5451
   93SAPS   HN3 9080   0.389   4.558   6.006  3.8939  0.7142  1.0979
   93SAPS   C12 9081   0.460   4.488   6.181 -1.0088 -0.1940 -0.8249
   93SAPS  H12A 9082   0.419   4.418   6.253 -2.4377 -0.8950 -2.2512
   93SAPS   C13 9083   0.603   4.444   6.141 -1.4184  0.2680 -0.6630
   93SAPS  O13A 9084   0.644   4.416   6.024 -0.3761 -0.0127  0.0033
   93SAPS  O13B 9085   0.681   4.404   6.241  0.3059 -0.6127  0.3085
   93SAPS   C11 9086   0.472   4.633   6.236  0.4645 -0.7192  0.4941
   93SAPS  H11A 9087   0.500   4.697   6.150  2.5202 -2.4242 -0.1916
   93SAPS  H11B 9088   0.561   4.634   6.303  0.6933 -0.5432  0.1911
   93SAPS     P 9089   0.361   4.836   6.351  0.0750 -0.1593  0.1240
   93SAPS   O13 9090   0.422   4.930   6.248 -0.3175  1.0242 -0.4713
   93SAPS   O14 9091   0.230   4.888   6.400 -0.3701 -0.8304  0.1684
   93SAPS   O12 9092   0.349   4.688   6.283 -0.0323  0.0079 -0.0826
   93SAPS   O11 9093   0.451   4.808   6.483 -0.3471  0.1375  0.7642
   93SAPS    C1 9094   0.418   4.715   6.584 -0.0371 -0.0943  0.3026
   93SAPS    HA 9095   0.347   4.640   6.541  3.0464 -1.7287 -2.3557
   93SAPS    HB 9096   0.507   4.665   6.627  0.6164 -0.2426 -1.1504
   93SAPS    C2 9097   0.348   4.787   6.704  0.1339  0.1866  0.3262
   93SAPS    HS 9098   0.260   4.845   6.668 -0.8419  0.3150  2.7508
   93SAPS   O21 9099   0.441   4.874   6.767  0.0020  0.1153  0.5319
   93SAPS   C21 9100   0.385   4.957   6.853  0.2455  0.4956 -0.1942
   93SAPS   O22 9101   0.267   4.966   6.876  0.7656  0.2936 -0.6503
   93SAPS   C22 9102   0.494   5.024   6.927 -0.3538 -0.4601 -0.2593
   93SAPS   H2R 9103   0.572   4.950   6.957 -0.6747 -0.2616  1.1257
   93SAPS   H2S 9104   0.546   5.106   6.874  0.5152 -1.4381 -0.9688
   93SAPS    C3 9105   0.291   4.677   6.801 -0.0984  0.0930  0.6816
   93SAPS    HX 9106   0.202   4.628   6.757 -0.6464 -1.5601  3.3967
   93SAPS    HY 9107   0.258   4.731   6.892 -0.6532 -1.4838  1.4488
   93SAPS   O31 9108   0.386   4.564   6.825 -0.4700  0.1046  0.0614
   93SAPS   C31 9109   0.457   4.568   6.941  0.4346  0.0689  0.7391
   93SAPS   O32 9110   0.458   4.659   7.020  0.1550 -0.9576 -0.4294
   93SAPS   C32 9111   0.545   4.445   6.944  0.2765 -0.6813  0.2428
   93SAPS   H2X 9112   0.603   4.465   6.851 -0.6838  0.0534 -0.2190
   93SAPS   H2Y 9113   0.477   4.359   6.930  1.6542 -2.1757  2.3037
   93SAPS   C23 9114   0.451   5.085   7.065  0.0460 -0.0454 -0.2636
   93SAPS   H3R 9115   0.366   5.155   7.046  0.3114  0.8124  1.4454
   93SAPS   H3S 9116   0.536   5.150   7.097 -0.1764 -0.5008  1.3415
   93SAPS   C24 9117   0.417   4.975   7.167  1.0315 -0.3322 -0.5274
   93SAPS   H4R 9118   0.511   4.921   7.192  2.5531  2.3217 -0.0174
   93SAPS   H4S 9119   0.346   4.901   7.127  0.3294 -0.0689  0.2047
   93SAPS   C25 9120   0.361   5.033   7.299  0.3986  0.3400  0.0261
   93SAPS   H5R 9121   0.281   5.106   7.280 -0.0001 -0.0865  0.0484
   93SAPS   C26 9122   0.395   5.007   7.426  0.0438 -0.2417  0.1979
   93SAPS   H6R 9123   0.343   5.062   7.506  0.4545  0.8756 -0.2928
   93SAPS   C27 9124   0.499   4.906   7.475 -0.0907 -0.4843  0.2875
   93SAPS   H7R 9125   0.506   4.811   7.417  0.4554 -0.2970  0.0350
   93SAPS   H7S 9126   0.471   4.858   7.571  0.0805 -1.5756 -0.1921
   93SAPS   C28 9127   0.644   4.961   7.472  0.4875 -0.2215 -0.4473
   93SAPS   H8R 9128   0.674   4.982   7.368  0.8405 -0.9041 -0.4884
   93SAPS   C29 9129   0.737   4.975   7.569 -0.2918  0.3629 -0.2540
   93SAPS   H9R 9130   0.827   5.034   7.546 -0.7230  2.5843  3.0568
   93SAPS  C210 9131   0.718   4.946   7.715 -0.4241  0.6367 -0.2115
   93SAPS  H10R 9132   0.755   4.845   7.741 -0.4801  0.3545 -1.1691
   93SAPS  H10S 9133   0.609   4.946   7.736 -0.5600  2.3807 -0.7225
   93SAPS  C211 9134   0.795   5.042   7.801 -0.5870 -0.2308 -0.0207
   93SAPS  H11R 9135   0.805   5.142   7.755  0.2912 -0.8222 -1.1347
   93SAPS  C212 9136   0.864   5.009   7.918 -0.4326  0.1228  0.2152
   93SAPS  H12R 9137   0.915   5.093   7.968 -1.1928  0.3480  0.6381
   93SAPS  C213 9138   0.877   4.874   7.985  0.1553 -0.2213 -0.4157
   93SAPS  H13R 9139   0.856   4.793   7.911 -1.9068 -0.3839  0.2977
   93SAPS  H13S 9140   0.810   4.869   8.073 -0.3120  1.7774 -0.6182
   93SAPS  C214 9141   1.020   4.860   8.011  0.3436 -0.1827  0.5345
   93SAPS  H14R 9142   1.087   4.891   7.930  1.3920  2.2243  2.2084
   93SAPS  C215 9143   1.069   4.809   8.126  0.8624 -0.4113 -0.7995
   93SAPS  H15R 9144   1.178   4.793   8.135  1.2561  2.4771  0.4453
   93SAPS  C216 9145   0.989   4.756   8.248 -0.1712 -0.1837  0.0938
   93SAPS  H16R 9146   1.051   4.698   8.319  2.0809  1.6313 -0.2803
   93SAPS  H16S 9147   0.909   4.689   8.210  0.0783 -0.7227  0.5038
   93SAPS  C217 9148   0.942   4.875   8.329  0.7687  0.0348 -0.4937
   93SAPS  H17R 9149   0.878   4.836   8.411 -0.4738  1.4486 -0.7434
   93SAPS  H17S 9150   0.873   4.937   8.267 -0.3945 -0.6216  0.1091
   93SAPS  C218 9151   1.057   4.958   8.374  0.6538 -0.2491 -0.2195
   93SAPS  H18R 9152   1.089   5.036   8.301 -1.0405 -0.8986 -1.6970
   93SAPS  H18S 9153   1.141   4.892   8.406 -1.3100 -2.3932  0.7449
   93SAPS  C219 9154   1.019   5.035   8.506  0.5458  0.6884  0.6770
   93SAPS  H19R 9155   1.103   5.102   8.533 -0.1734  1.9200 -0.0362
   93SAPS  H19S 9156   1.016   4.952   8.580  0.9342 -1.1760 -1.2664
   93SAPS  C220 9157   0.881   5.113   8.507  1.1621  0.1768 -0.3351
   93SAPS  H20R 9158   0.883   5.189   8.426 -2.7779  0.9851  0.1583
   93SAPS  H20S 9159   0.867   5.173   8.599 -0.6781  2.2901 -1.8952
   93SAPS  H20T 9160   0.789   5.052   8.500 -0.1811  1.8857  1.3138
   93SAPS   C33 9161   0.646   4.447   7.065  0.5741  0.3781 -0.1381
   93SAPS   H3X 9162   0.686   4.548   7.087 -0.2664  1.4847 -3.2165
   93SAPS   H3Y 9163   0.737   4.383   7.063 -1.2283 -2.3439 -1.7653
   93SAPS   C34 9164   0.572   4.412   7.200  0.2365 -0.3493 -0.0939
   93SAPS   H4X 9165   0.524   4.312   7.187 -1.4750  0.6303 -1.8737
   93SAPS   H4Y 9166   0.486   4.481   7.210 -0.4547 -1.2213  0.1706
   93SAPS   C35 9167   0.662   4.427   7.323 -0.1470  0.3033 -0.1041
   93SAPS   H5X 9168   0.698   4.531   7.312 -1.6651  0.6153 -3.3332
   93SAPS   H5Y 9169   0.746   4.355   7.331 -1.3099 -1.1068 -0.0977
   93SAPS   C36 9170   0.579   4.405   7.450 -0.1618  0.6004  0.4527
   93SAPS   H6X 9171   0.560   4.296   7.463 -2.9963  0.7461 -1.5323
   93SAPS   H6Y 9172   0.483   4.460   7.438  0.4937  1.4223 -1.2888
   93SAPS   C37 9173   0.647   4.456   7.580 -0.8440  0.7535 -0.2004
   93SAPS   H7X 9174   0.674   4.563   7.566  1.0066  0.2537 -0.8093
   93SAPS   H7Y 9175   0.745   4.404   7.579 -0.1989  1.5525 -5.3334
   93SAPS   C38 9176   0.563   4.449   7.711 -0.6812 -0.0393  0.0862
   93SAPS   H8X 9177   0.508   4.353   7.719  0.4542 -0.5956  2.2430
   93SAPS   H8Y 9178   0.488   4.530   7.709 -0.5886  0.0286 -0.9440
   93SAPS   C39 9179   0.650   4.468   7.845  0.6433 -0.3626  0.3600
   93SAPS   H9X 9180   0.719   4.551   7.819 -1.2499  0.5449 -2.2194
   93SAPS   H9Y 9181   0.710   4.375   7.857  1.4561  0.0249 -0.5206
   93SAPS  C310 9182   0.580   4.501   7.976  0.3437 -0.3943 -0.6235
   93SAPS  H10X 9183   0.544   4.412   8.033 -0.7291  0.2966 -0.2049
   93SAPS  H10Y 9184   0.487   4.559   7.958  0.9867  0.1443 -2.4216
   93SAPS  C311 9185   0.675   4.575   8.073  0.3263  0.1835 -0.9914
   93SAPS  H11X 9186   0.680   4.682   8.041 -1.9594  0.8339  0.5498
   93SAPS  H11Y 9187   0.777   4.534   8.080  1.9597  3.9153 -0.3147
   93SAPS  C312 9188   0.611   4.599   8.218  0.3947 -0.2675 -0.4670
   93SAPS  H12X 9189   0.678   4.651   8.289  1.4938 -0.9849 -0.9540
   93SAPS  H12Y 9190   0.596   4.495   8.254 -1.0440  0.0519 -0.0657
   93SAPS  C313 9191   0.470   4.671   8.219 -0.0800  0.6839 -0.6828
   93SAPS  H13X 9192   0.446   4.668   8.328  1.1214  0.0255 -0.4165
   93SAPS  H13Y 9193   0.386   4.616   8.172 -0.4329  0.8280 -0.2279
   93SAPS  C314 9194   0.461   4.812   8.152 -1.1859  0.0445  0.5159
   93SAPS  H14X 9195   0.355   4.845   8.163 -1.1907  1.2207 -2.2460
   93SAPS  H14Y 9196   0.489   4.816   8.045  0.8177 -1.0467  0.9397
   93SAPS  C315 9197   0.551   4.913   8.226 -0.5366  0.0730  0.3321
   93SAPS  H15X 9198   0.658   4.882   8.229 -0.6184 -0.1767  0.6595
   93SAPS  H15Y 9199   0.520   4.916   8.332 -0.0865  0.4652  0.4587
   93SAPS  C316 9200   0.551   5.052   8.165 -0.4908 -0.3924  0.0706
   93SAPS  H16X 9201   0.446   5.089   8.162  0.6090  3.5974  2.7534
   93SAPS  H16Y 9202   0.582   5.040   8.060 -1.0474 -0.9650 -0.0381
   93SAPS  C317 9203   0.627   5.164   8.224 -0.7360 -0.4294  0.2257
   93SAPS  H17X 9204   0.734   5.138   8.242 -0.1894 -0.0755 -2.1592
   93SAPS  H17Y 9205   0.582   5.192   8.321  1.4334  0.3734  1.0723
   93SAPS  C318 9206   0.637   5.285   8.139 -0.3189  0.2360  0.2049
   93SAPS  H18X 9207   0.720   5.272   8.065  0.2199  1.5838  0.5236
   93SAPS  H18Y 9208   0.667   5.379   8.190  1.8275  0.6187 -1.5559
   93SAPS  H18Z 9209   0.544   5.293   8.079  0.3017  0.2487 -0.7767
   94SAPS     N 9210   0.296   1.222   5.696  0.4112 -0.4478 -0.2943
   94SAPS   HN1 9211   0.194   1.243   5.703  0.4351 -0.3816 -0.1489
   94SAPS   HN2 9212   0.332   1.235   5.792  2.2476  0.1496 -1.0296
   94SAPS   HN3 9213   0.333   1.292   5.628 -1.4985 -2.4865 -3.7496
   94SAPS   C12 9214   0.346   1.104   5.621  0.0485  0.4494 -0.2812
   94SAPS  H12A 9215   0.286   1.028   5.670  0.5495 -0.4899 -1.0852
   94SAPS   C13 9216   0.311   1.108   5.477 -0.7602  0.2525 -0.3982
   94SAPS  O13A 9217   0.241   1.203   5.433 -0.9511 -0.0042 -0.2461
   94SAPS  O13B 9218   0.371   1.031   5.400 -0.1604  0.5940  0.7585
   94SAPS   C11 9219   0.492   1.077   5.656 -0.1087 -0.4563 -0.1933
   94SAPS  H11A 9220   0.556   1.162   5.627 -0.1200 -0.4058 -0.0697
   94SAPS  H11B 9221   0.530   0.992   5.594 -0.6347 -2.2511  1.8150
   94SAPS     P 9222   0.552   0.911   5.845 -0.0126  0.2678 -0.7020
   94SAPS   O13 9223   0.447   0.811   5.806  0.0936  0.2785 -0.8417
   94SAPS   O14 9224   0.688   0.886   5.797  0.3754 -0.1874 -0.2019
   94SAPS   O12 9225   0.512   1.058   5.802 -0.2159  0.2199  0.5948
   94SAPS   O11 9226   0.562   0.922   5.997 -0.0129  0.0076 -0.4191
   94SAPS    C1 9227   0.476   1.001   6.086  0.9224  0.3458  0.6160
   94SAPS    HA 9228   0.499   1.000   6.194  1.9736 -1.6767  0.4232
   94SAPS    HB 9229   0.471   1.102   6.041  1.7238 -1.3547 -3.8241
   94SAPS    C2 9230   0.330   0.947   6.084 -0.5199  0.1651 -0.1069
   94SAPS    HS 9231   0.289   0.943   5.981 -1.0334  0.0455  0.0996
   94SAPS   O21 9232   0.245   1.036   6.162  0.0139  0.0461 -0.4753
   94SAPS   C21 9233   0.207   1.151   6.106  0.3152  0.5490 -0.1190
   94SAPS   O22 9234   0.243   1.189   5.998 -0.3800  0.5610 -0.8128
   94SAPS   C22 9235   0.103   1.219   6.193  0.6192  0.2298  0.2476
   94SAPS   H2R 9236   0.107   1.327   6.168  1.1672  0.3209  0.6825
   94SAPS   H2S 9237   0.006   1.179   6.157 -0.9887  2.3790  1.9219
   94SAPS    C3 9238   0.327   0.807   6.164 -0.2447  0.2027  0.2006
   94SAPS    HX 9239   0.387   0.735   6.103 -0.0305 -0.2463  0.9301
   94SAPS    HY 9240   0.220   0.779   6.165 -0.5503  1.3333  0.6000
   94SAPS   O31 9241   0.389   0.816   6.295 -0.3122  0.0786  0.1686
   94SAPS   C31 9242   0.369   0.703   6.371 -0.6306 -0.3906  0.7614
   94SAPS   O32 9243   0.295   0.610   6.343  0.0652 -1.0043  0.1282
   94SAPS   C32 9244   0.453   0.721   6.496 -0.0741 -0.1314  0.7517
   94SAPS   H2X 9245   0.443   0.828   6.526  0.8073  0.3512 -0.6021
   94SAPS   H2Y 9246   0.560   0.715   6.469 -0.1685 -1.5163  0.6488
   94SAPS   C23 9247   0.125   1.200   6.344  0.5709  0.0223 -0.0462
   94SAPS   H3R 9248   0.115   1.090   6.356  1.6851  0.1302  2.5642
   94SAPS   H3S 9249   0.042   1.240   6.406 -0.0374 -0.5821 -0.4549
   94SAPS   C24 9250   0.249   1.262   6.408 -0.2519 -0.3210  0.1652
   94SAPS   H4R 9251   0.332   1.245   6.336  0.0237  1.4006  0.0232
   94SAPS   H4S 9252   0.272   1.215   6.506  0.1870 -0.2063  0.1186
   94SAPS   C25 9253   0.242   1.409   6.435  0.1780 -0.0889 -0.0504
   94SAPS   H5R 9254   0.275   1.472   6.351  0.8218 -0.9187 -0.4365
   94SAPS   C26 9255   0.216   1.465   6.551 -0.5347  1.2189  0.2077
   94SAPS   H6R 9256   0.212   1.575   6.552  3.0054  1.4771 -0.7503
   94SAPS   C27 9257   0.180   1.382   6.677 -0.0899  0.0729 -0.1744
   94SAPS   H7R 9258   0.261   1.310   6.697  2.2472  1.8864 -2.4365
   94SAPS   H7S 9259   0.083   1.340   6.643 -0.1462  1.0763 -1.3229
   94SAPS   C28 9260   0.165   1.456   6.804 -0.4736  0.0966  0.1410
   94SAPS   H8R 9261   0.205   1.558   6.810  1.2510 -0.6070  1.1993
   94SAPS   C29 9262   0.089   1.417   6.907  0.6531 -0.8869 -0.1423
   94SAPS   H9R 9263   0.075   1.485   6.993  0.5945 -1.5341  0.3653
   94SAPS  C210 9264   0.012   1.294   6.924 -0.4626  0.0476 -0.5363
   94SAPS  H10R 9265   0.013   1.278   7.034 -1.3870  0.8142 -0.4034
   94SAPS  H10S 9266   0.057   1.203   6.878 -0.4140 -1.8115  2.8413
   94SAPS  C211 9267  -0.131   1.294   6.874  0.0488 -0.4111 -0.1597
   94SAPS  H11R 9268  -0.144   1.329   6.771 -0.6687  1.9118  0.6605
   94SAPS  C212 9269  -0.240   1.260   6.945  0.7223 -0.0896  0.2519
   94SAPS  H12R 9270  -0.336   1.261   6.893 -0.8860 -1.2726  2.9908
   94SAPS  C213 9271  -0.252   1.220   7.090 -0.3634  0.5243 -0.3626
   94SAPS  H13R 9272  -0.330   1.288   7.129 -2.0160 -0.1619 -2.2607
   94SAPS  H13S 9273  -0.156   1.233   7.143  0.5655 -3.2611 -0.7745
   94SAPS  C214 9274  -0.302   1.076   7.114 -0.2989  0.2598  0.6659
   94SAPS  H14R 9275  -0.347   1.030   7.024  0.9759  2.9120 -1.4954
   94SAPS  C215 9276  -0.284   1.005   7.223 -0.0118 -0.0551  0.1077
   94SAPS  H15R 9277  -0.320   0.901   7.217 -0.4358  0.1205 -0.4399
   94SAPS  C216 9278  -0.230   1.057   7.351  0.2217 -0.1838 -0.4845
   94SAPS  H16R 9279  -0.166   1.145   7.330 -0.3418  0.1182 -0.9599
   94SAPS  H16S 9280  -0.157   0.981   7.386  0.0353 -1.3123 -2.4059
   94SAPS  C217 9281  -0.343   1.094   7.454  0.5094 -0.3833 -0.3032
   94SAPS  H17R 9282  -0.400   1.000   7.466  0.0530 -0.1335 -0.4765
   94SAPS  H17S 9283  -0.421   1.168   7.425 -0.1099 -1.0857 -0.4767
   94SAPS  C218 9284  -0.288   1.130   7.588  0.2174 -0.4000 -0.2301
   94SAPS  H18R 9285  -0.368   1.178   7.649  0.1915  1.4110 -1.5805
   94SAPS  H18S 9286  -0.216   1.210   7.562 -0.0392  0.4150  1.4184
   94SAPS  C219 9287  -0.227   1.006   7.664 -0.1453  0.4407  0.1359
   94SAPS  H19R 9288  -0.135   0.970   7.613 -0.2781  0.5166 -0.1540
   94SAPS  H19S 9289  -0.300   0.922   7.667 -1.0786  1.1847 -0.9072
   94SAPS  C220 9290  -0.182   1.041   7.808  0.9462 -0.0402 -0.0366
   94SAPS  H20R 9291  -0.098   0.978   7.843  1.3671  0.8297  0.5564
   94SAPS  H20S 9292  -0.262   1.017   7.882  0.0264  2.1098 -0.2562
   94SAPS  H20T 9293  -0.169   1.149   7.829  2.7635 -0.4187  1.0127
   94SAPS   C33 9294   0.430   0.617   6.603 -0.1548  0.1012 -0.5445
   94SAPS   H3X 9295   0.464   0.515   6.577 -0.6392  0.2996 -2.0749
   94SAPS   H3Y 9296   0.322   0.619   6.632  0.1854 -0.4928  0.8507
   94SAPS   C34 9297   0.485   0.653   6.741  0.1901 -0.5503 -0.0545
   94SAPS   H4X 9298   0.445   0.756   6.755  3.0135  0.8338 -1.1963
   94SAPS   H4Y 9299   0.596   0.667   6.742  0.1532 -0.0611 -1.2033
   94SAPS   C35 9300   0.444   0.552   6.852 -0.0624 -0.6887  0.2087
   94SAPS   H5X 9301   0.489   0.450   6.856  2.2959  0.2519 -0.2024
   94SAPS   H5Y 9302   0.337   0.526   6.844  0.1354 -1.7535  0.7488
   94SAPS   C36 9303   0.471   0.606   6.993 -0.0450 -0.0424 -0.3443
   94SAPS   H6X 9304   0.424   0.705   7.013 -1.0202 -0.8689  1.6726
   94SAPS   H6Y 9305   0.581   0.620   6.999  0.1473 -1.4152 -0.3984
   94SAPS   C37 9306   0.432   0.511   7.105 -0.3094  0.2351 -0.5740
   94SAPS   H7X 9307   0.471   0.410   7.081 -1.5866  0.1162 -2.3926
   94SAPS   H7Y 9308   0.322   0.515   7.114 -0.2391 -0.5677  0.8754
   94SAPS   C38 9309   0.495   0.537   7.242  0.1193  0.1968  0.2902
   94SAPS   H8X 9310   0.468   0.637   7.281  0.6141  0.8848 -1.0671
   94SAPS   H8Y 9311   0.606   0.527   7.231  0.0017  0.0464 -0.8676
   94SAPS   C39 9312   0.450   0.439   7.360  0.1697 -0.2531  0.4771
   94SAPS   H9X 9313   0.495   0.340   7.337 -2.7210 -1.0848 -2.3506
   94SAPS   H9Y 9314   0.339   0.433   7.355 -0.0316  2.5484 -0.4167
   94SAPS  C310 9315   0.476   0.495   7.503 -0.2802  0.6747  0.1300
   94SAPS  H10X 9316   0.418   0.432   7.574  0.7909  1.6323  1.9389
   94SAPS  H10Y 9317   0.433   0.598   7.511 -4.2270 -0.8834  1.5584
   94SAPS  C311 9318   0.624   0.509   7.542  0.0747  0.1728  0.0685
   94SAPS  H11X 9319   0.675   0.563   7.460  0.6246  0.7336  0.7585
   94SAPS  H11Y 9320   0.664   0.406   7.548  1.2164  0.6178  0.3108
   94SAPS  C312 9321   0.643   0.589   7.669 -0.6823  0.8724 -0.4772
   94SAPS  H12X 9322   0.562   0.664   7.676 -0.8632  0.8459 -2.1228
   94SAPS  H12Y 9323   0.735   0.651   7.661 -0.1830  0.1513 -0.4360
   94SAPS  C313 9324   0.662   0.501   7.796  0.1349 -0.0521  0.2687
   94SAPS  H13X 9325   0.730   0.559   7.862  1.4326 -0.5593 -0.5565
   94SAPS  H13Y 9326   0.710   0.402   7.777 -2.3809 -1.7474  2.1312
   94SAPS  C314 9327   0.531   0.485   7.873  0.5439 -0.6091 -0.0226
   94SAPS  H14X 9328   0.451   0.437   7.812  0.8796 -0.9542 -0.1919
   94SAPS  H14Y 9329   0.496   0.587   7.901  0.7445 -0.3219 -0.7961
   94SAPS  C315 9330   0.532   0.408   8.010 -0.1064  0.1836  1.1810
   94SAPS  H15X 9331   0.629   0.433   8.056  1.5484  0.7825 -2.3152
   94SAPS  H15Y 9332   0.534   0.300   7.984  1.8356  0.2909  0.7884
   94SAPS  C316 9333   0.419   0.444   8.102  0.0512  0.4632  0.0349
   94SAPS  H16X 9334   0.321   0.427   8.052 -0.1655  1.4666  0.1147
   94SAPS  H16Y 9335   0.424   0.552   8.125 -2.0840  1.0435 -1.9424
   94SAPS  C317 9336   0.419   0.375   8.244  0.0200  0.1261  0.0872
   94SAPS  H17X 9337   0.344   0.435   8.301 -0.0054  0.7340 -0.5781
   94SAPS  H17Y 9338   0.519   0.404   8.281  1.2223  0.4563 -3.1351
   94SAPS  C318 9339   0.411   0.224   8.245  0.0058  0.3740 -0.6385
   94SAPS  H18X 9340   0.407   0.176   8.345 -1.1844 -0.1458 -0.9090
   94SAPS  H18Y 9341   0.501   0.195   8.186 -0.9603  1.5905 -2.8599
   94SAPS  H18Z 9342   0.321   0.190   8.188 -0.6725 -0.2713  0.7836
   95SAPS     N 9343   3.269   5.890   5.896 -0.0168  0.1960 -0.0712
   95SAPS   HN1 9344   3.217   5.962   5.950 -0.3658 -0.6817  0.7635
   95SAPS   HN2 9345   3.357   5.876   5.950  1.0950 -0.0780 -1.8486
   95SAPS   HN3 9346   3.297   5.929   5.803 -1.4866 -0.9808 -1.0473
   95SAPS   C12 9347   3.205   5.755   5.892  0.0426  0.3811  0.3534
   95SAPS  H12A 9348   3.123   5.751   5.821  0.2880  0.5340  0.0587
   95SAPS   C13 9349   3.312   5.646   5.837  0.5552 -0.9706  0.2162
   95SAPS  O13A 9350   3.422   5.686   5.794 -0.2029  0.5527  0.0341
   95SAPS  O13B 9351   3.259   5.538   5.818  0.3140 -0.2878  0.3070
   95SAPS   C11 9352   3.158   5.714   6.036  0.0076  0.2306 -0.7990
   95SAPS  H11A 9353   3.245   5.690   6.101 -0.0143  0.4204 -0.6970
   95SAPS  H11B 9354   3.103   5.622   6.010 -0.9518  0.8900 -1.1679
   95SAPS     P 9355   2.950   5.744   6.191  0.5565 -0.2327 -0.3939
   95SAPS   O13 9356   2.896   5.867   6.261 -0.0084  0.4864  0.4016
   95SAPS   O14 9357   2.856   5.657   6.122  0.1620 -0.2795 -0.6064
   95SAPS   O12 9358   3.065   5.804   6.101 -0.1099  0.3823  0.3141
   95SAPS   O11 9359   3.025   5.658   6.294 -0.4256  0.1726  0.1759
   95SAPS    C1 9360   3.099   5.722   6.404  0.3939 -0.8392 -0.1169
   95SAPS    HA 9361   3.194   5.757   6.359  0.3616  1.3276  1.3739
   95SAPS    HB 9362   3.042   5.808   6.446  0.9319 -0.7785  0.5130
   95SAPS    C2 9363   3.127   5.635   6.531  0.1731  0.2710 -0.4359
   95SAPS    HS 9364   3.192   5.691   6.601  1.6439 -3.0127  1.0662
   95SAPS   O21 9365   3.192   5.520   6.484 -0.3872  0.5595  0.2916
   95SAPS   C21 9366   3.284   5.468   6.558  0.8152  0.3015  0.6770
   95SAPS   O22 9367   3.318   5.514   6.666 -0.4312  0.4909  0.2688
   95SAPS   C22 9368   3.336   5.339   6.489 -0.0379 -0.2841 -0.0478
   95SAPS   H2R 9369   3.252   5.287   6.439 -1.1605  0.4160  1.0596
   95SAPS   H2S 9370   3.402   5.386   6.413 -0.7531  2.1551  0.7485
   95SAPS    C3 9371   2.992   5.590   6.604 -0.5190 -0.1608 -0.0208
   95SAPS    HX 9372   2.928   5.529   6.537  0.9499  0.3092 -1.9786
   95SAPS    HY 9373   2.941   5.684   6.632 -1.8787 -1.2649  1.3879
   95SAPS   O31 9374   3.023   5.506   6.719  0.2937  0.0223  0.2279
   95SAPS   C31 9375   3.050   5.573   6.825 -0.4976 -0.7296  0.2762
   95SAPS   O32 9376   3.045   5.697   6.833 -0.2683 -0.1448 -0.3455
   95SAPS   C32 9377   3.098   5.475   6.936  0.0937  0.2308 -0.1699
   95SAPS   H2X 9378   3.209   5.476   6.939  0.2167  0.1362 -2.4244
   95SAPS   H2Y 9379   3.045   5.380   6.915 -0.9834  0.6154  0.6829
   95SAPS   C23 9380   3.405   5.236   6.580 -0.1803 -0.4749  0.3638
   95SAPS   H3R 9381   3.474   5.293   6.646 -1.5366  1.0361  0.5475
   95SAPS   H3S 9382   3.460   5.170   6.509  1.2389  0.9168  0.0917
   95SAPS   C24 9383   3.309   5.158   6.666 -0.3842  0.3691 -0.6395
   95SAPS   H4R 9384   3.243   5.117   6.587 -0.8979  3.6864 -2.0989
   95SAPS   H4S 9385   3.249   5.221   6.736 -1.2160 -0.3673 -0.6789
   95SAPS   C25 9386   3.389   5.043   6.731 -0.1268  1.0451  0.0978
   95SAPS   H5R 9387   3.485   5.020   6.682  0.4451  2.8792  0.2883
   95SAPS   C26 9388   3.350   4.979   6.846 -0.2680 -0.2527  0.7168
   95SAPS   H6R 9389   3.416   4.894   6.871  2.7809  1.8284  0.3276
   95SAPS   C27 9390   3.230   5.012   6.931 -0.1138  0.1239  0.0499
   95SAPS   H7R 9391   3.165   5.077   6.869  0.2024  0.0484 -0.3697
   95SAPS   H7S 9392   3.253   5.065   7.026 -0.3353 -2.1886  1.4847
   95SAPS   C28 9393   3.137   4.892   6.964 -0.0772  0.2300 -0.3776
   95SAPS   H8R 9394   3.085   4.834   6.886 -1.0328 -1.0622  1.1559
   95SAPS   C29 9395   3.116   4.851   7.090  0.3011 -0.2997 -0.4066
   95SAPS   H9R 9396   3.037   4.775   7.103  1.0227 -1.1615 -0.9708
   95SAPS  C210 9397   3.160   4.907   7.223  0.3454  0.1312 -0.8963
   95SAPS  H10R 9398   3.094   4.853   7.294  3.1628  1.5259  3.1726
   95SAPS  H10S 9399   3.134   5.015   7.224 -2.9896 -0.5473 -1.9405
   95SAPS  C211 9400   3.294   4.874   7.278  0.0874 -0.4414  0.3630
   95SAPS  H11R 9401   3.335   4.800   7.208  0.6913 -0.8141  1.0965
   95SAPS  C212 9402   3.352   4.911   7.396 -0.5425 -0.7474 -0.2583
   95SAPS  H12R 9403   3.452   4.874   7.421 -1.1895 -1.9665  0.5854
   95SAPS  C213 9404   3.290   5.007   7.495 -0.1890 -0.0465 -0.9804
   95SAPS  H13R 9405   3.238   4.936   7.562  0.2116 -1.2793 -1.9383
   95SAPS  H13S 9406   3.198   5.054   7.452 -0.7439 -1.0251 -0.9077
   95SAPS  C214 9407   3.371   5.110   7.573  0.6062 -0.2308  0.1022
   95SAPS  H14R 9408   3.330   5.115   7.674 -0.4408 -3.2738 -0.0502
   95SAPS  C215 9409   3.477   5.184   7.540  0.8966  0.4101 -0.4989
   95SAPS  H15R 9410   3.517   5.245   7.622  0.8647 -1.4804  1.0004
   95SAPS  C216 9411   3.555   5.188   7.403 -0.7276  0.0416 -0.7433
   95SAPS  H16R 9412   3.565   5.085   7.363 -1.3486  0.6244 -2.5110
   95SAPS  H16S 9413   3.657   5.229   7.422 -1.3511  0.8056  1.2489
   95SAPS  C217 9414   3.486   5.268   7.293 -0.5880 -0.4082 -0.3469
   95SAPS  H17R 9415   3.471   5.374   7.324  0.6342 -0.6607  1.2716
   95SAPS  H17S 9416   3.390   5.212   7.282 -0.2601 -0.7768 -1.4244
   95SAPS  C218 9417   3.571   5.262   7.167 -0.5848  1.1404  0.8593
   95SAPS  H18R 9418   3.603   5.157   7.152  2.0278  2.1077 -1.2566
   95SAPS  H18S 9419   3.668   5.312   7.184  1.0019 -0.5489 -2.2706
   95SAPS  C219 9420   3.495   5.314   7.052  0.3872  0.0981 -0.0659
   95SAPS  H19R 9421   3.479   5.422   7.072  0.8158  0.3549 -1.0461
   95SAPS  H19S 9422   3.397   5.264   7.044  0.9850 -1.2644  0.8065
   95SAPS  C220 9423   3.574   5.291   6.926 -0.1875 -0.1386 -0.0301
   95SAPS  H20R 9424   3.525   5.344   6.841  1.3190  1.8741  0.2907
   95SAPS  H20S 9425   3.598   5.183   6.912 -0.1307 -0.2455  0.8768
   95SAPS  H20T 9426   3.671   5.344   6.932 -0.3738  0.0650  1.6668
   95SAPS   C33 9427   3.042   5.521   7.079  0.5864  0.0754  0.6142
   95SAPS   H3X 9428   2.931   5.522   7.073  0.5646  0.7714  1.0714
   95SAPS   H3Y 9429   3.079   5.623   7.101 -0.5968  0.1507  2.3866
   95SAPS   C34 9430   3.088   5.419   7.181  0.6575  0.6292 -0.3043
   95SAPS   H4X 9431   3.199   5.417   7.184  0.6412 -1.9688  1.4629
   95SAPS   H4Y 9432   3.066   5.315   7.148  0.2482 -0.3486  2.7449
   95SAPS   C35 9433   3.042   5.441   7.325  0.3681  0.4912 -0.7835
   95SAPS   H5X 9434   2.931   5.447   7.335  0.4297 -0.9142  1.6518
   95SAPS   H5Y 9435   3.087   5.532   7.369  1.8979 -0.7053  0.2397
   95SAPS   C36 9436   3.089   5.324   7.419  0.6988  0.4170  0.6422
   95SAPS   H6X 9437   3.200   5.336   7.422  0.9725 -1.9134  1.2051
   95SAPS   H6Y 9438   3.062   5.231   7.366  1.0574  0.3109  0.6375
   95SAPS   C37 9439   3.020   5.357   7.553  0.0842 -0.1436 -1.1194
   95SAPS   H7X 9440   2.910   5.346   7.543  0.2819 -1.5228 -2.1425
   95SAPS   H7Y 9441   3.035   5.465   7.570 -1.1459 -0.0775 -0.3405
   95SAPS   C38 9442   3.087   5.288   7.670 -0.2891  0.1854 -0.3227
   95SAPS   H8X 9443   3.194   5.316   7.654 -0.5657  0.5844 -1.6346
   95SAPS   H8Y 9444   3.081   5.177   7.665  1.9919  0.0366 -1.5755
   95SAPS   C39 9445   3.033   5.343   7.808 -0.9285  0.5280  0.8714
   95SAPS   H9X 9446   3.014   5.452   7.805  1.5083  0.9709 -1.0704
   95SAPS   H9Y 9447   3.116   5.322   7.879  0.3930  1.9931 -0.1749
   95SAPS  C310 9448   2.915   5.260   7.859 -0.5661 -1.2110  0.3319
   95SAPS  H10X 9449   2.941   5.152   7.855 -0.9668 -1.3022 -3.4349
   95SAPS  H10Y 9450   2.837   5.276   7.782  0.9132  1.8501 -0.6946
   95SAPS  C311 9451   2.856   5.306   7.987 -0.6755 -0.5018 -0.1469
   95SAPS  H11X 9452   2.760   5.259   8.015 -0.7858 -0.7429 -0.9133
   95SAPS  H11Y 9453   2.828   5.414   7.992  0.0193 -0.3350  0.3670
   95SAPS  C312 9454   2.967   5.289   8.089  0.4199 -0.3898 -0.3524
   95SAPS  H12X 9455   3.016   5.386   8.112  0.9765 -0.6049 -0.6013
   95SAPS  H12Y 9456   3.046   5.216   8.059 -1.3091 -1.7018 -1.9257
   95SAPS  C313 9457   2.894   5.258   8.224  0.3084  0.2499  0.6849
   95SAPS  H13X 9458   2.870   5.150   8.216 -1.8202  0.4947  2.5171
   95SAPS  H13Y 9459   2.805   5.325   8.231  1.7391  2.5624 -1.5339
   95SAPS  C314 9460   2.981   5.277   8.345 -0.1946  0.0975 -0.3323
   95SAPS  H14X 9461   3.009   5.383   8.363  0.0717  0.2643 -1.6370
   95SAPS  H14Y 9462   3.081   5.229   8.343  0.2828  0.8856  1.5347
   95SAPS  C315 9463   2.915   5.236   8.476  0.0711  0.2040 -0.1947
   95SAPS  H15X 9464   2.902   5.126   8.472  0.4387  0.1948 -1.8077
   95SAPS  H15Y 9465   2.813   5.280   8.485 -0.1720 -0.6736  2.2982
   95SAPS  C316 9466   2.990   5.272   8.605  0.2900 -0.0414 -0.0386
   95SAPS  H16X 9467   3.012   5.379   8.587 -0.3462  0.4403  1.7609
   95SAPS  H16Y 9468   3.078   5.207   8.621 -1.3645 -2.3785  0.1266
   95SAPS  C317 9469   2.895   5.278   8.735 -0.3792 -0.6351  0.3480
   95SAPS  H17X 9470   2.814   5.352   8.712  0.8219  0.8283  0.6513
   95SAPS  H17Y 9471   2.951   5.315   8.824  0.2054 -2.2326  0.6818
   95SAPS  C318 9472   2.840   5.137   8.776 -0.4124  0.0908  0.3328
   95SAPS  H18X 9473   2.753   5.115   8.710  1.0275  0.6789 -1.8764
   95SAPS  H18Y 9474   2.804   5.133   8.881 -2.2568  0.1015 -0.2598
   95SAPS  H18Z 9475   2.919   5.061   8.754  0.1438 -0.1119  2.7527
   96SAPS     N 9476   3.628   0.668   6.242  0.1893 -0.3978 -0.4581
   96SAPS   HN1 9477   3.561   0.745   6.262  0.9022  0.0639  0.1956
   96SAPS   HN2 9478   3.582   0.591   6.190 -1.6044 -0.1819  0.7178
   96SAPS   HN3 9479   3.649   0.622   6.333 -0.4163 -0.1643 -0.1975
   96SAPS   C12 9480   3.755   0.714   6.173  0.0754  0.2214  0.2749
   96SAPS  H12A 9481   3.724   0.772   6.087 -1.1836 -0.9767 -0.1237
   96SAPS   C13 9482   3.841   0.804   6.257 -0.1240 -0.8321  0.2071
   96SAPS  O13A 9483   3.798   0.851   6.366 -0.5509  0.0116  0.2091
   96SAPS  O13B 9484   3.941   0.859   6.197 -0.0068 -0.0075 -0.9488
   96SAPS   C11 9485   3.826   0.589   6.127 -0.0341 -0.2066  0.0677
   96SAPS  H11A 9486   3.906   0.611   6.054  0.7461  0.7273  1.1683
   96SAPS  H11B 9487   3.754   0.522   6.076  0.6255 -0.5428 -0.4395
   96SAPS     P 9488   3.988   0.398   6.196  0.3062  0.5068  0.3622
   96SAPS   O13 9489   3.918   0.267   6.224 -0.4308  0.0030 -0.1879
   96SAPS   O14 9490   4.042   0.416   6.059 -0.1752 -0.1265 -0.0323
   96SAPS   O12 9491   3.880   0.510   6.234  0.1831 -1.0567  0.3181
   96SAPS   O11 9492   4.098   0.432   6.296  0.4326  0.2082 -0.6672
   96SAPS    C1 9493   4.133   0.563   6.342 -0.2225  0.6332 -0.0917
   96SAPS    HA 9494   4.243   0.572   6.343  0.0580 -1.7691 -1.6432
   96SAPS    HB 9495   4.093   0.637   6.269 -0.3501 -0.1484 -0.8311
   96SAPS    C2 9496   4.075   0.592   6.484  0.4266 -0.4045 -0.2422
   96SAPS    HS 9497   4.007   0.680   6.478  0.1346 -0.3172  2.9078
   96SAPS   O21 9498   4.193   0.612   6.564 -0.3982 -0.5268  0.3873
   96SAPS   C21 9499   4.215   0.745   6.593  0.6104  0.0735 -0.8716
   96SAPS   O22 9500   4.155   0.839   6.547 -0.3638 -0.2378  0.4351
   96SAPS   C22 9501   4.325   0.761   6.704 -0.1688 -0.3733  0.0383
   96SAPS   H2R 9502   4.327   0.866   6.739  1.3760 -0.5308  0.5153
   96SAPS   H2S 9503   4.300   0.694   6.789  1.5242  0.0962  0.9425
   96SAPS    C3 9504   3.987   0.487   6.539 -0.7744  0.1227 -1.0639
   96SAPS    HX 9505   4.032   0.386   6.531 -1.9635 -0.3697 -1.8260
   96SAPS    HY 9506   3.892   0.480   6.483 -1.9570 -0.0659  0.8700
   96SAPS   O31 9507   3.980   0.514   6.680  0.2221  0.0597 -0.8218
   96SAPS   C31 9508   3.861   0.524   6.741  0.3267 -0.4366  0.1665
   96SAPS   O32 9509   3.753   0.497   6.688  0.0318  0.3052  0.0179
   96SAPS   C32 9510   3.872   0.575   6.888  0.3403  0.8564 -0.2103
   96SAPS   H2X 9511   3.876   0.482   6.948 -0.6160  1.4238  0.7760
   96SAPS   H2Y 9512   3.782   0.630   6.925  0.2517  0.6064 -0.0534
   96SAPS   C23 9513   4.467   0.726   6.651 -0.1655 -0.4088 -0.0576
   96SAPS   H3R 9514   4.507   0.808   6.587  0.4566 -0.5645  0.1177
   96SAPS   H3S 9515   4.463   0.640   6.580 -1.1072  0.2326 -0.8046
   96SAPS   C24 9516   4.561   0.695   6.767  0.1081 -0.6473  0.5485
   96SAPS   H4R 9517   4.648   0.634   6.734 -0.9193 -0.8485 -2.0011
   96SAPS   H4S 9518   4.503   0.631   6.837  0.5470 -0.3675  1.1759
   96SAPS   C25 9519   4.599   0.823   6.830  0.1150  0.1951 -0.2041
   96SAPS   H5R 9520   4.616   0.901   6.755  0.2656 -0.2441 -0.6312
   96SAPS   C26 9521   4.616   0.853   6.958 -0.2382 -0.3729  0.2968
   96SAPS   H6R 9522   4.640   0.958   6.981 -0.3225  0.2736 -2.2020
   96SAPS   C27 9523   4.603   0.760   7.071  0.3438 -0.3371 -0.1624
   96SAPS   H7R 9524   4.671   0.802   7.148  0.7452  2.5257 -1.9168
   96SAPS   H7S 9525   4.638   0.657   7.044  0.1871 -0.2968 -0.5319
   96SAPS   C28 9526   4.461   0.765   7.121 -0.0421 -0.1618 -1.0455
   96SAPS   H8R 9527   4.385   0.740   7.046 -1.8279  2.7953 -0.3304
   96SAPS   C29 9528   4.437   0.757   7.253 -0.5302 -0.0418 -0.3397
   96SAPS   H9R 9529   4.331   0.762   7.284 -0.6448  1.1316 -0.8874
   96SAPS  C210 9530   4.540   0.759   7.370  0.4289 -0.2616 -0.0671
   96SAPS  H10R 9531   4.642   0.724   7.342 -0.0614 -1.2692 -0.6227
   96SAPS  H10S 9532   4.504   0.697   7.454 -1.0770  1.8037  0.8846
   96SAPS  C211 9533   4.553   0.903   7.420 -0.3417 -0.2032 -0.7599
   96SAPS  H11R 9534   4.564   0.987   7.350 -1.9461  1.0558  0.4204
   96SAPS  C212 9535   4.552   0.947   7.550  0.0986  0.2102  0.0351
   96SAPS  H12R 9536   4.574   1.053   7.570 -1.4300  0.6053 -0.2266
   96SAPS  C213 9537   4.533   0.862   7.679 -0.0306 -0.4960  0.1556
   96SAPS  H13R 9538   4.487   0.767   7.644 -1.0307  0.5413 -1.5156
   96SAPS  H13S 9539   4.451   0.922   7.725  2.1666  1.4325  1.7885
   96SAPS  C214 9540   4.630   0.851   7.789 -0.1740  0.8755 -0.1412
   96SAPS  H14R 9541   4.674   0.751   7.804 -3.1223 -0.3869  0.8457
   96SAPS  C215 9542   4.668   0.947   7.875 -0.9006  0.2373 -0.3856
   96SAPS  H15R 9543   4.737   0.927   7.959  0.7978  1.9924 -1.2779
   96SAPS  C216 9544   4.601   1.081   7.875 -0.9036  0.5962  0.1142
   96SAPS  H16R 9545   4.563   1.116   7.776 -0.5578  2.8894  0.7277
   96SAPS  H16S 9546   4.674   1.162   7.897  0.4780  0.1259 -2.4071
   96SAPS  C217 9547   4.497   1.101   7.981  0.6194 -0.2694 -0.1810
   96SAPS  H17R 9548   4.414   1.032   7.956  1.6345 -2.7361  2.7058
   96SAPS  H17S 9549   4.456   1.205   7.981  0.3361 -0.3746 -0.8089
   96SAPS  C218 9550   4.546   1.080   8.125  0.7916 -0.2744 -0.4914
   96SAPS  H18R 9551   4.622   1.154   8.158  0.7825  0.0568 -1.2039
   96SAPS  H18S 9552   4.610   0.990   8.134  0.3306 -0.6330 -0.7613
   96SAPS  C219 9553   4.425   1.072   8.218  0.4932 -0.0490  0.0662
   96SAPS  H19R 9554   4.352   0.997   8.181 -1.1516 -0.0725  3.0736
   96SAPS  H19S 9555   4.376   1.172   8.215 -2.5436 -1.3883  1.3841
   96SAPS  C220 9556   4.460   1.029   8.366 -0.3140 -0.3122 -0.4786
   96SAPS  H20R 9557   4.513   1.121   8.398 -0.8188  0.2340 -1.1731
   96SAPS  H20S 9558   4.516   0.934   8.380 -0.7613 -0.5783 -0.4556
   96SAPS  H20T 9559   4.364   1.012   8.420 -0.1013 -0.1161 -0.0421
   96SAPS   C33 9560   3.987   0.674   6.920  0.5584  0.6657 -0.2114
   96SAPS   H3X 9561   3.993   0.770   6.863  0.4687  1.0724  0.4600
   96SAPS   H3Y 9562   4.083   0.620   6.916  0.1787 -0.0271 -0.1084
   96SAPS   C34 9563   3.976   0.724   7.070 -0.2502 -0.0040  0.1619
   96SAPS   H4X 9564   3.973   0.634   7.134 -0.5065 -1.1969 -1.4561
   96SAPS   H4Y 9565   3.881   0.780   7.080 -0.5292 -0.2120 -1.1266
   96SAPS   C35 9566   4.093   0.809   7.117 -0.5057 -0.1488 -0.0943
   96SAPS   H5X 9567   4.108   0.905   7.062 -0.0616  0.2500  0.7018
   96SAPS   H5Y 9568   4.181   0.743   7.110 -1.1213 -0.9728 -0.1661
   96SAPS   C36 9569   4.076   0.850   7.265 -0.0685  0.1473  0.9134
   96SAPS   H6X 9570   3.983   0.911   7.276  0.6686  1.5445 -0.3006
   96SAPS   H6Y 9571   4.156   0.917   7.302  0.0416  1.6137 -1.7211
   96SAPS   C37 9572   4.071   0.732   7.360  0.1159  0.0616 -0.3620
   96SAPS   H7X 9573   4.164   0.670   7.366 -0.2781 -0.4667  0.4512
   96SAPS   H7Y 9574   3.984   0.666   7.341 -0.5618  0.4652  1.1965
   96SAPS   C38 9575   4.066   0.786   7.507  0.5511 -0.1269 -0.1119
   96SAPS   H8X 9576   4.168   0.816   7.540 -0.0768 -1.1965  3.1433
   96SAPS   H8Y 9577   4.029   0.703   7.571  0.9550 -0.0988  0.1615
   96SAPS   C39 9578   3.963   0.894   7.531  0.1528  0.4483 -0.1363
   96SAPS   H9X 9579   3.872   0.876   7.469  0.4111  1.4308 -0.8268
   96SAPS   H9Y 9580   4.000   0.983   7.475 -0.0316  0.6236  0.0183
   96SAPS  C310 9581   3.923   0.934   7.674 -0.1556  1.1236  0.3512
   96SAPS  H10X 9582   3.848   1.014   7.663 -0.9444  0.8629  3.1070
   96SAPS  H10Y 9583   4.009   0.984   7.724 -0.3726  1.5043  0.3424
   96SAPS  C311 9584   3.876   0.815   7.762 -0.3256 -0.0229 -0.4328
   96SAPS  H11X 9585   3.963   0.759   7.802 -1.2400 -0.9597  0.3194
   96SAPS  H11Y 9586   3.794   0.757   7.714  0.4121  0.3003 -2.1178
   96SAPS  C312 9587   3.819   0.858   7.901  0.4320  0.1087  0.3545
   96SAPS  H12X 9588   3.709   0.860   7.891  0.2320 -0.7581  2.1134
   96SAPS  H12Y 9589   3.843   0.962   7.932 -2.6925  0.3465  2.4224
   96SAPS  C313 9590   3.854   0.746   8.004 -0.2541 -0.0664 -0.4913
   96SAPS  H13X 9591   3.963   0.758   8.023 -0.6182  1.1913  1.0298
   96SAPS  H13Y 9592   3.826   0.649   7.958 -0.3259 -0.5700  0.5748
   96SAPS  C314 9593   3.768   0.770   8.133 -0.1846  0.5290 -0.3368
   96SAPS  H14X 9594   3.663   0.798   8.108 -1.0110 -1.8991  0.1028
   96SAPS  H14Y 9595   3.818   0.847   8.195 -0.0149 -0.7722  1.1834
   96SAPS  C315 9596   3.750   0.643   8.224 -0.0054 -0.3851 -0.1529
   96SAPS  H15X 9597   3.681   0.568   8.180 -0.7110  0.1452  0.0381
   96SAPS  H15Y 9598   3.711   0.679   8.321  1.2379 -2.1621  1.0796
   96SAPS  C316 9599   3.886   0.572   8.263  0.5571 -0.6321  0.6314
   96SAPS  H16X 9600   3.940   0.555   8.168 -1.0746  1.3140 -0.7238
   96SAPS  H16Y 9601   3.867   0.471   8.306 -0.2661  0.6882  3.6983
   96SAPS  C317 9602   3.970   0.643   8.369  0.2686 -0.2234 -0.4173
   96SAPS  H17X 9603   3.907   0.697   8.444 -1.8047  0.5427 -2.5866
   96SAPS  H17Y 9604   4.031   0.724   8.322  0.6788 -1.3322 -1.8612
   96SAPS  C318 9605   4.059   0.553   8.453 -0.6351 -0.4636 -0.1643
   96SAPS  H18X 9606   4.004   0.475   8.509 -0.5818 -0.2280  0.2193
   96SAPS  H18Y 9607   4.106   0.621   8.527 -1.7350  0.6156 -0.4076
   96SAPS  H18Z 9608   4.127   0.511   8.376  1.0840  1.0882  0.4115
   97SAPS     N 9609   6.467   5.312   6.126 -0.3794  0.0803  0.4916
   97SAPS   HN1 9610   6.421   5.329   6.034  2.0521  1.8589 -0.4919
   97SAPS   HN2 9611   6.543   5.380   6.145  0.4731 -1.0740  1.3420
   97SAPS   HN3 9612   6.514   5.219   6.122  0.1859  0.1904  3.0569
   97SAPS   C12 9613   6.364   5.308   6.232 -0.4501  0.6592 -0.7531
   97SAPS  H12A 9614   6.415   5.293   6.326 -1.4573 -2.1874 -0.5861
   97SAPS   C13 9615   6.297   5.438   6.254 -1.1855 -0.2932 -0.1177
   97SAPS  O13A 9616   6.307   5.531   6.169  0.6002  0.1362 -0.3764
   97SAPS  O13B 9617   6.252   5.461   6.365  0.1916 -0.0066 -0.0444
   97SAPS   C11 9618   6.252   5.204   6.196  0.1649 -0.0329  0.0588
   97SAPS  H11A 9619   6.215   5.228   6.094  0.8852 -0.3966 -0.2949
   97SAPS  H11B 9620   6.171   5.209   6.272 -1.3856  0.9033 -1.5655
   97SAPS     P 9621   6.337   4.992   6.336  0.3383  0.1798 -0.1430
   97SAPS   O13 9622   6.292   4.850   6.318  0.3294 -1.0162  0.4208
   97SAPS   O14 9623   6.474   5.017   6.381  0.3084  0.4483 -0.4174
   97SAPS   O12 9624   6.310   5.071   6.198  0.3102  0.1291 -0.0495
   97SAPS   O11 9625   6.227   5.058   6.430  0.1331 -0.0563 -0.4352
   97SAPS    C1 9626   6.271   5.109   6.558  1.1972  0.0684 -0.7444
   97SAPS    HA 9627   6.381   5.126   6.563  1.6441 -2.2115 -1.8811
   97SAPS    HB 9628   6.234   5.214   6.567  0.6314 -0.0898 -1.1819
   97SAPS    C2 9629   6.223   5.024   6.675 -0.5283 -0.3299  0.2518
   97SAPS    HS 9630   6.183   4.936   6.620 -2.8063  0.3979  0.6757
   97SAPS   O21 9631   6.118   5.090   6.743  0.4321 -0.2375 -0.0662
   97SAPS   C21 9632   6.051   5.006   6.811  0.1116  0.4836 -0.2693
   97SAPS   O22 9633   6.055   4.884   6.807 -0.0563  0.8727  0.5789
   97SAPS   C22 9634   5.967   5.092   6.906  0.0403  0.3233  0.0417
   97SAPS   H2R 9635   6.036   5.163   6.956  1.1856 -1.6732  1.4666
   97SAPS   H2S 9636   5.887   5.137   6.844 -0.2893 -0.4422 -0.1080
   97SAPS    C3 9637   6.347   4.982   6.768 -0.1758 -0.4310  0.0617
   97SAPS    HX 9638   6.400   4.904   6.709  0.2276  0.2966 -0.5539
   97SAPS    HY 9639   6.308   4.934   6.860 -2.7055  0.6736 -0.3518
   97SAPS   O31 9640   6.432   5.095   6.797  0.1538 -0.7209 -0.1266
   97SAPS   C31 9641   6.553   5.075   6.850  0.5092  0.2824 -0.4374
   97SAPS   O32 9642   6.610   4.963   6.855  0.3809 -0.1347 -0.2266
   97SAPS   C32 9643   6.604   5.207   6.905  0.9382 -0.2380 -0.1692
   97SAPS   H2X 9644   6.527   5.230   6.981  1.4974 -1.8210  0.9294
   97SAPS   H2Y 9645   6.607   5.281   6.822 -0.1836  0.2969  0.2469
   97SAPS   C23 9646   5.917   5.006   7.025 -0.0562  0.0278 -0.0561
   97SAPS   H3R 9647   5.992   4.931   7.060 -0.1746 -0.5358 -0.9625
   97SAPS   H3S 9648   5.837   4.937   6.991  0.0161 -0.4424  0.7118
   97SAPS   C24 9649   5.872   5.096   7.145  0.1213 -0.8646  0.0587
   97SAPS   H4R 9650   5.779   5.147   7.110  2.5479  3.3588 -0.8915
   97SAPS   H4S 9651   5.944   5.180   7.141 -1.1127  0.2079 -1.3577
   97SAPS   C25 9652   5.854   5.039   7.284 -0.2078  0.3052  0.0832
   97SAPS   H5R 9653   5.759   4.984   7.290 -0.6247  1.1270  1.6651
   97SAPS   C26 9654   5.925   5.059   7.397 -0.4610  0.3382 -0.6148
   97SAPS   H6R 9655   5.894   5.001   7.485  0.4705 -2.7890 -2.2056
   97SAPS   C27 9656   6.056   5.138   7.401  0.5367 -0.6406  0.4728
   97SAPS   H7R 9657   6.053   5.237   7.452  1.3113  1.5545 -3.3453
   97SAPS   H7S 9658   6.077   5.165   7.295 -4.1297  1.2929 -0.2022
   97SAPS   C28 9659   6.162   5.047   7.451 -0.9827 -0.6054 -0.2286
   97SAPS   H8R 9660   6.166   5.027   7.559 -1.0539 -0.5528 -0.2164
   97SAPS   C29 9661   6.256   4.990   7.374  0.1925 -0.0775 -0.5808
   97SAPS   H9R 9662   6.310   4.904   7.416  1.6682  1.4053  0.7269
   97SAPS  C210 9663   6.266   4.993   7.223 -0.8956 -0.1656  0.1718
   97SAPS  H10R 9664   6.214   5.081   7.178 -0.7630  1.0815  2.3191
   97SAPS  H10S 9665   6.198   4.909   7.198  1.0388 -2.2679  1.5725
   97SAPS  C211 9666   6.403   4.981   7.156 -0.5591  0.2952 -0.0521
   97SAPS  H11R 9667   6.393   4.961   7.049 -0.0169 -1.7907  0.2453
   97SAPS  C212 9668   6.528   4.964   7.207  0.5759 -0.0067  0.2459
   97SAPS  H12R 9669   6.608   4.957   7.132  1.6048 -0.2866  1.3436
   97SAPS  C213 9670   6.581   4.947   7.347 -0.8535  0.7069  0.4420
   97SAPS  H13R 9671   6.654   4.867   7.324  1.9477  3.2527 -0.1464
   97SAPS  H13S 9672   6.502   4.901   7.410 -0.9318 -1.1490 -0.9355
   97SAPS  C214 9673   6.649   5.069   7.414 -0.2669 -0.0668  0.2830
   97SAPS  H14R 9674   6.659   5.158   7.352  2.7069  0.7043  1.6372
   97SAPS  C215 9675   6.677   5.072   7.545 -0.2223  0.4496  0.5862
   97SAPS  H15R 9676   6.699   5.170   7.590 -0.3561 -0.0905  1.8704
   97SAPS  C216 9677   6.667   4.960   7.641 -0.9469  0.9956  0.0602
   97SAPS  H16R 9678   6.753   4.955   7.711 -1.1176  0.3641  0.2364
   97SAPS  H16S 9679   6.670   4.865   7.583 -1.5177 -1.0177  3.0710
   97SAPS  C217 9680   6.548   4.981   7.736  0.2697 -0.5083  0.1441
   97SAPS  H17R 9681   6.461   4.989   7.668  1.3428  0.8943 -1.1677
   97SAPS  H17S 9682   6.554   5.078   7.790  0.4150  1.1200 -2.5741
   97SAPS  C218 9683   6.534   4.861   7.831  0.6904  0.1218  0.2611
   97SAPS  H18R 9684   6.629   4.844   7.886 -0.1833 -3.2282  0.9515
   97SAPS  H18S 9685   6.528   4.765   7.775  4.1329 -0.3165  0.4505
   97SAPS  C219 9686   6.405   4.869   7.925  0.3498  0.2284 -0.3168
   97SAPS  H19R 9687   6.388   4.769   7.969 -0.1304  0.5455  0.2326
   97SAPS  H19S 9688   6.316   4.903   7.868 -0.3621  0.7069  1.0375
   97SAPS  C220 9689   6.431   4.955   8.049 -0.1123  0.2368  0.5039
   97SAPS  H20R 9690   6.515   4.909   8.106  0.6066 -0.0307 -0.7304
   97SAPS  H20S 9691   6.345   4.952   8.119 -0.0597 -2.8726  0.5947
   97SAPS  H20T 9692   6.457   5.060   8.022  0.5763  0.1634  0.8652
   97SAPS   C33 9693   6.736   5.196   6.977  0.3872  0.4269 -0.3391
   97SAPS   H3X 9694   6.819   5.160   6.912  0.1695 -0.8288  0.0486
   97SAPS   H3Y 9695   6.721   5.121   7.058 -2.9369  1.0782 -0.2439
   97SAPS   C34 9696   6.770   5.327   7.043  0.1310  0.2803 -0.1517
   97SAPS   H4X 9697   6.695   5.374   7.109  0.2765 -0.0171  0.2327
   97SAPS   H4Y 9698   6.820   5.405   6.981  2.6862 -1.1152 -0.0170
   97SAPS   C35 9699   6.877   5.294   7.150  0.1993 -0.3250  0.1553
   97SAPS   H5X 9700   6.959   5.240   7.098  0.4193 -0.3212  0.4992
   97SAPS   H5Y 9701   6.823   5.226   7.219 -1.6501  1.6521  0.7465
   97SAPS   C36 9702   6.924   5.422   7.228  0.4940 -0.3592 -0.6316
   97SAPS   H6X 9703   6.837   5.491   7.236 -0.1182 -1.2261  0.4288
   97SAPS   H6Y 9704   7.006   5.471   7.171 -0.1348  2.2537  0.5883
   97SAPS   C37 9705   6.968   5.374   7.368  0.4736 -0.0042 -0.3432
   97SAPS   H7X 9706   7.061   5.314   7.357  1.7045  1.7102  0.2985
   97SAPS   H7Y 9707   6.885   5.322   7.421  1.4451  1.3899  2.7407
   97SAPS   C38 9708   6.976   5.490   7.468  0.3274 -0.3958 -0.4371
   97SAPS   H8X 9709   6.870   5.521   7.484 -0.0666 -1.7888 -0.1689
   97SAPS   H8Y 9710   7.020   5.577   7.416  0.5508 -0.7590 -0.8660
   97SAPS   C39 9711   7.046   5.447   7.601  0.0897  0.4300 -0.3772
   97SAPS   H9X 9712   7.059   5.524   7.680  3.2141 -0.0292 -0.3122
   97SAPS   H9Y 9713   7.149   5.420   7.569 -0.4559 -0.6446 -1.3055
   97SAPS  C310 9714   6.972   5.322   7.666 -0.6063 -0.6611  0.3266
   97SAPS  H10X 9715   7.008   5.229   7.617  1.1340 -0.0064  0.2929
   97SAPS  H10Y 9716   6.863   5.328   7.649 -0.3721 -0.0086 -1.1507
   97SAPS  C311 9717   6.999   5.300   7.816 -0.4949 -0.0453 -0.7708
   97SAPS  H11X 9718   6.958   5.389   7.867 -1.2101 -0.8842  0.1731
   97SAPS  H11Y 9719   7.106   5.289   7.845 -0.9078 -1.5611  0.2956
   97SAPS  C312 9720   6.924   5.172   7.869 -1.0158  1.0952 -0.7459
   97SAPS  H12X 9721   6.952   5.088   7.802 -0.1390  0.7720 -0.0008
   97SAPS  H12Y 9722   6.815   5.189   7.867 -1.0687  0.8108 -0.4423
   97SAPS  C313 9723   6.978   5.121   8.005  0.2849 -0.7541 -0.3380
   97SAPS  H13X 9724   7.087   5.140   8.007 -0.2251  2.9544  1.1283
   97SAPS  H13Y 9725   6.962   5.012   8.020  1.3976 -0.8964 -0.1598
   97SAPS  C314 9726   6.905   5.186   8.123  0.2850 -0.0366 -0.3989
   97SAPS  H14X 9727   6.809   5.131   8.133  1.1236 -1.3056  1.1211
   97SAPS  H14Y 9728   6.883   5.295   8.119 -0.3814 -0.1150  0.7780
   97SAPS  C315 9729   6.995   5.165   8.254  0.8725  0.2070  1.1507
   97SAPS  H15X 9730   6.960   5.235   8.333  2.2982  2.3241 -0.0125
   97SAPS  H15Y 9731   7.101   5.189   8.229  0.1964  1.0407 -1.1412
   97SAPS  C316 9732   6.985   5.023   8.300  0.4703 -0.2179 -0.0047
   97SAPS  H16X 9733   7.018   4.955   8.218 -0.1662 -1.1972  0.5191
   97SAPS  H16Y 9734   6.879   5.002   8.328  0.6398  1.4729  2.1521
   97SAPS  C317 9735   7.058   4.988   8.425 -0.3114  0.4336 -0.3752
   97SAPS  H17X 9736   7.022   5.040   8.516  0.5150 -0.1227  0.2923
   97SAPS  H17Y 9737   7.169   4.999   8.426  0.0256 -1.5244  3.4071
   97SAPS  C318 9738   7.024   4.840   8.458 -0.2823 -0.2375  0.6692
   97SAPS  H18X 9739   7.077   4.793   8.544  0.9413 -1.5436 -0.7513
   97SAPS  H18Y 9740   7.045   4.776   8.370 -0.6565 -0.1612  0.5244
   97SAPS  H18Z 9741   6.915   4.837   8.481  0.1412 -0.2328  2.8854
   98SAPS     N 9742   3.452   4.445   5.814 -0.2409  0.8096  0.3855
   98SAPS   HN1 9743   3.465   4.343   5.831 -0.0106  1.1445  2.3979
   98SAPS   HN2 9744   3.349   4.455   5.801 -0.0462  0.2808 -2.2482
   98SAPS   HN3 9745   3.500   4.479   5.728  4.3120 -0.9541  1.9368
   98SAPS   C12 9746   3.487   4.537   5.922 -0.7050  0.0694  0.1475
   98SAPS  H12A 9747   3.492   4.484   6.017  2.4065  1.5251  0.9334
   98SAPS   C13 9748   3.634   4.591   5.912  1.1959  0.1245  0.4661
   98SAPS  O13A 9749   3.702   4.584   5.806  0.2976  0.0033  0.0996
   98SAPS  O13B 9750   3.674   4.660   6.004 -0.1759 -0.2690  0.5815
   98SAPS   C11 9751   3.402   4.667   5.923  0.4933 -0.1400 -0.1237
   98SAPS  H11A 9752   3.426   4.705   5.821 -1.1118  2.0266  0.2357
   98SAPS  H11B 9753   3.443   4.741   5.995  1.6920 -0.4291 -0.4682
   98SAPS     P 9754   3.165   4.739   5.963 -0.3729  0.0643 -0.3279
   98SAPS   O13 9755   3.199   4.865   5.894  0.9525 -0.0616  0.1559
   98SAPS   O14 9756   3.026   4.696   5.941 -0.2733  0.2917 -0.3420
   98SAPS   O12 9757   3.266   4.626   5.928  0.0655 -0.1083  0.8164
   98SAPS   O11 9758   3.180   4.751   6.125  0.2427 -0.5724  0.2194
   98SAPS    C1 9759   3.278   4.836   6.184 -0.1025 -0.2313  0.5261
   98SAPS    HA 9760   3.368   4.780   6.217  0.4643 -0.8130 -1.8670
   98SAPS    HB 9761   3.300   4.917   6.112  0.9898 -1.7556 -0.9342
   98SAPS    C2 9762   3.220   4.895   6.312 -0.1120  0.0150  0.5486
   98SAPS    HS 9763   3.293   4.972   6.345  1.2775 -0.2070 -1.8453
   98SAPS   O21 9764   3.200   4.799   6.420  0.3627 -0.4377  0.2216
   98SAPS   C21 9765   3.306   4.751   6.477 -0.0636  0.1005  0.0246
   98SAPS   O22 9766   3.422   4.771   6.447 -0.4691 -0.0377  0.8372
   98SAPS   C22 9767   3.262   4.654   6.581  0.0463  0.1921 -0.1079
   98SAPS   H2R 9768   3.219   4.723   6.657  1.0362  0.3213  0.3430
   98SAPS   H2S 9769   3.174   4.601   6.537 -0.9810  0.8482  1.0599
   98SAPS    C3 9770   3.084   4.968   6.288  0.1725 -0.0162  1.1584
   98SAPS    HX 9771   3.008   4.892   6.263  0.3695  0.5482 -1.4652
   98SAPS    HY 9772   3.097   5.036   6.201 -0.9276  0.8002  1.6096
   98SAPS   O31 9773   3.046   5.045   6.401 -0.3011  0.0620 -0.3222
   98SAPS   C31 9774   2.921   5.084   6.418  0.4288 -0.0153 -0.8321
   98SAPS   O32 9775   2.821   5.053   6.349 -0.2420 -0.1561 -0.5742
   98SAPS   C32 9776   2.915   5.176   6.537 -0.4583 -0.2460 -1.1043
   98SAPS   H2X 9777   2.939   5.280   6.505  0.0972 -0.3217 -0.9554
   98SAPS   H2Y 9778   2.988   5.148   6.616 -1.4613 -1.8127 -0.6888
   98SAPS   C23 9779   3.368   4.557   6.636 -0.8887 -0.0439 -0.0628
   98SAPS   H3R 9780   3.458   4.555   6.571 -0.2932 -0.0472  0.7351
   98SAPS   H3S 9781   3.347   4.448   6.642  1.8629 -0.8145 -2.1591
   98SAPS   C24 9782   3.434   4.617   6.769 -0.6367  0.0729  0.5171
   98SAPS   H4R 9783   3.345   4.649   6.827 -0.8699 -0.4211  0.4388
   98SAPS   H4S 9784   3.492   4.706   6.736  0.7487 -0.7741  0.5896
   98SAPS   C25 9785   3.520   4.508   6.830  0.3137  0.6915 -0.6477
   98SAPS   H5R 9786   3.614   4.479   6.782  0.7238 -0.8378  0.9602
   98SAPS   C26 9787   3.479   4.447   6.941  0.3258 -0.1761  0.1682
   98SAPS   H6R 9788   3.537   4.363   6.982 -1.0757 -0.4404  1.7604
   98SAPS   C27 9789   3.358   4.479   7.023 -0.0835 -0.7592 -0.2436
   98SAPS   H7R 9790   3.259   4.494   6.973 -1.4059  1.1699  2.6893
   98SAPS   H7S 9791   3.377   4.575   7.076  0.7984 -1.5473  0.9078
   98SAPS   C28 9792   3.336   4.368   7.120 -0.2145  0.1774  0.4251
   98SAPS   H8R 9793   3.271   4.292   7.073  0.5978  1.0220 -2.2673
   98SAPS   C29 9794   3.372   4.365   7.249 -0.4628 -0.2744  0.1550
   98SAPS   H9R 9795   3.352   4.272   7.303  0.7684 -2.8318 -3.3678
   98SAPS  C210 9796   3.442   4.471   7.323 -0.9930  0.5363  0.2986
   98SAPS  H10R 9797   3.377   4.537   7.385 -1.4642  1.7255 -1.3915
   98SAPS  H10S 9798   3.498   4.541   7.257 -1.9624  0.9906 -0.0706
   98SAPS  C211 9799   3.546   4.406   7.408 -0.1228  0.0604  0.9972
   98SAPS  H11R 9800   3.610   4.342   7.346 -0.9102 -1.7001  1.9267
   98SAPS  C212 9801   3.575   4.410   7.541 -0.5835 -0.3918 -0.0497
   98SAPS  H12R 9802   3.671   4.364   7.568 -0.0693 -0.3248 -1.6435
   98SAPS  C213 9803   3.516   4.500   7.649  0.2428  0.3997 -0.1049
   98SAPS  H13R 9804   3.565   4.471   7.745 -1.6874  0.3742  0.9334
   98SAPS  H13S 9805   3.409   4.484   7.673  0.7070  0.5221  2.3131
   98SAPS  C214 9806   3.531   4.651   7.623 -0.8097  0.3495  0.4919
   98SAPS  H14R 9807   3.517   4.686   7.519  0.9557  0.2547  0.1893
   98SAPS  C215 9808   3.554   4.746   7.720  0.4483 -0.1153  0.4328
   98SAPS  H15R 9809   3.582   4.850   7.694  1.2217 -0.2269  0.8093
   98SAPS  C216 9810   3.557   4.725   7.869  0.2109 -0.4197 -1.0354
   98SAPS  H16R 9811   3.495   4.637   7.899  0.7466 -1.0410 -1.7121
   98SAPS  H16S 9812   3.528   4.814   7.928 -2.1913 -0.9032 -1.3882
   98SAPS  C217 9813   3.698   4.699   7.917  0.0841 -0.0582 -0.2927
   98SAPS  H17R 9814   3.763   4.789   7.914 -0.3760  0.3235  0.9397
   98SAPS  H17S 9815   3.743   4.619   7.854  0.6931 -0.8210  1.0624
   98SAPS  C218 9816   3.703   4.640   8.062  0.0857 -0.0830  0.2450
   98SAPS  H18R 9817   3.801   4.597   8.089 -0.4257 -0.4409  1.6283
   98SAPS  H18S 9818   3.637   4.551   8.057 -1.0672  0.7786 -0.6688
   98SAPS  C219 9819   3.680   4.741   8.171  0.3803 -0.0511 -0.0467
   98SAPS  H19R 9820   3.587   4.792   8.140  1.2243  1.3361 -0.3867
   98SAPS  H19S 9821   3.755   4.823   8.168 -0.4225  0.8802  2.6452
   98SAPS  C220 9822   3.679   4.681   8.311 -0.0715  0.0571 -0.1360
   98SAPS  H20R 9823   3.765   4.614   8.333  2.3095  2.9157 -0.0959
   98SAPS  H20S 9824   3.592   4.619   8.340 -0.8669  1.9556  1.8290
   98SAPS  H20T 9825   3.691   4.762   8.387  0.8216  0.7033 -0.9423
   98SAPS   C33 9826   2.776   5.169   6.603 -0.4795  0.8150  0.1905
   98SAPS   H3X 9827   2.760   5.062   6.631 -2.3129  0.9002 -0.4339
   98SAPS   H3Y 9828   2.704   5.207   6.528  0.7685 -1.2657 -2.2039
   98SAPS   C34 9829   2.753   5.248   6.733 -0.1485  0.4637  0.6466
   98SAPS   H4X 9830   2.646   5.275   6.744 -0.1746 -0.3540  2.7840
   98SAPS   H4Y 9831   2.810   5.343   6.737 -0.0749  0.3967  1.4085
   98SAPS   C35 9832   2.798   5.167   6.853 -0.2923  0.3363 -0.6163
   98SAPS   H5X 9833   2.909   5.157   6.856 -0.4743 -1.7227  0.9124
   98SAPS   H5Y 9834   2.762   5.063   6.843 -0.5171  0.4608 -1.1565
   98SAPS   C36 9835   2.756   5.212   6.995  0.0159  0.2016 -0.1917
   98SAPS   H6X 9836   2.646   5.221   7.001 -0.0717 -0.9848  0.4220
   98SAPS   H6Y 9837   2.790   5.316   7.012 -0.6629  0.6845 -1.6645
   98SAPS   C37 9838   2.792   5.106   7.105 -0.6290  0.0650  0.9916
   98SAPS   H7X 9839   2.902   5.115   7.115 -0.5785 -0.3640  0.8547
   98SAPS   H7Y 9840   2.767   5.003   7.073  2.5970 -0.3640 -0.6094
   98SAPS   C38 9841   2.724   5.110   7.241 -0.0071  0.4506 -0.0241
   98SAPS   H8X 9842   2.620   5.076   7.221 -0.6268  2.6729 -0.8272
   98SAPS   H8Y 9843   2.721   5.211   7.286 -3.3918 -0.7098  2.8797
   98SAPS   C39 9844   2.790   5.012   7.338 -0.2432  0.4985  0.0676
   98SAPS   H9X 9845   2.901   5.021   7.337 -0.1567 -0.4057  0.0797
   98SAPS   H9Y 9846   2.766   4.915   7.289 -2.5535  1.6318 -1.2032
   98SAPS  C310 9847   2.728   5.029   7.476 -0.7177  0.2805  0.0165
   98SAPS  H10X 9848   2.618   5.027   7.461 -0.5758  1.7089 -1.5148
   98SAPS  H10Y 9849   2.752   5.132   7.511 -1.6352  1.1185 -1.6598
   98SAPS  C311 9850   2.769   4.916   7.581 -0.2703 -0.3062  0.7886
   98SAPS  H11X 9851   2.746   4.820   7.529 -0.3436  1.0047 -1.7696
   98SAPS  H11Y 9852   2.715   4.927   7.677  1.3689  1.4655  1.5732
   98SAPS  C312 9853   2.918   4.918   7.618 -0.0357 -0.0508 -0.0112
   98SAPS  H12X 9854   2.958   5.018   7.641  1.1894 -0.4931 -0.1680
   98SAPS  H12Y 9855   2.977   4.877   7.533 -0.7524 -0.0580 -0.5143
   98SAPS  C313 9856   2.940   4.828   7.745 -0.6990  0.0378 -0.7299
   98SAPS  H13X 9857   2.905   4.725   7.724  0.7238 -0.7196  0.4060
   98SAPS  H13Y 9858   2.881   4.868   7.830  0.0160 -2.5762  1.1523
   98SAPS  C314 9859   3.090   4.829   7.800 -0.3291  0.3303 -0.2364
   98SAPS  H14X 9860   3.126   4.932   7.818 -0.9473  0.2634  1.5214
   98SAPS  H14Y 9861   3.157   4.787   7.722 -2.1574 -1.0864 -1.1381
   98SAPS  C315 9862   3.115   4.739   7.922 -0.0151  0.4704  0.3876
   98SAPS  H15X 9863   3.212   4.684   7.913  1.7191  3.4144 -0.2686
   98SAPS  H15Y 9864   3.034   4.663   7.926  0.4333 -0.0872 -0.5930
   98SAPS  C316 9865   3.121   4.819   8.054 -0.2816 -0.1180  0.2211
   98SAPS  H16X 9866   3.119   4.737   8.129 -0.0540  1.4797  2.0522
   98SAPS  H16Y 9867   3.036   4.891   8.060  0.1240  0.3689  0.2513
   98SAPS  C317 9868   3.251   4.894   8.058 -0.5017 -0.1838  0.2134
   98SAPS  H17X 9869   3.255   4.974   7.980  0.4607  1.1578  1.5820
   98SAPS  H17Y 9870   3.332   4.825   8.027 -1.3087 -0.3102 -1.7975
   98SAPS  C318 9871   3.294   4.949   8.203 -0.2461  0.9270  0.0548
   98SAPS  H18X 9872   3.388   5.007   8.198  0.6566 -0.2490  2.0977
   98SAPS  H18Y 9873   3.310   4.868   8.278 -1.6757  1.8847  1.4547
   98SAPS  H18Z 9874   3.202   5.003   8.236 -2.6354 -2.2830 -0.7751
   99SAPS     N 9875   1.396   2.635   6.298  0.4429 -0.3382  0.1621
   99SAPS   HN1 9876   1.488   2.664   6.260 -0.0843 -0.8463 -1.5633
   99SAPS   HN2 9877   1.392   2.533   6.317  0.3063 -0.1283  1.3863
   99SAPS   HN3 9878   1.329   2.674   6.229 -0.1191 -1.2418  0.1939
   99SAPS   C12 9879   1.370   2.703   6.433 -0.6771 -0.5129 -0.6661
   99SAPS  H12A 9880   1.427   2.650   6.508  0.8367  2.0534  0.1255
   99SAPS   C13 9881   1.406   2.852   6.439  0.1036 -0.0713 -0.3077
   99SAPS  O13A 9882   1.456   2.912   6.340 -0.6663  0.0534  0.3573
   99SAPS  O13B 9883   1.375   2.915   6.543  0.3684  0.0976 -0.1157
   99SAPS   C11 9884   1.224   2.684   6.467  0.3123 -0.2660  0.2139
   99SAPS  H11A 9885   1.197   2.733   6.563 -1.9735 -2.4885  0.8222
   99SAPS  H11B 9886   1.209   2.575   6.472  1.4643 -0.7415 -3.4243
   99SAPS     P 9887   0.990   2.731   6.364 -0.4092 -0.0800 -0.0739
   99SAPS   O13 9888   0.952   2.874   6.386  0.3017  0.3247 -0.5310
   99SAPS   O14 9889   0.956   2.670   6.233 -0.1531 -0.1346 -0.3707
   99SAPS   O12 9890   1.142   2.735   6.367 -0.5741 -0.1698  0.0869
   99SAPS   O11 9891   0.948   2.632   6.483 -0.2948 -0.2064 -0.0060
   99SAPS    C1 9892   0.941   2.488   6.462  0.2624 -0.4474 -0.3348
   99SAPS    HA 9893   1.020   2.451   6.392  1.4046  1.5932 -0.1941
   99SAPS    HB 9894   0.970   2.431   6.553  0.0747 -0.9478 -0.5839
   99SAPS    C2 9895   0.799   2.440   6.429  0.0456 -0.3988  0.7774
   99SAPS    HS 9896   0.774   2.499   6.339  0.5060 -1.0825  0.1926
   99SAPS   O21 9897   0.709   2.475   6.540  0.5516 -0.3311  0.0284
   99SAPS   C21 9898   0.583   2.476   6.513 -0.3203  0.3531  0.7590
   99SAPS   O22 9899   0.527   2.458   6.398  0.4026  0.2227 -0.2850
   99SAPS   C22 9900   0.509   2.517   6.638  0.2647 -0.1359  0.1919
   99SAPS   H2R 9901   0.564   2.475   6.724 -0.1580 -1.3469 -0.1067
   99SAPS   H2S 9902   0.518   2.627   6.642  0.3502 -0.0179 -2.0015
   99SAPS    C3 9903   0.791   2.287   6.385 -0.5371 -0.3773  0.0895
   99SAPS    HX 9904   0.858   2.288   6.296  1.4421  0.8028  1.5360
   99SAPS    HY 9905   0.682   2.271   6.371 -0.1895 -1.4676 -1.7152
   99SAPS   O31 9906   0.848   2.191   6.481  0.1430 -0.4629 -0.2046
   99SAPS   C31 9907   0.767   2.101   6.519  0.3370 -0.5779  0.4702
   99SAPS   O32 9908   0.643   2.093   6.489  0.2840  0.8164  0.3394
   99SAPS   C32 9909   0.850   2.011   6.607  0.3497 -0.9219 -0.3626
   99SAPS   H2X 9910   0.940   2.065   6.644 -0.5758  1.0479 -0.8819
   99SAPS   H2Y 9911   0.882   1.933   6.534 -2.3188 -2.0267 -0.4614
   99SAPS   C23 9912   0.359   2.477   6.637 -0.3819  0.1218  0.0998
   99SAPS   H3R 9913   0.338   2.385   6.578  0.8684 -0.0097 -0.1651
   99SAPS   H3S 9914   0.300   2.554   6.584 -1.1928  0.4273  1.3949
   99SAPS   C24 9915   0.305   2.456   6.773 -0.6108 -0.6141 -0.5712
   99SAPS   H4R 9916   0.195   2.473   6.775 -0.4158  0.7188 -0.0110
   99SAPS   H4S 9917   0.348   2.538   6.835 -0.8893 -0.5225 -0.4937
   99SAPS   C25 9918   0.322   2.317   6.827 -0.1805  0.6171 -0.2558
   99SAPS   H5R 9919   0.268   2.243   6.768 -0.0554  0.4176 -0.1216
   99SAPS   C26 9920   0.376   2.279   6.945  0.6419 -1.0914  0.8607
   99SAPS   H6R 9921   0.372   2.174   6.978 -0.7501 -0.7189  1.9532
   99SAPS   C27 9922   0.430   2.384   7.046 -0.3226  0.2321  0.0392
   99SAPS   H7R 9923   0.466   2.474   6.992 -0.1730  0.9055  1.2450
   99SAPS   H7S 9924   0.522   2.350   7.096  0.2399  3.1746  1.1511
   99SAPS   C28 9925   0.328   2.420   7.152 -0.5174  0.3444  0.1141
   99SAPS   H8R 9926   0.229   2.454   7.117 -0.5911  0.7849  0.7265
   99SAPS   C29 9927   0.343   2.416   7.296 -0.2901 -0.2006  0.7256
   99SAPS   H9R 9928   0.269   2.462   7.363  0.8876  2.5464  0.3068
   99SAPS  C210 9929   0.478   2.382   7.364  0.2427 -0.4476 -0.5052
   99SAPS  H10R 9930   0.516   2.292   7.311  0.6767 -0.6018  0.0654
   99SAPS  H10S 9931   0.470   2.347   7.469  0.9738 -0.9525 -0.6152
   99SAPS  C211 9932   0.589   2.483   7.357  0.3950 -0.2217 -0.2591
   99SAPS  H11R 9933   0.606   2.527   7.257  1.1853 -0.5408 -0.2741
   99SAPS  C212 9934   0.670   2.526   7.458 -0.1202 -0.1077 -0.6362
   99SAPS  H12R 9935   0.755   2.592   7.435  0.7248  0.0527  2.5824
   99SAPS  C213 9936   0.663   2.501   7.607  0.6295 -0.1726  0.6412
   99SAPS  H13R 9937   0.554   2.489   7.627  0.0617  1.0939 -1.4023
   99SAPS  H13S 9938   0.686   2.586   7.675  0.3166 -0.2131  0.7999
   99SAPS  C214 9939   0.741   2.381   7.647 -0.0693  0.7911  0.7015
   99SAPS  H14R 9940   0.730   2.292   7.583 -1.6237  1.9738 -0.7692
   99SAPS  C215 9941   0.819   2.370   7.757  0.5356 -0.7920 -0.5201
   99SAPS  H15R 9942   0.854   2.269   7.780  0.4412 -0.9697 -1.1612
   99SAPS  C216 9943   0.831   2.475   7.862  0.0797 -0.6386 -0.4594
   99SAPS  H16R 9944   0.854   2.427   7.960 -1.6996 -0.9397 -0.1475
   99SAPS  H16S 9945   0.733   2.526   7.869  0.9764  1.2524 -1.1135
   99SAPS  C217 9946   0.941   2.572   7.820 -0.4266 -0.4270 -0.4466
   99SAPS  H17R 9947   0.907   2.613   7.722 -1.5606  2.0655  0.8778
   99SAPS  H17S 9948   1.037   2.520   7.837 -0.8228 -0.6539  1.2512
   99SAPS  C218 9949   0.948   2.693   7.913  0.6802  0.3327 -0.2878
   99SAPS  H18R 9950   0.855   2.754   7.922  0.7724  0.1853  3.3828
   99SAPS  H18S 9951   1.029   2.759   7.876  0.8200  0.0844 -0.4288
   99SAPS  C219 9952   0.981   2.646   8.055 -0.0516  0.1619  0.5428
   99SAPS  H19R 9953   1.079   2.593   8.047 -0.2387 -0.0537 -0.5343
   99SAPS  H19S 9954   0.915   2.569   8.100  2.3959 -0.3397  3.6292
   99SAPS  C220 9955   0.988   2.769   8.150 -0.6610  0.7832 -0.0636
   99SAPS  H20R 9956   1.001   2.737   8.256 -1.6844  0.0146 -0.1531
   99SAPS  H20S 9957   0.899   2.835   8.139 -1.6205 -0.5226 -0.3158
   99SAPS  H20T 9958   1.072   2.840   8.134  0.5211 -0.6060 -0.1764
   99SAPS   C33 9959   0.761   1.940   6.709  0.5726 -0.0313 -0.8942
   99SAPS   H3X 9960   0.704   1.861   6.657 -0.7063  0.9536 -1.0547
   99SAPS   H3Y 9961   0.679   1.999   6.756  0.7349 -0.5476  0.0646
   99SAPS   C34 9962   0.844   1.890   6.838 -0.2639 -0.0589  0.1450
   99SAPS   H4X 9963   0.929   1.819   6.828 -0.2592 -0.2215  1.2204
   99SAPS   H4Y 9964   0.771   1.850   6.912 -2.9866  0.4720 -2.0711
   99SAPS   C35 9965   0.889   2.008   6.923  0.3137 -0.3009 -0.0454
   99SAPS   H5X 9966   0.816   2.082   6.963  0.4822 -1.0630  1.7796
   99SAPS   H5Y 9967   0.959   2.067   6.860  1.3709  1.6275  2.7193
   99SAPS   C36 9968   0.964   1.968   7.051  0.0940 -0.7009  0.4865
   99SAPS   H6X 9969   1.046   1.898   7.024  1.8601  2.0766 -1.9076
   99SAPS   H6Y 9970   0.899   1.911   7.121  0.6934 -0.8914  0.8943
   99SAPS   C37 9971   1.026   2.073   7.134  0.4896 -0.5557  0.3134
   99SAPS   H7X 9972   1.100   2.135   7.078 -1.3673  3.0498  1.5217
   99SAPS   H7Y 9973   1.085   2.024   7.215 -1.8085 -2.0367  1.1923
   99SAPS   C38 9974   0.916   2.155   7.206  0.3303  0.4334 -0.5691
   99SAPS   H8X 9975   0.873   2.087   7.283 -2.0046  0.7118 -1.5373
   99SAPS   H8Y 9976   0.815   2.166   7.160 -1.6446  3.2447  3.7179
   99SAPS   C39 9977   0.952   2.295   7.262 -0.7773 -0.0640  0.2139
   99SAPS   H9X 9978   0.860   2.326   7.317 -1.2360 -1.3679  0.2287
   99SAPS   H9Y 9979   0.968   2.371   7.183 -0.1243  1.1494  1.4802
   99SAPS  C310 9980   1.077   2.303   7.353  0.6322  0.5689 -0.0436
   99SAPS  H10X 9981   1.162   2.269   7.290  0.4094 -0.6241  0.2743
   99SAPS  H10Y 9982   1.064   2.240   7.444 -1.7653  1.9549  0.6479
   99SAPS  C311 9983   1.106   2.438   7.418  0.5099  0.0144  0.2944
   99SAPS  H11X 9984   1.027   2.464   7.492  0.6443  0.1139  0.4022
   99SAPS  H11Y 9985   1.108   2.507   7.331  1.0975 -1.6254 -1.0647
   99SAPS  C312 9986   1.251   2.455   7.482  0.2771  0.5824 -0.1831
   99SAPS  H12X 9987   1.331   2.461   7.405  0.3167 -0.4914 -0.2393
   99SAPS  H12Y 9988   1.271   2.375   7.556  0.8011 -0.0387 -0.9813
   99SAPS  C313 9989   1.255   2.588   7.555  0.3977 -1.2206 -0.5608
   99SAPS  H13X 9990   1.183   2.568   7.636  1.6461 -2.6206  0.2647
   99SAPS  H13Y 9991   1.205   2.657   7.484  1.8545  0.8539  0.3290
   99SAPS  C314 9992   1.395   2.640   7.605 -0.0741 -0.7344 -0.4328
   99SAPS  H14X 9993   1.431   2.553   7.663 -1.0876 -0.9531 -0.1241
   99SAPS  H14Y 9994   1.380   2.725   7.675 -0.2136 -0.2851 -1.0012
   99SAPS  C315 9995   1.502   2.688   7.498  0.6451 -0.0044  0.1861
   99SAPS  H15X 9996   1.536   2.590   7.459 -2.2804 -0.3326 -1.8667
   99SAPS  H15Y 9997   1.589   2.738   7.546  0.1938 -1.4312  2.6238
   99SAPS  C316 9998   1.446   2.760   7.368  0.3291  0.2588  0.2885
   99SAPS  H16X 9999   1.381   2.840   7.409  0.1011  0.6334 -0.7809
   99SAPS  H16Y10000   1.375   2.687   7.323  0.6832 -0.5264  0.9614
   99SAPS  C31710001   1.556   2.794   7.274 -0.4719 -0.1299 -0.1894
   99SAPS  H17X10002   1.634   2.716   7.274 -0.7601 -0.4186 -0.9307
   99SAPS  H17Y10003   1.622   2.878   7.307  0.6788 -0.6646 -1.0708
   99SAPS  C31810004   1.499   2.808   7.137 -0.3889  0.4334 -0.6120
   99SAPS  H18X10005   1.420   2.885   7.129 -3.4457 -2.2648  1.0522
   99SAPS  H18Y10006   1.458   2.708   7.110 -0.2975 -0.2389  1.5536
   99SAPS  H18Z10007   1.579   2.823   7.061 -0.2955  1.1315 -0.3817
  100SAPS     N10008   4.057   4.044   6.044 -0.4906  0.2697  0.0025
  100SAPS   HN110009   4.027   3.946   6.061  0.5733 -0.2569 -0.9733
  100SAPS   HN210010   4.040   4.111   6.121  0.3342  0.4998 -0.0071
  100SAPS   HN310011   4.000   4.070   5.961 -0.9326 -1.4299 -0.2785
  100SAPS   C1210012   4.195   4.057   5.999 -0.1968 -0.7922  0.5501
  100SAPS  H12A10013   4.263   4.005   6.064 -0.1394  0.6328  1.6771
  100SAPS   C1310014   4.222   3.992   5.862  0.6096  0.5447 -0.0225
  100SAPS  O13A10015   4.129   3.914   5.817  0.0303 -0.5303 -0.4724
  100SAPS  O13B10016   4.334   3.999   5.805 -0.1767  0.3936  0.8551
  100SAPS   C1110017   4.224   4.214   5.985  0.4843 -0.2630  0.4351
  100SAPS  H11A10018   4.178   4.247   5.889  3.8819  0.1234 -1.2307
  100SAPS  H11B10019   4.332   4.226   5.962  0.3394 -0.3328 -0.3301
  100SAPS     P10020   4.270   4.392   6.174 -0.4973  0.5418 -0.1386
  100SAPS   O1310021   4.267   4.522   6.108  0.2194 -0.3822  0.2867
  100SAPS   O1410022   4.225   4.398   6.316 -0.2933 -0.5627  0.0997
  100SAPS   O1210023   4.177   4.293   6.099  0.5876 -0.1888  0.0710
  100SAPS   O1110024   4.415   4.329   6.170  0.1786 -0.4507 -0.0810
  100SAPS    C110025   4.465   4.200   6.218  0.3739 -0.0110  0.2563
  100SAPS    HA10026   4.388   4.123   6.198  0.6057 -0.0109 -0.6975
  100SAPS    HB10027   4.551   4.169   6.154 -0.4643 -2.8952  0.3884
  100SAPS    C210028   4.507   4.180   6.366 -0.5107  0.0551  0.3309
  100SAPS    HS10029   4.534   4.075   6.390 -0.4458  0.3234  1.4894
  100SAPS   O2110030   4.414   4.224   6.468 -0.2969 -0.4331 -0.3962
  100SAPS   C2110031   4.324   4.132   6.494 -1.3748 -0.4407 -0.4032
  100SAPS   O2210032   4.310   4.033   6.431  0.2326  0.8165 -0.8330
  100SAPS   C2210033   4.232   4.178   6.610 -0.1195 -0.6784  0.0920
  100SAPS   H2R10034   4.182   4.274   6.586 -1.8157 -1.6324 -0.3799
  100SAPS   H2S10035   4.154   4.102   6.634 -2.2494  0.9670 -1.3428
  100SAPS    C310036   4.639   4.272   6.387 -0.2735  0.8507 -0.1152
  100SAPS    HX10037   4.606   4.378   6.382 -2.6037  0.1795  0.0767
  100SAPS    HY10038   4.712   4.237   6.311  0.6103  0.4447  0.9000
  100SAPS   O3110039   4.689   4.244   6.516 -0.1342  0.0213  0.3077
  100SAPS   C3110040   4.657   4.331   6.619  0.2241  0.5539  0.1762
  100SAPS   O3210041   4.581   4.428   6.613  0.6317  0.5230  0.0077
  100SAPS   C3210042   4.706   4.279   6.747  0.1983  0.3409 -0.7368
  100SAPS   H2X10043   4.817   4.278   6.753  0.1418  0.6603  0.9278
  100SAPS   H2Y10044   4.671   4.174   6.761  1.7621 -0.0120  0.9503
  100SAPS   C2310045   4.301   4.188   6.753 -0.1088  0.9388 -0.6340
  100SAPS   H3R10046   4.225   4.243   6.812 -1.2003  0.4971 -1.5841
  100SAPS   H3S10047   4.395   4.247   6.753  2.3964 -2.5995  2.2670
  100SAPS   C2410048   4.326   4.045   6.814  0.4094 -0.6533  0.4905
  100SAPS   H4R10049   4.420   4.060   6.872  1.6507 -2.3091 -0.9645
  100SAPS   H4S10050   4.337   3.976   6.727  1.3639 -0.8381  0.7400
  100SAPS   C2510051   4.212   4.000   6.895  0.2632 -0.7642 -0.3455
  100SAPS   H5R10052   4.123   3.982   6.832 -0.3355 -0.8443  0.4977
  100SAPS   C2610053   4.219   3.947   7.022  0.2887 -0.1644  0.3624
  100SAPS   H6R10054   4.120   3.929   7.066 -0.5087 -0.1540 -1.3588
  100SAPS   C2710055   4.343   3.943   7.108 -0.0124  0.4053 -0.3588
  100SAPS   H7R10056   4.441   3.902   7.076  1.3628  3.5836 -0.6559
  100SAPS   H7S10057   4.309   3.872   7.187 -0.6195  0.7461 -0.3063
  100SAPS   C2810058   4.359   4.078   7.166 -0.3713 -0.4208  0.2522
  100SAPS   H8R10059   4.291   4.159   7.136 -0.5812 -0.7003 -0.0392
  100SAPS   C2910060   4.437   4.106   7.274 -0.6857  0.5537 -0.0632
  100SAPS   H9R10061   4.447   4.214   7.295 -0.1862  0.6228 -0.6198
  100SAPS  C21010062   4.519   4.008   7.347 -0.0822 -0.1929 -0.0906
  100SAPS  H10R10063   4.600   4.052   7.409  0.6336 -0.5775 -0.7248
  100SAPS  H10S10064   4.569   3.939   7.276 -2.7560 -2.6364  0.2214
  100SAPS  C21110065   4.435   3.920   7.435  0.6639  1.2254  0.5449
  100SAPS  H11R10066   4.351   3.872   7.383 -0.2824  3.4925 -0.1492
  100SAPS  C21210067   4.445   3.901   7.562  1.1400 -0.1510 -0.0673
  100SAPS  H12R10068   4.371   3.846   7.621 -0.7007 -0.6932 -2.7158
  100SAPS  C21310069   4.551   3.955   7.658 -0.9915  0.0056 -0.4266
  100SAPS  H13R10070   4.649   3.944   7.606 -1.0680  1.3756 -0.8985
  100SAPS  H13S10071   4.556   3.897   7.752 -0.8625  1.4728  0.4935
  100SAPS  C21410072   4.539   4.096   7.709  0.0661  0.1417 -0.7795
  100SAPS  H14R10073   4.476   4.166   7.651  0.6382  0.0136 -1.5730
  100SAPS  C21510074   4.596   4.142   7.823 -0.0129  0.1039 -0.6072
  100SAPS  H15R10075   4.590   4.247   7.856  0.2052 -0.4782  1.3720
  100SAPS  C21610076   4.679   4.061   7.924  0.9050 -0.3103 -0.7453
  100SAPS  H16R10077   4.780   4.105   7.936  0.1607  1.1030  0.8228
  100SAPS  H16S10078   4.726   3.967   7.888  1.8445 -0.5886  1.0737
  100SAPS  C21710079   4.615   4.043   8.064  0.2955  0.1246 -0.1028
  100SAPS  H17R10080   4.522   3.982   8.063 -0.4629  1.1909  1.7107
  100SAPS  H17S10081   4.594   4.148   8.094 -1.1696 -0.4438  0.9704
  100SAPS  C21810082   4.722   3.983   8.157  0.1764  0.0333  1.4439
  100SAPS  H18R10083   4.809   4.052   8.169  2.4868 -2.6200  1.0154
  100SAPS  H18S10084   4.772   3.899   8.105 -0.4554 -0.5308  1.7435
  100SAPS  C21910085   4.667   3.949   8.296  0.4833 -0.3744  0.0980
  100SAPS  H19R10086   4.579   3.884   8.275 -1.2967  0.6207  3.7642
  100SAPS  H19S10087   4.623   4.040   8.341  0.6187 -1.4125  2.4999
  100SAPS  C22010088   4.750   3.875   8.396  0.3856 -0.7243 -0.2818
  100SAPS  H20R10089   4.695   3.830   8.481  0.5909  4.6658  3.1779
  100SAPS  H20S10090   4.819   3.949   8.440 -1.2937  1.5090 -1.1756
  100SAPS  H20T10091   4.807   3.798   8.341  2.0889 -1.0850  1.8632
  100SAPS   C3310092   4.649   4.368   6.873  0.0717 -0.5150 -0.0213
  100SAPS   H3X10093   4.544   4.332   6.882  0.7594 -2.4116  0.7272
  100SAPS   H3Y10094   4.653   4.478   6.855 -2.7409 -0.2365  0.4765
  100SAPS   C3410095   4.718   4.328   7.008 -0.2779  0.0230  0.3676
  100SAPS   H4X10096   4.827   4.329   6.988 -0.0917  1.2408  1.2929
  100SAPS   H4Y10097   4.675   4.228   7.028 -1.7967  0.6415  0.3533
  100SAPS   C3510098   4.689   4.427   7.120 -0.4969 -0.0544  0.1560
  100SAPS   H5X10099   4.582   4.420   7.152 -0.4291 -3.4836 -0.0735
  100SAPS   H5Y10100   4.716   4.526   7.076  1.6172 -0.9328 -0.6546
  100SAPS   C3610101   4.762   4.404   7.252  0.4268  0.3608 -0.4696
  100SAPS   H6X10102   4.859   4.453   7.272  0.9085  0.0480 -1.9001
  100SAPS   H6Y10103   4.790   4.298   7.238 -0.4640  0.2463 -1.5776
  100SAPS   C3710104   4.677   4.410   7.382 -0.1479 -0.3353 -0.0150
  100SAPS   H7X10105   4.595   4.336   7.368 -0.4369 -0.1715  0.7726
  100SAPS   H7Y10106   4.637   4.513   7.393 -0.8099 -0.8407  3.9891
  100SAPS   C3810107   4.755   4.383   7.521  0.2586  0.9355  0.5963
  100SAPS   H8X10108   4.779   4.275   7.527 -2.1327 -0.0054 -3.0800
  100SAPS   H8Y10109   4.677   4.408   7.596 -1.4205 -0.8074 -0.4789
  100SAPS   C3910110   4.880   4.472   7.541 -0.7134  0.1122  0.8994
  100SAPS   H9X10111   4.859   4.580   7.556  2.4292  0.6603  1.9512
  100SAPS   H9Y10112   4.942   4.454   7.451  0.0706 -1.8022  1.7576
  100SAPS  C31010113   4.964   4.427   7.663  0.2038 -0.1512 -0.6211
  100SAPS  H10X10114   5.049   4.498   7.673  1.5768 -1.9725  1.8766
  100SAPS  H10Y10115   5.000   4.323   7.650  0.7098  0.0048 -0.4818
  100SAPS  C31110116   4.890   4.436   7.796  0.4526 -0.2438 -0.4440
  100SAPS  H11X10117   4.821   4.351   7.809  0.1365  0.1718  0.7353
  100SAPS  H11Y10118   4.834   4.532   7.797  0.3899 -0.2796  0.4653
  100SAPS  C31210119   4.990   4.427   7.913  0.1934  0.2547 -0.2410
  100SAPS  H12X10120   5.055   4.517   7.907  1.6640 -0.8046 -0.7637
  100SAPS  H12Y10121   5.064   4.346   7.896  0.6760  0.9536 -1.6609
  100SAPS  C31310122   4.918   4.413   8.045  0.5920 -0.0152  0.2384
  100SAPS  H13X10123   4.865   4.315   8.044  0.3344  0.1289 -0.1114
  100SAPS  H13Y10124   4.837   4.483   8.076  0.6728 -1.2347  3.7277
  100SAPS  C31410125   5.015   4.406   8.158  0.1104 -0.0261  0.7143
  100SAPS  H14X10126   5.063   4.506   8.166 -0.4996  0.2827  0.6162
  100SAPS  H14Y10127   5.097   4.335   8.136  0.2152  0.0189  0.9534
  100SAPS  C31510128   4.944   4.366   8.290  0.0642  0.3140 -0.1456
  100SAPS  H15X10129   4.879   4.276   8.293 -1.3583  1.3267  0.8875
  100SAPS  H15Y10130   4.871   4.448   8.307 -0.5863 -0.3634  0.3784
  100SAPS  C31610131   5.047   4.373   8.406  0.0395 -0.0035  0.3084
  100SAPS  H16X10132   5.036   4.453   8.483 -1.0282 -0.0655  0.2279
  100SAPS  H16Y10133   5.144   4.402   8.358 -0.3921 -1.0625 -1.2745
  100SAPS  C31710134   5.066   4.245   8.487 -0.3432  0.3860  0.7696
  100SAPS  H17X10135   5.062   4.153   8.425 -0.7856 -0.1500  1.5755
  100SAPS  H17Y10136   4.979   4.232   8.555 -0.3069 -0.3458  0.6797
  100SAPS  C31810137   5.184   4.241   8.586 -0.2234 -0.1314  0.2615
  100SAPS  H18X10138   5.158   4.305   8.673  1.6809  2.8652 -1.1931
  100SAPS  H18Y10139   5.274   4.277   8.531 -0.0784 -1.8176 -0.6511
  100SAPS  H18Z10140   5.207   4.139   8.623  2.3063 -0.7041 -2.5323
  101OSM      N10141   4.856   4.566  10.844 -0.4854  0.2664  0.0056
  101OSM    C1510142   4.856   4.486  10.971  0.7089  0.7402  0.2249
  101OSM   H15A10143   4.794   4.547  11.034 -1.1152 -0.8648  0.0751
  101OSM   H15B10144   4.957   4.480  11.008  0.0477  0.9978  2.2136
  101OSM   H15C10145   4.814   4.387  10.966  1.1264  0.6354 -2.0073
  101OSM    C1410146   4.712   4.586  10.798 -0.0413 -0.5481  0.0104
  101OSM   H14A10147   4.667   4.649  10.873  0.0643  0.9305 -1.1315
  101OSM   H14B10148   4.655   4.494  10.791 -1.1348  0.0051  1.2491
  101OSM   H14C10149   4.701   4.641  10.706 -1.2398 -0.4891  0.1664
  101OSM    C1310150   4.909   4.704  10.867  0.1970 -0.1759  0.1827
  101OSM   H13A10151   4.856   4.757  10.945 -1.7029 -1.2508 -0.3147
  101OSM   H13B10152   4.909   4.766  10.778  0.7640  0.6230  0.7237
  101OSM   H13C10153   5.008   4.701  10.910 -0.1272  0.3762  1.0040
  101OSM    C1210154   4.935   4.496  10.731 -0.3304  0.1512  0.2339
  101OSM   H12A10155   4.942   4.555  10.642 -0.1956 -2.2481 -1.4495
  101OSM   H12B10156   4.879   4.407  10.707  0.2466 -0.0167 -0.5217
  101OSM    C1110157   5.080   4.446  10.759  0.5902  0.3766  0.1532
  101OSM   H11A10158   5.116   4.380  10.677  0.4800  0.3082  0.1600
  101OSM   H11B10159   5.075   4.378  10.847 -1.0711 -1.0053 -0.9339
  101OSM      P10160   5.245   4.630  10.666 -0.1987 -0.3382  0.2128
  101OSM    O1310161   5.283   4.767  10.713  0.1910  0.0854 -0.0508
  101OSM    O1410162   5.356   4.548  10.611 -0.6229  0.0903 -0.3125
  101OSM    O1110163   5.129   4.630  10.557  0.0736 -0.0349 -0.9944
  101OSM    O1210164   5.178   4.548  10.791  0.4170 -0.1078  0.2061
  101OSM    C1S10165   5.102   4.743  10.471 -0.4724  0.3131 -0.3414
  101OSM    H1S10166   5.154   4.836  10.501 -0.0774 -0.1503  0.4595
  101OSM    H1T10167   4.992   4.753  10.466 -0.5281 -0.1389 -0.1131
  101OSM     NF10168   5.100   4.827  10.250 -0.0840 -0.2358  0.7132
  101OSM    HNF10169   5.012   4.813  10.206 -0.5192  0.5211  1.3326
  101OSM    C2S10170   5.146   4.715  10.327  0.3871  0.5810 -0.0975
  101OSM    H2S10171   5.256   4.708  10.326  0.3910  0.2902  1.2218
  101OSM    C3S10172   5.093   4.574  10.271  0.5734 -0.0880 -0.1053
  101OSM    H3S10173   4.983   4.578  10.264  0.4729 -1.6478  0.2311
  101OSM     O310174   5.119   4.463  10.360  0.0902  0.1495 -0.2607
  101OSM    HO310175   5.141   4.512  10.439  0.9320 -1.4688  0.5593
  101OSM    C4S10176   5.162   4.544  10.137 -0.1105 -0.5439 -0.1203
  101OSM    H4S10177   5.108   4.590  10.053 -1.2163  1.0221  1.3534
  101OSM    C5S10178   5.270   4.461  10.125  0.6194 -0.1602  0.6580
  101OSM    H5S10179   5.309   4.415  10.217 -0.4341  0.3620  1.3859
  101OSM    C6S10180   5.342   4.428   9.997 -0.0680  0.8528 -0.5000
  101OSM    H6S10181   5.367   4.320   9.999 -1.8614  0.4068 -0.0403
  101OSM    H6T10182   5.444   4.470   9.992  0.9993 -0.8074  3.4133
  101OSM    C7S10183   5.269   4.452   9.865  0.1566  1.1469  1.2116
  101OSM    H7S10184   5.250   4.561   9.852 -0.4861  0.8865 -0.1202
  101OSM    H7T10185   5.169   4.406   9.874  0.7580 -0.0584  2.0029
  101OSM    C8S10186   5.354   4.405   9.747  0.6885 -0.6149 -0.3151
  101OSM    H8S10187   5.370   4.296   9.760  0.7156 -0.6416 -0.5556
  101OSM    H8T10188   5.447   4.464   9.759 -0.3599  1.1761 -0.6544
  101OSM    C9S10189   5.292   4.426   9.607 -1.0118 -0.4067  1.1832
  101OSM    H9S10190   5.251   4.529   9.606 -0.7812 -0.3157  0.4616
  101OSM    H9T10191   5.215   4.348   9.592  0.2169 -1.6442  1.0597
  101OSM   C10S10192   5.393   4.401   9.489 -0.6457  0.5151  0.2154
  101OSM   H10S10193   5.433   4.297   9.494  0.3013  0.9153  1.2204
  101OSM   H10T10194   5.470   4.480   9.482 -0.4267  0.2059 -1.2377
  101OSM   C11S10195   5.322   4.401   9.356  0.4000  0.0197 -0.0887
  101OSM   H11S10196   5.279   4.502   9.341  0.3534  0.0462  0.1997
  101OSM   H11T10197   5.236   4.330   9.352 -1.8931  2.5841  0.3360
  101OSM   C12S10198   5.414   4.364   9.239 -0.4870  0.0982 -0.5723
  101OSM   H12S10199   5.485   4.284   9.270  0.5541  0.7538 -1.2001
  101OSM   H12T10200   5.483   4.451   9.231 -0.2901  0.1649  1.2578
  101OSM   C13S10201   5.336   4.342   9.119  0.2943  0.4654  0.3657
  101OSM   H13S10202   5.269   4.253   9.123  0.6387  0.2183  4.3715
  101OSM   H13T10203   5.403   4.331   9.031  0.8448  0.0970  0.8235
  101OSM   C14S10204   5.254   4.467   9.072 -0.0392 -0.2670 -0.4416
  101OSM   H14S10205   5.320   4.554   9.092  0.5468 -1.1275  1.6175
  101OSM   H14T10206   5.158   4.475   9.128  0.1322  1.5799 -0.3524
  101OSM   C15S10207   5.225   4.455   8.924 -0.0743 -0.4446 -0.3481
  101OSM   H15S10208   5.141   4.385   8.906  0.4929 -1.5473  1.0827
  101OSM   H15T10209   5.316   4.413   8.876 -0.3784 -0.4300 -0.9592
  101OSM   C16S10210   5.216   4.596   8.863 -0.3049 -0.6316 -0.3999
  101OSM   H16S10211   5.320   4.630   8.844 -0.0037 -1.5450 -0.3962
  101OSM   H16T10212   5.168   4.671   8.930 -2.3514  0.3646 -2.8123
  101OSM   C17S10213   5.146   4.607   8.735  0.2166 -0.7169  0.6507
  101OSM   H17S10214   5.187   4.531   8.665 -0.9944 -2.2760  1.5797
  101OSM   H17T10215   5.160   4.706   8.686 -2.7311 -0.6054 -0.1779
  101OSM   C18S10216   5.001   4.582   8.756  0.5453  0.2154  0.1536
  101OSM   H18S10217   4.957   4.644   8.837 -0.2557  0.3680 -0.3917
  101OSM   H18T10218   4.987   4.474   8.777 -0.1912 -0.1057 -1.7537
  101OSM   H18U10219   4.940   4.613   8.668  0.4454  2.0533  0.8326
  101OSM    C1F10220   5.146   4.945  10.265  0.5760 -0.5266 -0.0638
  101OSM     OF10221   5.241   4.966  10.340  0.4051  0.1000 -0.1112
  101OSM    C2F10222   5.090   5.066  10.192  0.6450 -0.1889  0.6480
  101OSM    H2F10223   5.020   5.128  10.253  1.7689  3.0035 -1.0583
  101OSM    H2G10224   5.041   5.021  10.104  1.6946  1.7703 -1.0247
  101OSM    C3F10225   5.201   5.147  10.123 -0.0867  0.3160 -0.2298
  101OSM    H3F10226   5.262   5.079  10.060  0.6267  1.0030 -0.2960
  101OSM    H3G10227   5.276   5.180  10.198  0.5988 -0.4543 -0.5535
  101OSM    C4F10228   5.149   5.271  10.047  0.0338  0.5197  0.5848
  101OSM    H4F10229   5.151   5.357  10.117  0.9859  0.9996 -0.0134
  101OSM    H4G10230   5.046   5.242  10.015  0.6051  0.4049 -1.2909
  101OSM    C5F10231   5.234   5.308   9.926 -0.0792 -0.0524  0.7161
  101OSM    H5F10232   5.256   5.222   9.859  4.4379  1.5201 -0.1458
  101OSM    H5G10233   5.335   5.333   9.964  0.6253 -0.9459 -0.5000
  101OSM    C6F10234   5.193   5.432   9.845 -0.0234  0.0006  0.3758
  101OSM    H6F10235   5.183   5.516   9.917  0.3685  1.3442 -1.0720
  101OSM    H6G10236   5.095   5.423   9.794 -1.0537  1.5328  1.9841
  101OSM    C7F10237   5.295   5.478   9.731  1.2758  0.0220 -0.3092
  101OSM    H7F10238   5.398   5.497   9.770  0.9141 -1.5766  1.6042
  101OSM    H7G10239   5.268   5.576   9.688  0.4423  0.3225  0.8456
  101OSM    C8F10240   5.314   5.375   9.620 -0.0323 -0.9102 -0.0987
  101OSM    H8F10241   5.337   5.277   9.666 -0.1459 -0.0713  1.8329
  101OSM    H8G10242   5.399   5.409   9.558 -0.9169  2.8499  0.5040
  101OSM    C9F10243   5.187   5.365   9.541  0.0094 -0.5617 -1.0684
  101OSM    H9F10244   5.120   5.280   9.560 -1.7842  0.7197 -1.4036
  101OSM   C10F10245   5.156   5.447   9.437 -0.1059  0.6357  0.4562
  101OSM   H10F10246   5.063   5.425   9.383  1.0006 -1.8582 -0.5671
  101OSM   C11F10247   5.238   5.564   9.382 -0.2070 -0.1954 -0.2924
  101OSM   H11F10248   5.345   5.557   9.410 -0.7679  0.9661  2.3921
  101OSM   H11G10249   5.194   5.658   9.420 -1.3352 -0.4297 -0.9616
  101OSM   C12F10250   5.226   5.575   9.230  0.3160  0.7788 -0.4609
  101OSM   H12F10251   5.289   5.661   9.197  2.1119  0.0635  0.9117
  101OSM   H12G10252   5.129   5.603   9.184  1.2574  2.2224 -1.6735
  101OSM   C13F10253   5.282   5.455   9.162 -0.4776 -0.3634 -0.3361
  101OSM   H13F10254   5.235   5.362   9.199  0.1842 -0.1864  0.9968
  101OSM   H13G10255   5.383   5.434   9.203 -1.7335 -2.2790  2.0073
  101OSM   C14F10256   5.272   5.463   9.011 -0.0716 -0.1927 -0.0514
  101OSM   H14F10257   5.300   5.564   8.973  3.3019 -0.2368  1.9279
  101OSM   H14G10258   5.163   5.447   8.994  0.5119 -4.1464 -0.9689
  101OSM   C15F10259   5.367   5.368   8.945 -0.2374  0.1747 -0.0887
  101OSM   H15F10260   5.458   5.353   9.008  0.5163 -1.9314 -1.5560
  101OSM   H15G10261   5.390   5.408   8.844  0.0139  1.2077  0.3565
  101OSM   C16F10262   5.305   5.226   8.941 -0.0651  0.1267 -0.4585
  101OSM   H16F10263   5.209   5.226   8.884  1.2401 -0.5920 -2.7890
  101OSM   H16G10264   5.274   5.197   9.044 -1.6165 -1.9546 -1.4231
  101OSM   C17F10265   5.403   5.118   8.886  0.1149 -0.4096 -0.5392
  101OSM   H17F10266   5.506   5.115   8.929  0.8307  0.2896 -2.1149
  101OSM   H17G10267   5.409   5.119   8.775 -2.0846 -0.4929 -0.6896
  101OSM   C18F10268   5.328   4.979   8.897 -0.0871 -0.0316 -0.2085
  101OSM   H18F10269   5.398   4.893   8.897  0.7793  0.6522 -0.9776
  101OSM   H18G10270   5.238   4.960   8.833 -0.6963 -0.0513  0.6367
  101OSM   H18H10271   5.284   4.976   8.999 -0.7686 -1.2342 -0.5144
  102OSM      N10272   4.410   3.897  10.890 -0.1042 -0.2309  0.2859
  102OSM    C1510273   4.283   3.951  10.836  0.2755  0.1954 -0.0613
  102OSM   H15A10274   4.230   3.976  10.927  1.4139 -2.2032  1.3422
  102OSM   H15B10275   4.230   3.878  10.778  1.8781 -0.5685 -0.6221
  102OSM   H15C10276   4.288   4.044  10.781 -0.8777  0.0022 -0.5110
  102OSM    C1410277   4.380   3.769  10.963  0.0261 -0.3915 -0.1771
  102OSM   H14A10278   4.471   3.713  10.980 -0.0706 -0.2832  0.7381
  102OSM   H14B10279   4.331   3.700  10.896 -2.4962  0.7722  0.3296
  102OSM   H14C10280   4.328   3.781  11.057  1.2836 -0.5014  0.5572
  102OSM    C1310281   4.497   3.863  10.779 -0.1359  0.0019  0.3586
  102OSM   H13A10282   4.524   3.953  10.726 -0.7696 -1.2102 -2.1434
  102OSM   H13B10283   4.448   3.801  10.706 -0.6086  0.0724  0.6092
  102OSM   H13C10284   4.590   3.819  10.811 -0.0874  0.4234  0.8179
  102OSM    C1210285   4.481   3.991  10.985  0.0886  0.3621  0.1575
  102OSM   H12A10286   4.564   3.936  11.027  1.1112  1.4055 -0.4081
  102OSM   H12B10287   4.415   4.009  11.068  0.0239 -2.3559  0.7613
  102OSM    C1110288   4.533   4.136  10.936  0.7920 -0.5448 -0.2228
  102OSM   H11A10289   4.575   4.194  11.021 -1.4374 -0.4627  0.8929
  102OSM   H11B10290   4.442   4.195  10.909  1.0573  0.0530  0.1711
  102OSM      P10291   4.774   4.106  10.831 -0.0206 -0.6847 -0.3671
  102OSM    O1310292   4.828   4.181  10.947 -0.3269  0.7609 -0.1184
  102OSM    O1410293   4.801   3.963  10.818 -0.0927 -0.1499  0.3816
  102OSM    O1110294   4.842   4.178  10.704  0.2150  0.1930 -0.2215
  102OSM    O1210295   4.616   4.133  10.818  0.0940  0.2629  0.1315
  102OSM    C1S10296   4.749   4.227  10.603 -0.7984 -0.6224  0.2383
  102OSM    H1S10297   4.699   4.321  10.635 -0.0570 -0.2550  0.3526
  102OSM    H1T10298   4.671   4.155  10.570 -0.4765 -0.4686 -0.8981
  102OSM     NF10299   4.741   4.320  10.366  0.1436 -0.2213  0.1905
  102OSM    HNF10300   4.700   4.267  10.292 -0.3239 -1.9384  1.6074
  102OSM    C2S10301   4.831   4.263  10.465  0.4963  0.0043  0.2515
  102OSM    H2S10302   4.910   4.337  10.489  2.1465 -1.2293 -1.0685
  102OSM    C3S10303   4.902   4.137  10.416 -0.0579 -0.6811 -0.2336
  102OSM    H3S10304   4.822   4.061  10.419 -1.1574  0.3975 -1.2065
  102OSM     O310305   4.993   4.088  10.511  0.1973 -0.0524 -0.5561
  102OSM    HO310306   4.959   4.131  10.589  0.5110  0.5358 -0.7365
  102OSM    C4S10307   4.960   4.146  10.279  0.3660 -0.4569  0.6729
  102OSM    H4S10308   5.046   4.214  10.267  1.2629 -1.7615 -0.5761
  102OSM    C5S10309   4.912   4.087  10.170  0.1694 -0.4693  0.2514
  102OSM    H5S10310   4.831   4.013  10.176 -1.0276  0.7776 -0.0699
  102OSM    C6S10311   4.972   4.100  10.027  0.6055 -0.1750 -0.3071
  102OSM    H6S10312   4.987   3.999   9.984 -0.5904 -0.1904 -0.7099
  102OSM    H6T10313   5.070   4.154  10.027  2.0879 -2.6886 -0.6133
  102OSM    C7S10314   4.879   4.176   9.934 -0.1114  0.1704 -0.4962
  102OSM    H7S10315   4.854   4.278   9.971 -0.9551  1.4408 -4.1505
  102OSM    H7T10316   4.778   4.133   9.918 -1.1356  2.3527 -0.2123
  102OSM    C8S10317   4.945   4.193   9.800  0.3322  0.3473 -0.0875
  102OSM    H8S10318   4.940   4.090   9.759  1.4799  0.1275  0.3033
  102OSM    H8T10319   5.050   4.229   9.795  0.0600  1.4410  1.3342
  102OSM    C9S10320   4.868   4.279   9.697 -0.0821  0.2217 -0.7252
  102OSM    H9S10321   4.884   4.388   9.706 -0.3209  0.6121 -3.9552
  102OSM    H9T10322   4.761   4.250   9.708  0.0917 -1.2662 -2.4056
  102OSM   C10S10323   4.915   4.245   9.547 -0.3676  0.4966 -0.4263
  102OSM   H10S10324   4.888   4.142   9.518  3.0775 -0.0470 -2.2639
  102OSM   H10T10325   5.026   4.254   9.546 -0.2112 -0.0990  2.5656
  102OSM   C11S10326   4.839   4.341   9.454 -0.4205  0.0282 -0.1654
  102OSM   H11S10327   4.848   4.447   9.485  0.3651 -0.1486  0.2258
  102OSM   H11T10328   4.733   4.310   9.447 -0.5902  0.2672  1.1564
  102OSM   C12S10329   4.900   4.345   9.311  0.4221 -0.2978  0.2015
  102OSM   H12S10330   5.009   4.364   9.314  0.4663 -0.4723 -0.2064
  102OSM   H12T10331   4.862   4.433   9.256  3.1295  0.1088 -1.1752
  102OSM   C13S10332   4.864   4.219   9.238  0.5570 -0.4645  0.5190
  102OSM   H13S10333   4.759   4.184   9.236  0.8008 -1.2620  1.2053
  102OSM   H13T10334   4.922   4.132   9.274 -0.0773 -1.3376 -0.5032
  102OSM   C14S10335   4.904   4.228   9.085 -0.3888  0.9347  0.1884
  102OSM   H14S10336   5.013   4.242   9.074 -0.1411 -1.0549 -0.2605
  102OSM   H14T10337   4.868   4.321   9.035 -0.2268 -1.0605 -4.0745
  102OSM   C15S10338   4.860   4.112   8.996  0.0429  0.4495  0.3948
  102OSM   H15S10339   4.749   4.109   8.994  0.0343  0.7778  0.4513
  102OSM   H15T10340   4.904   4.020   9.040  2.1105  1.1619 -0.0827
  102OSM   C16S10341   4.914   4.110   8.856  0.3012  0.7626  0.1192
  102OSM   H16S10342   5.020   4.079   8.851  0.9685  3.0159 -1.3865
  102OSM   H16T10343   4.910   4.214   8.815  0.2652  0.5958 -0.3111
  102OSM   C17S10344   4.848   4.017   8.759  0.5641  0.6877 -0.1371
  102OSM   H17S10345   4.842   3.917   8.808  0.4440  0.5964 -0.3355
  102OSM   H17T10346   4.895   4.016   8.658 -1.8314 -0.2246 -1.3295
  102OSM   C18S10347   4.699   4.034   8.735  0.3021 -0.6057 -0.3301
  102OSM   H18S10348   4.634   4.009   8.821 -0.2087 -0.3658 -0.6414
  102OSM   H18T10349   4.674   3.966   8.651 -1.0444  0.9861 -1.2912
  102OSM   H18U10350   4.666   4.135   8.700  0.2326 -0.4658  0.1328
  102OSM    C1F10351   4.673   4.435  10.379  0.5653  0.1651 -0.7262
  102OSM     OF10352   4.692   4.506  10.477 -0.2242 -0.5912 -0.5372
  102OSM    C2F10353   4.568   4.475  10.285  0.2654  0.0965  0.6641
  102OSM    H2F10354   4.565   4.585  10.269 -0.8717 -0.2061 -1.6674
  102OSM    H2G10355   4.465   4.447  10.315 -0.5058  3.2889  1.4422
  102OSM    C3F10356   4.600   4.423  10.139  0.1153 -0.5946 -0.2168
  102OSM    H3F10357   4.597   4.312  10.135 -2.0034 -0.5374 -2.9371
  102OSM    H3G10358   4.707   4.443  10.116  0.4987 -1.8273  0.3708
  102OSM    C4F10359   4.504   4.474  10.033 -0.5270  0.0442  0.2101
  102OSM    H4F10360   4.509   4.585  10.030 -2.3780  0.1811  0.5440
  102OSM    H4G10361   4.403   4.450  10.073  0.2834 -2.5217  0.8921
  102OSM    C5F10362   4.523   4.415   9.897 -0.6449 -0.0573  0.3169
  102OSM    H5F10363   4.470   4.317   9.891 -0.8976 -0.0428  1.9090
  102OSM    H5G10364   4.633   4.399   9.892 -0.5259  0.7937  0.1644
  102OSM    C6F10365   4.485   4.508   9.781 -0.7424  0.6763 -0.1212
  102OSM    H6F10366   4.529   4.611   9.784 -0.4573  0.5388  1.8409
  102OSM    H6G10367   4.375   4.515   9.795 -1.1160 -2.2485 -1.0211
  102OSM    C7F10368   4.503   4.455   9.635  0.1121  0.0096 -0.2292
  102OSM    H7F10369   4.452   4.356   9.638 -0.6207  0.3837  0.0450
  102OSM    H7G10370   4.609   4.428   9.617  0.3721  0.4066  0.6544
  102OSM    C8F10371   4.428   4.543   9.531  0.2609 -0.2477 -0.5100
  102OSM    H8F10372   4.469   4.646   9.543  1.9060 -0.8460 -0.8639
  102OSM    H8G10373   4.320   4.545   9.560  0.5490  0.6427  0.5773
  102OSM    C9F10374   4.462   4.487   9.398 -0.3871  0.2647 -0.0046
  102OSM    H9F10375   4.428   4.386   9.374 -2.3411  0.7657  0.5239
  102OSM   C10F10376   4.530   4.548   9.298 -0.4893  0.2702 -0.6575
  102OSM   H10F10377   4.545   4.483   9.210  0.9522 -0.7074  0.2612
  102OSM   C11F10378   4.584   4.688   9.308  0.3054 -0.2659 -0.4020
  102OSM   H11F10379   4.666   4.691   9.234  0.7841 -2.0128 -0.0066
  102OSM   H11G10380   4.621   4.710   9.410 -2.7571 -1.8852  1.1883
  102OSM   C12F10381   4.478   4.798   9.265 -0.6714 -0.1546  0.1344
  102OSM   H12F10382   4.512   4.899   9.297 -2.2341  0.4351  0.0323
  102OSM   H12G10383   4.384   4.770   9.317 -0.3468 -2.0801 -0.2454
  102OSM   C13F10384   4.440   4.803   9.112  0.1629 -0.2421 -0.0637
  102OSM   H13F10385   4.382   4.711   9.090  0.0510 -0.3190  0.5429
  102OSM   H13G10386   4.526   4.802   9.042  0.5785  0.0679  0.4413
  102OSM   C14F10387   4.364   4.928   9.084  0.2138 -0.6457 -0.1931
  102OSM   H14F10388   4.275   4.922   9.151  0.5478  0.9357  0.4266
  102OSM   H14G10389   4.328   4.921   8.979 -0.4402  2.0639 -0.1993
  102OSM   C15F10390   4.436   5.057   9.098  0.3724 -0.2558  0.2716
  102OSM   H15F10391   4.531   5.053   9.041  1.1215  1.3170  1.3275
  102OSM   H15G10392   4.468   5.069   9.204 -1.1208 -1.0232  0.8413
  102OSM   C16F10393   4.343   5.181   9.066 -0.3022  0.6601  0.5250
  102OSM   H16F10394   4.268   5.181   9.148  0.5892  1.0451  1.3498
  102OSM   H16G10395   4.304   5.166   8.963  1.3884 -1.8800  0.1760
  102OSM   C17F10396   4.433   5.306   9.073 -0.1649 -0.5731  0.1143
  102OSM   H17F10397   4.512   5.296   8.995 -0.6616 -0.9202 -0.3506
  102OSM   H17G10398   4.489   5.309   9.169  0.4335 -1.0443 -0.2075
  102OSM   C18F10399   4.360   5.437   9.050  0.3714 -0.4445 -0.4330
  102OSM   H18F10400   4.425   5.527   9.056  1.5047 -1.2216 -0.7056
  102OSM   H18G10401   4.279   5.444   9.125 -0.2637 -0.1166 -1.1400
  102OSM   H18H10402   4.314   5.435   8.949 -0.2476  2.2244 -0.2770
  103OSM      N10403   4.504   0.657  11.417  0.4983 -0.2386 -0.1748
  103OSM    C1510404   4.645   0.653  11.473 -0.0439  0.3576  0.0045
  103OSM   H15A10405   4.663   0.713  11.561 -1.2423  0.7692 -0.0153
  103OSM   H15B10406   4.709   0.696  11.397  3.2711  0.5200  2.6438
  103OSM   H15C10407   4.666   0.550  11.497  1.6348  0.7812  0.4955
  103OSM    C1410408   4.406   0.618  11.523 -0.7533  0.2023  0.4507
  103OSM   H14A10409   4.397   0.694  11.599 -0.9200  1.3814 -0.7059
  103OSM   H14B10410   4.425   0.522  11.569  0.3579 -0.1332 -0.6682
  103OSM   H14C10411   4.307   0.614  11.480 -0.3349  0.7346 -0.5894
  103OSM    C1310412   4.474   0.803  11.386  0.4812  0.7019 -0.3593
  103OSM   H13A10413   4.511   0.878  11.454  0.9869 -0.1636  0.3455
  103OSM   H13B10414   4.367   0.812  11.381  0.5566  1.8171 -0.3191
  103OSM   H13C10415   4.509   0.819  11.285  3.0731  0.7921  0.4745
  103OSM    C1210416   4.506   0.569  11.294  0.4528  0.2964 -0.0213
  103OSM   H12A10417   4.407   0.574  11.251  1.0117  1.7503 -1.2565
  103OSM   H12B10418   4.535   0.468  11.319  0.0821  0.1639 -0.1182
  103OSM    C1110419   4.596   0.615  11.176  0.4296  0.4769 -0.4139
  103OSM   H11A10420   4.606   0.531  11.104  2.9776 -1.4690  1.9899
  103OSM   H11B10421   4.701   0.640  11.204  0.6694 -0.8567 -0.0348
  103OSM      P10422   4.614   0.833  11.024 -0.1454  0.4424 -0.5311
  103OSM    O1310423   4.525   0.938  10.981  0.2561  0.3037 -0.1003
  103OSM    O1410424   4.737   0.862  11.101  0.2768  0.2830  0.8367
  103OSM    O1110425   4.658   0.749  10.889  0.4919  0.3135 -0.9796
  103OSM    O1210426   4.529   0.721  11.100  0.0412  0.1606 -0.0831
  103OSM    C1S10427   4.559   0.708  10.802  0.5501  0.1606  0.5636
  103OSM    H1S10428   4.486   0.785  10.769 -0.5083 -1.7227 -1.7610
  103OSM    H1T10429   4.505   0.619  10.839 -1.3423  0.5468 -1.1003
  103OSM     NF10430   4.528   0.689  10.552 -0.1135  0.2703  0.2262
  103OSM    HNF10431   4.493   0.607  10.508 -2.7351  1.9948 -1.1329
  103OSM    C2S10432   4.629   0.675  10.664  0.4962  0.1742 -0.5119
  103OSM    H2S10433   4.712   0.747  10.647  0.9674 -0.3731 -0.5455
  103OSM    C3S10434   4.698   0.539  10.674 -0.3526 -0.1536 -0.2092
  103OSM    H3S10435   4.619   0.468  10.708 -0.3594  0.2691  0.7023
  103OSM     O310436   4.797   0.533  10.774 -0.5633  0.8263 -0.1137
  103OSM    HO310437   4.781   0.612  10.826  1.2505  0.7874  0.5539
  103OSM    C4S10438   4.756   0.482  10.549 -0.1250  0.1262 -0.7082
  103OSM    H4S10439   4.829   0.549  10.502  3.1128 -2.2328  0.6120
  103OSM    C5S10440   4.729   0.365  10.492  0.0239  0.2558 -0.7105
  103OSM    H5S10441   4.665   0.292  10.542 -0.8916  2.7605  2.0379
  103OSM    C6S10442   4.785   0.308  10.366 -0.2497  0.4450  0.3338
  103OSM    H6S10443   4.844   0.215  10.378  0.1020  0.6489  0.2052
  103OSM    H6T10444   4.851   0.390  10.330  1.6967 -0.1981  2.1782
  103OSM    C7S10445   4.682   0.270  10.258  0.1635 -0.2604 -0.3213
  103OSM    H7S10446   4.626   0.359  10.223 -1.3835 -1.4849 -1.0977
  103OSM    H7T10447   4.607   0.191  10.280 -1.4353  0.3136 -3.3091
  103OSM    C8S10448   4.740   0.214  10.127 -0.2031 -0.1859 -0.7273
  103OSM    H8S10449   4.792   0.117  10.142 -1.5079 -0.7158  0.5969
  103OSM    H8T10450   4.815   0.292  10.105  1.0393 -0.8483  0.9794
  103OSM    C9S10451   4.644   0.212  10.005 -0.6606  0.1275  0.1884
  103OSM    H9S10452   4.596   0.312  10.005  0.0389  0.4655  0.4860
  103OSM    H9T10453   4.576   0.125  10.019  1.3120 -1.5856 -0.4837
  103OSM   C10S10454   4.703   0.191   9.861  0.2353  0.2875 -0.1760
  103OSM   H10S10455   4.759   0.095   9.862 -1.2054 -0.7616  4.0202
  103OSM   H10T10456   4.775   0.272   9.839  0.0630  1.1151  2.0665
  103OSM   C11S10457   4.586   0.174   9.760 -0.5355 -0.2423  0.4933
  103OSM   H11S10458   4.508   0.253   9.759 -0.5721 -0.2802 -0.5595
  103OSM   H11T10459   4.547   0.073   9.784 -0.2564 -0.3414  0.5344
  103OSM   C12S10460   4.647   0.167   9.620 -0.1782 -0.0396  0.1075
  103OSM   H12S10461   4.706   0.077   9.593 -1.3293 -0.4649 -1.1311
  103OSM   H12T10462   4.717   0.252   9.603  1.0899 -1.1345 -0.3315
  103OSM   C13S10463   4.537   0.185   9.522  0.0827  0.1920 -0.1996
  103OSM   H13S10464   4.454   0.251   9.555 -0.6752 -1.6539  1.8959
  103OSM   H13T10465   4.492   0.083   9.522  1.9731 -0.6938 -1.5691
  103OSM   C14S10466   4.591   0.215   9.380  0.7401  0.0595 -0.3470
  103OSM   H14S10467   4.668   0.137   9.359  0.6260 -0.8304  2.1590
  103OSM   H14T10468   4.633   0.317   9.374 -1.5442  1.1080  0.4334
  103OSM   C15S10469   4.484   0.193   9.273 -0.4604  0.2439  0.2731
  103OSM   H15S10470   4.413   0.279   9.277 -1.8989 -0.8923 -0.0586
  103OSM   H15T10471   4.422   0.105   9.297 -0.2809  0.1362  0.3468
  103OSM   C16S10472   4.532   0.201   9.131 -0.3860 -0.3593 -0.1590
  103OSM   H16S10473   4.451   0.180   9.059 -1.7456 -0.1542  1.2424
  103OSM   H16T10474   4.613   0.126   9.117  1.7359  1.6441  0.6197
  103OSM   C17S10475   4.597   0.338   9.094 -0.5309 -0.6587 -0.3479
  103OSM   H17S10476   4.684   0.352   9.162 -0.8378 -1.7431  0.2871
  103OSM   H17T10477   4.516   0.412   9.111 -0.2056 -0.5032  0.6422
  103OSM   C18S10478   4.657   0.348   8.949  0.3186  0.0565 -0.0919
  103OSM   H18S10479   4.574   0.340   8.876 -2.9133 -2.9531  3.4340
  103OSM   H18T10480   4.706   0.252   8.922 -2.5354 -0.8007 -2.9114
  103OSM   H18U10481   4.718   0.439   8.932  1.8432 -0.8959  0.1381
  103OSM    C1F10482   4.479   0.806  10.515 -0.4320  0.3629 -0.0159
  103OSM     OF10483   4.514   0.909  10.577 -0.0770  0.2927 -0.5035
  103OSM    C2F10484   4.396   0.809  10.390 -0.0043  0.3168 -0.3619
  103OSM    H2F10485   4.361   0.915  10.383  0.4545  0.5462  0.6448
  103OSM    H2G10486   4.302   0.751  10.396 -1.0636  1.7809 -1.8747
  103OSM    C3F10487   4.484   0.769  10.272 -1.1997 -0.0230 -0.2356
  103OSM    H3F10488   4.501   0.660  10.284  0.5982  0.2181 -0.2622
  103OSM    H3G10489   4.585   0.814  10.279 -1.0938 -0.4735  1.5403
  103OSM    C4F10490   4.430   0.790  10.134 -0.0006  0.3171 -0.0407
  103OSM    H4F10491   4.424   0.899  10.114  2.0804  0.1401 -2.1694
  103OSM    H4G10492   4.328   0.746  10.138 -0.8665  2.1106 -1.2158
  103OSM    C5F10493   4.509   0.709  10.031  0.2294  0.4225 -0.0675
  103OSM    H5F10494   4.526   0.605  10.067  1.0779  0.6341  0.1609
  103OSM    H5G10495   4.611   0.750  10.012  1.0381 -1.0273  0.9557
  103OSM    C6F10496   4.434   0.689   9.894  0.4305 -0.1780 -0.7786
  103OSM    H6F10497   4.409   0.786   9.846  0.9088  0.0052 -0.6626
  103OSM    H6G10498   4.344   0.629   9.918  1.1885 -0.8362  0.5186
  103OSM    C7F10499   4.506   0.599   9.791 -0.4228 -0.3528 -0.2784
  103OSM    H7F10500   4.526   0.507   9.851 -2.6367 -0.4549  0.3659
  103OSM    H7G10501   4.596   0.654   9.755 -1.6906  2.3538  0.4752
  103OSM    C8F10502   4.416   0.564   9.671  0.5365 -0.0703 -0.1131
  103OSM    H8F10503   4.335   0.640   9.667 -1.0675 -1.4886  2.7034
  103OSM    H8G10504   4.355   0.472   9.688 -1.8561  1.0509 -2.0012
  103OSM    C9F10505   4.500   0.547   9.543 -0.2199  0.3492 -0.0298
  103OSM    H9F10506   4.543   0.446   9.539 -0.7743  0.0412  1.3257
  103OSM   C10F10507   4.537   0.642   9.458  0.0035  0.2870  0.8147
  103OSM   H10F10508   4.608   0.623   9.376  0.7582 -0.9888  1.7328
  103OSM   C11F10509   4.490   0.790   9.452  0.1099  0.2138  0.4188
  103OSM   H11F10510   4.419   0.820   9.532  0.7809 -0.0635  1.1310
  103OSM   H11G10511   4.441   0.810   9.354  0.2835  1.2427  0.5341
  103OSM   C12F10512   4.614   0.880   9.439  0.4406  0.1947 -0.1742
  103OSM   H12F10513   4.584   0.984   9.417  0.7953  0.1483 -0.8884
  103OSM   H12G10514   4.681   0.838   9.361  0.1721 -2.5283  0.9548
  103OSM   C13F10515   4.688   0.881   9.573 -0.2794 -0.6604  0.3823
  103OSM   H13F10516   4.692   0.779   9.617  1.8242 -1.7103 -1.9997
  103OSM   H13G10517   4.786   0.929   9.554 -0.5856 -0.9971 -2.5058
  103OSM   C14F10518   4.611   0.960   9.675 -0.0638 -0.4858  0.1606
  103OSM   H14F10519   4.517   0.906   9.701 -0.6939 -1.1160 -2.9984
  103OSM   H14G10520   4.565   1.051   9.631 -3.2477 -2.2006 -0.3568
  103OSM   C15F10521   4.689   0.981   9.807 -0.4476  0.2085  0.1908
  103OSM   H15F10522   4.733   0.884   9.839  0.4332  0.6001  0.2181
  103OSM   H15G10523   4.609   1.017   9.875 -2.4312  0.2456 -2.0483
  103OSM   C16F10524   4.807   1.080   9.799 -0.5661 -0.5645 -0.7515
  103OSM   H16F10525   4.761   1.180   9.786 -0.2728 -0.2789  0.2504
  103OSM   H16G10526   4.877   1.067   9.714  0.3968 -1.9680  0.2172
  103OSM   C17F10527   4.896   1.093   9.924 -0.0586  0.8020 -0.6260
  103OSM   H17F10528   4.958   1.184   9.912  0.7646  0.2037 -1.0155
  103OSM   H17G10529   4.961   1.003   9.929  1.9147  2.2087  0.9235
  103OSM   C18F10530   4.821   1.105  10.061 -0.2088 -0.2903 -0.1893
  103OSM   H18F10531   4.752   1.019  10.068  1.2873 -1.6645 -1.5145
  103OSM   H18G10532   4.781   1.208  10.064 -0.3979 -0.1239 -3.7973
  103OSM   H18H10533   4.888   1.083  10.147 -0.0511  1.1214  0.0707
  104OSM      N10534   1.003   6.441  10.946 -0.2554  0.4989 -0.2052
  104OSM    C1510535   0.979   6.381  11.080 -0.1033  0.3794  0.4076
  104OSM   H15A10536   0.969   6.456  11.157  0.7890 -0.3073  1.2242
  104OSM   H15B10537   1.057   6.318  11.119 -1.1028 -1.5778 -0.5768
  104OSM   H15C10538   0.882   6.333  11.088 -0.9982  2.3192  1.8922
  104OSM    C1410539   1.135   6.512  10.963 -0.2259  0.3230 -0.1562
  104OSM   H14A10540   1.170   6.540  10.864  3.1817  0.8300  1.0758
  104OSM   H14B10541   1.206   6.448  11.012  0.3479 -1.2662 -2.8504
  104OSM   H14C10542   1.120   6.608  11.011 -0.6674  0.0062  0.3387
  104OSM    C1310543   1.026   6.328  10.858 -0.0924  0.0926 -0.1751
  104OSM   H13A10544   1.110   6.269  10.892 -0.4131 -1.4467 -1.8919
  104OSM   H13B10545   1.044   6.350  10.754 -0.7857 -1.1984 -0.5934
  104OSM   H13C10546   0.941   6.262  10.852 -0.1484  0.2086 -0.7380
  104OSM    C1210547   0.881   6.523  10.901 -0.2799  0.3805  0.1393
  104OSM   H12A10548   0.871   6.614  10.959 -1.7200  1.0190 -1.0488
  104OSM   H12B10549   0.786   6.474  10.915 -0.9209  1.4511 -0.3538
  104OSM    C1110550   0.890   6.579  10.758  0.2572 -0.3970 -0.2314
  104OSM   H11A10551   0.795   6.634  10.746 -0.6695 -2.2238 -1.7392
  104OSM   H11B10552   0.880   6.498  10.682 -1.1308 -1.5302  1.0918
  104OSM      P10553   1.012   6.814  10.754  0.2012 -0.1447  0.2502
  104OSM    O1310554   0.923   6.848  10.869  0.1115 -0.8764  0.0359
  104OSM    O1410555   1.153   6.853  10.766  0.2972  0.0979  0.1919
  104OSM    O1110556   0.960   6.863  10.609  1.1396  0.0002 -0.0841
  104OSM    O1210557   1.007   6.656  10.736 -0.2338  0.7238  0.1270
  104OSM    C1S10558   1.040   6.847  10.493 -0.1622  0.6060 -0.1833
  104OSM    H1S10559   1.104   6.757  10.505 -1.7208 -1.1477 -3.5574
  104OSM    H1T10560   1.101   6.939  10.482  0.8399 -0.2097 -1.7680
  104OSM     NF10561   1.038   6.794  10.244 -0.0999  0.1681 -0.0476
  104OSM    HNF10562   1.038   6.856  10.166 -0.3035 -0.6522 -0.7183
  104OSM    C2S10563   0.957   6.825  10.361  0.3006  0.0748 -0.5072
  104OSM    H2S10564   0.888   6.739  10.371  0.1638  0.2655  0.2545
  104OSM    C3S10565   0.867   6.954  10.337  0.7511 -0.6785 -0.5634
  104OSM    H3S10566   0.933   7.041  10.316  0.1252  0.0457  0.3673
  104OSM     O310567   0.793   6.996  10.448  0.5163 -0.2840  0.7056
  104OSM    HO310568   0.821   6.943  10.523 -1.0236  0.7333  2.0580
  104OSM    C4S10569   0.784   6.933  10.213  0.0132 -0.5282  0.3334
  104OSM    H4S10570   0.847   6.956  10.126 -0.4766 -2.2090 -0.5049
  104OSM    C5S10571   0.661   6.888  10.206 -0.2588  0.3202  0.8412
  104OSM    H5S10572   0.602   6.871  10.297  0.6377 -0.0539  1.3743
  104OSM    C6S10573   0.580   6.866  10.082  0.5556  0.0924  0.1090
  104OSM    H6S10574   0.476   6.894  10.106  0.4166 -0.9951  0.8702
  104OSM    H6T10575   0.578   6.755  10.071 -0.3793  0.0728  0.4406
  104OSM    C7S10576   0.623   6.933   9.953 -0.6730 -0.2879  0.2505
  104OSM    H7S10577   0.732   6.922   9.935 -0.1384 -0.0838  2.9944
  104OSM    H7T10578   0.602   7.042   9.960 -1.5022 -0.4955  1.2655
  104OSM    C8S10579   0.553   6.880   9.828  0.9381 -0.4416  0.1603
  104OSM    H8S10580   0.449   6.857   9.857 -0.0305  2.4910 -0.6383
  104OSM    H8T10581   0.595   6.781   9.800  1.5673 -0.5918  1.5358
  104OSM    C9S10582   0.552   6.966   9.705  0.7346  0.8059 -0.0902
  104OSM    H9S10583   0.652   7.013   9.699  1.4304 -0.7102 -0.7864
  104OSM    H9T10584   0.480   7.050   9.716 -0.9956 -0.8194  2.3209
  104OSM   C10S10585   0.525   6.880   9.574 -0.3684 -0.2210  0.2101
  104OSM   H10S10586   0.422   6.839   9.588  0.3317 -3.2331 -2.2816
  104OSM   H10T10587   0.597   6.795   9.581  0.7227  0.8132  2.7220
  104OSM   C11S10588   0.536   6.958   9.444 -0.2455 -0.5021 -0.4182
  104OSM   H11S10589   0.642   6.986   9.429 -0.7277  1.6382 -0.1616
  104OSM   H11T10590   0.493   7.058   9.464 -0.8036 -0.7557 -0.3228
  104OSM   C12S10591   0.464   6.878   9.332 -0.4304 -0.7125  0.4069
  104OSM   H12S10592   0.358   6.855   9.355 -0.8482  0.3893 -0.3038
  104OSM   H12T10593   0.521   6.784   9.316 -0.7387 -0.9277  0.5824
  104OSM   C13S10594   0.457   6.955   9.194 -0.3866  0.4469 -0.4289
  104OSM   H13S10595   0.441   7.062   9.216 -0.2539  0.4005 -0.1055
  104OSM   H13T10596   0.368   6.916   9.139 -1.2032  0.8548  0.5778
  104OSM   C14S10597   0.579   6.930   9.112  0.4820  0.6037 -0.2808
  104OSM   H14S10598   0.665   6.959   9.175 -0.8497  0.2437  1.7930
  104OSM   H14T10599   0.574   7.005   9.030 -2.7062  3.7717  2.4935
  104OSM   C15S10600   0.588   6.788   9.054  0.6059 -0.0623  0.0238
  104OSM   H15S10601   0.486   6.751   9.029  0.9144  0.0418 -1.5370
  104OSM   H15T10602   0.636   6.721   9.128 -0.2520  1.8928  2.4882
  104OSM   C16S10603   0.670   6.789   8.919 -0.3317 -0.0699  0.2109
  104OSM   H16S10604   0.768   6.820   8.961 -0.4578 -0.0366  0.4829
  104OSM   H16T10605   0.630   6.864   8.847  0.5204 -0.3413 -0.5643
  104OSM   C17S10606   0.668   6.655   8.844  0.6498  0.1869 -0.1101
  104OSM   H17S10607   0.696   6.575   8.916 -2.4694 -1.9000 -0.9966
  104OSM   H17T10608   0.740   6.656   8.759 -0.8550  1.6245 -1.4478
  104OSM   C18S10609   0.535   6.601   8.784 -0.1731  1.0124  0.1693
  104OSM   H18S10610   0.484   6.672   8.715  0.3162  1.3678  0.1612
  104OSM   H18T10611   0.477   6.601   8.878 -1.9023  2.3295 -0.8482
  104OSM   H18U10612   0.554   6.505   8.732  0.4707  1.8090 -1.1278
  104OSM    C1F10613   1.115   6.686  10.237  1.1674 -0.3773 -0.0809
  104OSM     OF10614   1.089   6.586  10.304 -0.1799  0.2827 -0.1866
  104OSM    C2F10615   1.211   6.693  10.119 -0.1127  0.5926 -0.4713
  104OSM    H2F10616   1.276   6.782  10.128 -0.7811  0.9286  1.3264
  104OSM    H2G10617   1.151   6.705  10.026 -0.4948 -2.2185 -0.7000
  104OSM    C3F10618   1.309   6.574  10.116  0.3533  0.3155 -0.2183
  104OSM    H3F10619   1.240   6.488  10.112  0.2153  0.0463  3.6360
  104OSM    H3G10620   1.370   6.568  10.209 -1.7592 -0.2575  1.1895
  104OSM    C4F10621   1.392   6.564   9.985  0.7578 -0.8449  0.2819
  104OSM    H4F10622   1.466   6.483  10.004  0.7522 -0.7408  0.7642
  104OSM    H4G10623   1.447   6.660   9.979 -2.7470  1.2360 -0.9051
  104OSM    C5F10624   1.315   6.549   9.852  0.1474 -0.1653  1.0405
  104OSM    H5F10625   1.253   6.641   9.839  1.2835  0.8284  2.3442
  104OSM    H5G10626   1.249   6.460   9.862  0.0732 -0.4860 -1.6344
  104OSM    C6F10627   1.415   6.523   9.736  0.0785 -0.0349  0.0971
  104OSM    H6F10628   1.481   6.436   9.758 -1.0273 -0.9506 -0.1023
  104OSM    H6G10629   1.479   6.611   9.713 -0.5860  1.2996  2.8773
  104OSM    C7F10630   1.334   6.487   9.599 -0.0236  0.5355  0.4350
  104OSM    H7F10631   1.247   6.555   9.591 -0.7286 -0.3942 -0.1058
  104OSM    H7G10632   1.296   6.383   9.615  0.1121  0.5282  0.7069
  104OSM    C8F10633   1.416   6.476   9.473 -0.1716  0.0294  0.0331
  104OSM    H8F10634   1.502   6.406   9.485  0.8528  0.7384 -2.5427
  104OSM    H8G10635   1.457   6.577   9.453  0.6595 -0.2661  0.2135
  104OSM    C9F10636   1.350   6.427   9.349  1.0961 -0.4142 -0.0532
  104OSM    H9F10637   1.254   6.381   9.375  1.0697 -0.2323  0.1693
  104OSM   C10F10638   1.393   6.444   9.224 -0.7418 -0.0931  0.3762
  104OSM   H10F10639   1.338   6.397   9.141  1.8399 -1.3156 -0.7589
  104OSM   C11F10640   1.522   6.515   9.184  0.1246  0.3042 -0.1502
  104OSM   H11F10641   1.600   6.443   9.217 -0.5140  0.8862  2.9669
  104OSM   H11G10642   1.543   6.608   9.242  0.8513 -0.9629  1.6833
  104OSM   C12F10643   1.543   6.544   9.031  0.4908  0.1623  0.6725
  104OSM   H12F10644   1.465   6.611   8.989  1.0279 -0.5127 -1.5171
  104OSM   H12G10645   1.535   6.446   8.979 -0.5747  1.0876 -0.9687
  104OSM   C13F10646   1.675   6.611   9.011 -0.0906 -0.3473 -0.0535
  104OSM   H13F10647   1.747   6.542   9.059 -1.4774 -2.6224 -1.0855
  104OSM   H13G10648   1.684   6.705   9.071  1.1488  0.8619 -2.0157
  104OSM   C14F10649   1.708   6.613   8.866  0.6652  0.6245 -0.0116
  104OSM   H14F10650   1.678   6.515   8.823  0.2244 -0.0395  1.7479
  104OSM   H14G10651   1.819   6.613   8.853  0.6865  1.7571  0.0171
  104OSM   C15F10652   1.641   6.730   8.782  0.2309  0.1290 -0.8250
  104OSM   H15F10653   1.654   6.827   8.836  1.0670  0.9262 -2.3936
  104OSM   H15G10654   1.531   6.720   8.770  0.1092  1.4339 -0.9588
  104OSM   C16F10655   1.697   6.740   8.636 -1.0063 -0.4626  0.1935
  104OSM   H16F10656   1.707   6.635   8.601  1.4033 -1.1302  2.5782
  104OSM   H16G10657   1.799   6.781   8.651 -0.1198 -2.7187  0.6140
  104OSM   C17F10658   1.618   6.833   8.548 -0.5827 -0.8723 -0.5070
  104OSM   H17F10659   1.512   6.800   8.545 -0.4125 -1.4049 -1.0139
  104OSM   H17G10660   1.659   6.818   8.446  0.6629 -0.3480 -0.1017
  104OSM   C18F10661   1.641   6.982   8.577 -0.4746  0.1372 -0.0388
  104OSM   H18F10662   1.617   6.995   8.685 -1.7937 -0.6916 -0.2119
  104OSM   H18G10663   1.566   7.036   8.515  0.8204  1.2289 -0.7077
  104OSM   H18H10664   1.740   7.024   8.551 -0.2300  1.0950  2.2477
  105OSM      N10665   0.483   6.816  10.684  0.0084  0.5051 -0.2477
  105OSM    C1510666   0.533   6.732  10.796  0.7804  1.2854 -0.0184
  105OSM   H15A10667   0.595   6.647  10.772  0.0006  0.2236  1.5124
  105OSM   H15B10668   0.453   6.695  10.858  3.0339 -1.3607  1.5362
  105OSM   H15C10669   0.603   6.787  10.857  3.6357 -1.0237 -1.0043
  105OSM    C1410670   0.337   6.863  10.722 -0.4566 -0.6752 -0.1163
  105OSM   H14A10671   0.272   6.783  10.752  0.2325 -1.0847  0.3238
  105OSM   H14B10672   0.294   6.928  10.647 -1.4085 -0.9315  0.1953
  105OSM   H14C10673   0.358   6.925  10.808 -0.4070 -1.5257  0.5054
  105OSM    C1310674   0.566   6.931  10.661 -0.1971 -0.2658 -0.1850
  105OSM   H13A10675   0.533   6.998  10.583  0.9082  0.7530  0.1748
  105OSM   H13B10676   0.659   6.889  10.626  0.2509 -0.8603  1.6039
  105OSM   H13C10677   0.592   6.995  10.745 -0.0771  0.3225 -0.6664
  105OSM    C1210678   0.463   6.731  10.558 -0.5611  0.3716  0.1405
  105OSM   H12A10679   0.422   6.788  10.477 -1.4044  1.1125  1.0679
  105OSM   H12B10680   0.391   6.653  10.578 -0.5192 -0.0329 -1.1968
  105OSM    C1110681   0.583   6.652  10.494 -0.3464  0.0365 -0.3070
  105OSM   H11A10682   0.670   6.721  10.495  0.0538 -0.4507  1.1086
  105OSM   H11B10683   0.562   6.614  10.392 -0.2386 -2.2046  0.4552
  105OSM      P10684   0.572   6.402  10.580 -0.0760 -0.2234 -0.1651
  105OSM    O1310685   0.623   6.322  10.701  0.0560  0.2992  0.3184
  105OSM    O1410686   0.424   6.406  10.566  0.2794  0.0688 -0.4678
  105OSM    O1110687   0.631   6.344  10.453 -0.2685 -0.1695  0.9569
  105OSM    O1210688   0.616   6.548  10.586 -0.4357 -0.0505 -0.5417
  105OSM    C1S10689   0.772   6.323  10.441 -0.1237  0.2453 -0.3271
  105OSM    H1S10690   0.803   6.229  10.491  1.4133 -0.8617 -3.1340
  105OSM    H1T10691   0.828   6.404  10.494  0.2252 -0.9348  1.1864
  105OSM     NF10692   0.958   6.317  10.280 -0.2895 -0.3820  0.1444
  105OSM    HNF10693   1.009   6.391  10.238 -0.7052 -0.0269  0.2628
  105OSM    C2S10694   0.810   6.320  10.293  0.0585 -0.4224  0.5589
  105OSM    H2S10695   0.780   6.222  10.250 -0.0996 -1.2263  2.4199
  105OSM    C3S10696   0.740   6.433  10.215 -0.2181  0.1245  0.0998
  105OSM    H3S10697   0.746   6.528  10.272 -2.4980 -0.0101  0.6590
  105OSM     O310698   0.595   6.411  10.196  0.3043  0.3579  0.0651
  105OSM    HO310699   0.564   6.369  10.276  0.7556 -0.2336 -0.0688
  105OSM    C4S10700   0.802   6.464  10.080 -0.3070 -0.1312 -0.0750
  105OSM    H4S10701   0.822   6.571  10.071 -4.1747  0.6608 -1.1810
  105OSM    C5S10702   0.814   6.388   9.971 -0.3055 -0.2290  0.2675
  105OSM    H5S10703   0.770   6.287   9.966  2.4150 -1.5059  0.2253
  105OSM    C6S10704   0.861   6.428   9.838 -0.5180 -0.9196  0.6743
  105OSM    H6S10705   0.794   6.382   9.762 -0.3866  1.8964 -1.3095
  105OSM    H6T10706   0.961   6.383   9.820 -0.3371 -0.0333 -0.7190
  105OSM    C7S10707   0.880   6.579   9.809  0.3164  0.6474  0.0175
  105OSM    H7S10708   0.954   6.607   9.887  0.7540 -1.6708  0.5063
  105OSM    H7T10709   0.789   6.640   9.828 -1.1880 -2.0714  2.5281
  105OSM    C8S10710   0.938   6.609   9.670  0.7301 -0.5428  0.0851
  105OSM    H8S10711   1.045   6.580   9.678  1.4910  2.2505  1.4059
  105OSM    H8T10712   0.934   6.719   9.667  1.5757 -0.4634  0.9352
  105OSM    C9S10713   0.863   6.543   9.556  0.4151 -0.5966 -0.8684
  105OSM    H9S10714   0.760   6.583   9.557  0.1740 -1.1376 -1.9835
  105OSM    H9T10715   0.874   6.433   9.563 -1.1456 -0.6427  2.1556
  105OSM   C10S10716   0.918   6.579   9.416 -0.3940 -0.2620  0.3158
  105OSM   H10S10717   1.029   6.574   9.409 -0.3575  0.4545  0.2230
  105OSM   H10T10718   0.889   6.686   9.404  0.0607  0.2469  3.1296
  105OSM   C11S10719   0.857   6.482   9.315  0.0497 -0.0084  0.2354
  105OSM   H11S10720   0.748   6.485   9.333 -0.1322  3.2134 -0.7018
  105OSM   H11T10721   0.890   6.377   9.329  1.8136  0.3893 -0.5712
  105OSM   C12S10722   0.877   6.528   9.166 -0.0793  0.1036 -0.0144
  105OSM   H12S10723   0.850   6.634   9.143  0.8637  1.0018  2.6278
  105OSM   H12T10724   0.802   6.467   9.112  1.5866 -1.7993 -0.2677
  105OSM   C13S10725   1.018   6.482   9.112  0.4292 -0.2797 -0.4986
  105OSM   H13S10726   1.041   6.375   9.133 -0.1603 -0.2499  0.3833
  105OSM   H13T10727   1.085   6.551   9.168 -1.2249  1.1076 -0.1390
  105OSM   C14S10728   1.032   6.494   8.962 -0.5705  0.1366  0.5096
  105OSM   H14S10729   1.014   6.600   8.936 -0.4632 -0.2535 -1.3342
  105OSM   H14T10730   0.964   6.421   8.913  0.6559  1.0791 -2.8866
  105OSM   C15S10731   1.173   6.454   8.912  0.3032  0.3238  0.4531
  105OSM   H15S10732   1.195   6.347   8.930 -0.1502  0.0540 -0.5734
  105OSM   H15T10733   1.247   6.509   8.976  1.3066 -0.5999  0.1190
  105OSM   C16S10734   1.199   6.484   8.764 -0.1490  0.2983 -0.2835
  105OSM   H16S10735   1.156   6.585   8.746  1.8231  1.5054  1.3908
  105OSM   H16T10736   1.136   6.408   8.712  0.4639  0.9597 -2.0842
  105OSM   C17S10737   1.341   6.489   8.709  0.3914  0.2618  0.3016
  105OSM   H17S10738   1.384   6.388   8.691  2.6347  1.6358 -3.0291
  105OSM   H17T10739   1.405   6.541   8.783 -0.2337 -0.0413  1.0690
  105OSM   C18S10740   1.359   6.564   8.579  0.4172  0.2913  0.5910
  105OSM   H18S10741   1.306   6.661   8.587 -0.4445  0.1561 -2.1866
  105OSM   H18T10742   1.313   6.522   8.486 -0.1093 -1.2383  1.4937
  105OSM   H18U10743   1.469   6.574   8.567  0.3020  0.2962 -0.6068
  105OSM    C1F10744   1.030   6.211  10.320  0.3576 -0.3772 -0.2796
  105OSM     OF10745   0.979   6.112  10.376 -0.4690  0.5333  0.1283
  105OSM    C2F10746   1.176   6.231  10.310  0.3715  0.2063 -0.4976
  105OSM    H2F10747   1.228   6.203  10.404  1.4659 -2.4556 -1.7797
  105OSM    H2G10748   1.192   6.338  10.285  0.7672  0.0646 -0.8619
  105OSM    C3F10749   1.251   6.141  10.203  0.0325  0.5363  0.3682
  105OSM    H3F10750   1.257   6.038  10.245 -0.5585  0.8247  1.1893
  105OSM    H3G10751   1.355   6.179  10.192 -0.1645  0.5018 -1.8876
  105OSM    C4F10752   1.188   6.160  10.068 -0.2842  0.5799  0.5098
  105OSM    H4F10753   1.203   6.265  10.034 -1.6177  0.9183  0.9046
  105OSM    H4G10754   1.083   6.125  10.065 -0.1609  0.1941  0.5842
  105OSM    C5F10755   1.268   6.074   9.965  0.4980  0.5975  0.1142
  105OSM    H5F10756   1.225   5.972   9.969 -0.6588  1.0417 -0.6867
  105OSM    H5G10757   1.370   6.066  10.011  0.7611 -1.4964 -0.7508
  105OSM    C6F10758   1.279   6.129   9.829  0.4645  0.0703  0.4668
  105OSM    H6F10759   1.336   6.224   9.834  0.9222 -0.1759  0.0073
  105OSM    H6G10760   1.175   6.146   9.794  0.7149 -0.2723 -0.4664
  105OSM    C7F10761   1.337   6.027   9.728  0.2695  0.0572 -0.2410
  105OSM    H7F10762   1.315   5.923   9.758 -2.2668  0.0729 -1.7502
  105OSM    H7G10763   1.448   6.035   9.726  0.1851  2.7848  1.2395
  105OSM    C8F10764   1.274   6.056   9.590 -0.0342  0.4314  0.8553
  105OSM    H8F10765   1.311   6.153   9.554 -0.3542  0.3325  0.2534
  105OSM    H8G10766   1.167   6.084   9.598  0.4044  1.9668  1.6865
  105OSM    C9F10767   1.273   5.938   9.496 -0.2122  0.8253  0.3694
  105OSM    H9F10768   1.210   5.851   9.521  0.0098  0.4675 -0.3115
  105OSM   C10F10769   1.343   5.933   9.382 -0.3526 -0.0922  0.4460
  105OSM   H10F10770   1.331   5.846   9.315 -0.7379  1.3621 -1.4563
  105OSM   C11F10771   1.432   6.037   9.321  0.0687 -0.4386  0.4893
  105OSM   H11F10772   1.534   5.995   9.333  0.3390 -0.4316 -1.4997
  105OSM   H11G10773   1.408   6.135   9.366 -1.7450  0.0332 -1.3477
  105OSM   C12F10774   1.426   6.072   9.169  0.5617 -0.4219  0.4491
  105OSM   H12F10775   1.508   6.145   9.149  1.1567 -1.0491  0.5947
  105OSM   H12G10776   1.331   6.125   9.146  0.7364 -0.3293 -0.0775
  105OSM   C13F10777   1.452   5.954   9.074 -0.2369 -0.4871  0.0076
  105OSM   H13F10778   1.390   5.870   9.111 -1.0512  1.7894  4.5610
  105OSM   H13G10779   1.554   5.913   9.093  0.8996  0.9639 -2.4005
  105OSM   C14F10780   1.433   5.999   8.927  0.4443  0.8706 -0.0847
  105OSM   H14F10781   1.332   6.045   8.931 -0.6216 -1.2384 -1.1686
  105OSM   H14G10782   1.434   5.916   8.853 -0.3059  1.4689 -0.7882
  105OSM   C15F10783   1.535   6.108   8.880  0.0369 -0.4737 -0.0944
  105OSM   H15F10784   1.639   6.082   8.911  0.0521 -0.6466 -0.2892
  105OSM   H15G10785   1.512   6.207   8.923  0.7411  0.2320 -1.2803
  105OSM   C16F10786   1.542   6.126   8.734  0.1659 -0.0414  0.2954
  105OSM   H16F10787   1.440   6.163   8.712 -0.4404 -0.3571  2.4360
  105OSM   H16G10788   1.559   6.034   8.673 -2.6491 -1.4223  1.4576
  105OSM   C17F10789   1.641   6.237   8.682  0.5686 -0.5842  0.0496
  105OSM   H17F10790   1.737   6.191   8.712  1.0453 -0.4712 -1.2598
  105OSM   H17G10791   1.633   6.337   8.731  1.0591  0.8652 -2.6612
  105OSM   C18F10792   1.647   6.274   8.529 -0.3705 -0.2503  0.7991
  105OSM   H18F10793   1.730   6.215   8.485  1.8593  0.8421  3.2729
  105OSM   H18G10794   1.686   6.376   8.506 -1.8074  0.8341  2.8707
  105OSM   H18H10795   1.558   6.239   8.474  0.8817 -0.5282 -1.1547
  106OSM      N10796   4.983   3.717  10.586  0.3309  0.4905  0.5327
  106OSM    C1510797   4.845   3.764  10.606  0.4677 -0.4756 -0.5358
  106OSM   H15A10798   4.778   3.711  10.539  0.2643 -1.3513  0.3488
  106OSM   H15B10799   4.827   3.870  10.589  0.1647 -0.5843 -0.9038
  106OSM   H15C10800   4.813   3.750  10.708 -3.5911 -1.2160 -1.7284
  106OSM    C1410801   5.009   3.723  10.447 -0.3263 -0.5799 -0.2402
  106OSM   H14A10802   5.004   3.828  10.420  2.4923 -0.3554 -0.2298
  106OSM   H14B10803   4.931   3.663  10.403 -1.2905  0.2102  0.3386
  106OSM   H14C10804   5.111   3.699  10.422 -0.0587 -0.1112  0.3767
  106OSM    C1310805   5.080   3.811  10.645 -0.1763  0.0381 -0.5914
  106OSM   H13A10806   5.077   3.809  10.753  0.6603 -0.4217 -0.5689
  106OSM   H13B10807   5.051   3.912  10.621 -0.7255  0.0564  0.1234
  106OSM   H13C10808   5.181   3.786  10.616  0.1831  0.2245  0.4650
  106OSM    C1210809   5.009   3.578  10.639  0.0408  0.2926  0.3904
  106OSM   H12A10810   5.011   3.585  10.746  1.8718  1.1074  0.3431
  106OSM   H12B10811   5.105   3.549  10.600 -0.3594 -3.3469  1.7403
  106OSM    C1110812   4.905   3.466  10.588 -0.1875 -0.4225 -0.1282
  106OSM   H11A10813   4.954   3.370  10.561 -1.0006 -1.3391  1.5679
  106OSM   H11B10814   4.864   3.498  10.490 -0.6495 -1.2149 -0.2001
  106OSM      P10815   4.733   3.311  10.697 -0.2632  0.2848 -0.2482
  106OSM    O1310816   4.831   3.198  10.724  0.6049 -0.6151  0.1467
  106OSM    O1410817   4.611   3.324  10.777 -0.2040 -0.3027  0.0624
  106OSM    O1110818   4.690   3.287  10.548 -0.1922 -0.0296  0.7175
  106OSM    O1210819   4.798   3.455  10.686  0.0197  0.0968  0.2367
  106OSM    C1S10820   4.602   3.374  10.478 -0.4352  0.3878  0.8735
  106OSM    H1S10821   4.632   3.481  10.480 -0.4974  0.4069  0.8101
  106OSM    H1T10822   4.500   3.366  10.522 -0.8239 -3.4470 -0.4004
  106OSM     NF10823   4.496   3.426  10.266 -0.0700 -0.0417 -0.3579
  106OSM    HNF10824   4.404   3.390  10.251 -0.5525  0.8953  0.2317
  106OSM    C2S10825   4.577   3.334  10.328  0.4587  0.1771 -0.8189
  106OSM    H2S10826   4.679   3.335  10.286  1.2219 -2.3762  0.7101
  106OSM    C3S10827   4.529   3.183  10.321  0.3706 -0.0913 -0.1658
  106OSM    H3S10828   4.433   3.178  10.377  0.4376  0.6619  0.0231
  106OSM     O310829   4.616   3.093  10.389  0.1529  0.2376  0.3445
  106OSM    HO310830   4.652   3.155  10.454  2.4934 -0.9826  0.3228
  106OSM    C4S10831   4.502   3.139  10.180  0.3662 -0.1880 -0.6701
  106OSM    H4S10832   4.399   3.145  10.143  0.7698 -2.0132 -2.2890
  106OSM    C5S10833   4.591   3.114  10.081 -0.1780 -0.1611  0.6527
  106OSM    H5S10834   4.699   3.117  10.099  0.2660  2.8085 -1.6287
  106OSM    C6S10835   4.543   3.062   9.945  0.0783 -0.3574  0.1336
  106OSM    H6S10836   4.436   3.087   9.929  0.9951  1.9177 -3.4100
  106OSM    H6T10837   4.568   2.953   9.941  2.5385  0.1660 -3.7278
  106OSM    C7S10838   4.619   3.144   9.838  0.0084  0.3375 -1.0434
  106OSM    H7S10839   4.727   3.124   9.851 -0.6224 -2.1483  1.3385
  106OSM    H7T10840   4.592   3.252   9.841 -0.7388  0.1442  0.8945
  106OSM    C8S10841   4.586   3.095   9.702  0.3619  0.2076  0.5614
  106OSM    H8S10842   4.478   3.106   9.676  0.2624  1.7829  1.4925
  106OSM    H8T10843   4.607   2.986   9.698  0.2407  0.2240 -1.1989
  106OSM    C9S10844   4.660   3.170   9.591  0.1078  0.1977  0.6935
  106OSM    H9S10845   4.768   3.176   9.615  0.2025  1.3851  0.0668
  106OSM    H9T10846   4.630   3.277   9.582  2.0561  0.7204 -0.1580
  106OSM   C10S10847   4.648   3.099   9.456 -0.1432  0.3410  0.5304
  106OSM   H10S10848   4.671   2.991   9.469 -0.2883  0.0106 -1.6348
  106OSM   H10T10849   4.735   3.144   9.403 -0.0362 -2.0044 -1.4908
  106OSM   C11S10850   4.515   3.131   9.387  0.2910 -0.9144  0.0815
  106OSM   H11S10851   4.495   3.240   9.394  3.2193 -0.3660  2.1777
  106OSM   H11T10852   4.443   3.091   9.462  2.1509 -1.1496  1.8621
  106OSM   C12S10853   4.496   3.053   9.258 -0.0001  0.0750  0.2556
  106OSM   H12S10854   4.391   3.067   9.226 -0.7462 -1.9297  1.6140
  106OSM   H12T10855   4.520   2.945   9.266  2.3150  0.5021 -0.1381
  106OSM   C13S10856   4.575   3.116   9.145  0.3911 -0.1639 -0.6502
  106OSM   H13S10857   4.682   3.089   9.159  0.5063  1.5810  2.9586
  106OSM   H13T10858   4.582   3.226   9.154  0.6270 -0.1798 -0.6290
  106OSM   C14S10859   4.529   3.070   9.005  0.3801  0.1279  0.3514
  106OSM   H14S10860   4.503   2.962   9.005 -1.2201  0.4610 -1.3825
  106OSM   H14T10861   4.618   3.078   8.939  1.0301  0.0961  1.2006
  106OSM   C15S10862   4.414   3.151   8.946  0.0648 -0.7067  0.6250
  106OSM   H15S10863   4.358   3.182   9.036 -0.5529 -0.1738  0.0715
  106OSM   H15T10864   4.352   3.074   8.895 -2.1135 -0.3613  2.5863
  106OSM   C16S10865   4.457   3.264   8.852 -0.4139  0.7404 -0.2826
  106OSM   H16S10866   4.514   3.214   8.771  1.4150 -0.2354  1.4921
  106OSM   H16T10867   4.516   3.339   8.909 -2.2336  0.9434  1.4403
  106OSM   C17S10868   4.350   3.341   8.786 -0.4988 -0.7490 -0.1699
  106OSM   H17S10869   4.395   3.430   8.737  2.3111 -2.4075 -0.8684
  106OSM   H17T10870   4.277   3.357   8.868 -1.7492 -0.3012 -1.3448
  106OSM   C18S10871   4.292   3.258   8.672 -0.0071 -0.7497 -0.5781
  106OSM   H18S10872   4.209   3.196   8.714  0.8528 -0.2289  2.0676
  106OSM   H18T10873   4.360   3.200   8.607  0.5831  0.4099 -1.0304
  106OSM   H18U10874   4.243   3.319   8.593 -2.0955 -1.1079  0.3653
  106OSM    C1F10875   4.526   3.548  10.233 -0.4113  0.1325 -0.4710
  106OSM     OF10876   4.644   3.595  10.249  0.4033  0.8740  0.1813
  106OSM    C2F10877   4.417   3.625  10.176  0.1451 -0.2620 -0.0559
  106OSM    H2F10878   4.364   3.677  10.258 -2.2190 -0.1753 -1.5635
  106OSM    H2G10879   4.341   3.559  10.130  2.0840 -0.8379 -2.6883
  106OSM    C3F10880   4.473   3.737  10.087  0.6611 -0.2684  0.0986
  106OSM    H3F10881   4.526   3.692  10.000  0.2689 -3.2100  1.2847
  106OSM    H3G10882   4.551   3.798  10.138  0.1656 -0.4828  1.1357
  106OSM    C4F10883   4.366   3.835  10.032  0.0424 -0.2093 -0.3748
  106OSM    H4F10884   4.299   3.877  10.110  0.4484 -0.4237  0.0963
  106OSM    H4G10885   4.301   3.774   9.966 -0.3234 -0.5446  0.2753
  106OSM    C5F10886   4.428   3.953   9.953 -0.1026 -0.3411 -1.0064
  106OSM    H5F10887   4.481   4.009  10.033  0.4465 -2.0833 -0.0946
  106OSM    H5G10888   4.346   4.019   9.916  0.0441  0.2623 -0.2823
  106OSM    C6F10889   4.513   3.910   9.827  0.1922 -0.2744 -0.2659
  106OSM    H6F10890   4.463   3.827   9.772 -1.3288  0.0931  0.5293
  106OSM    H6G10891   4.602   3.855   9.866  0.2610  0.0821  0.0807
  106OSM    C7F10892   4.539   4.025   9.727 -0.1357  0.0912  0.7391
  106OSM    H7F10893   4.635   4.063   9.766  0.0846  0.8278 -0.4747
  106OSM    H7G10894   4.453   4.095   9.734 -0.9442 -0.9008  1.0267
  106OSM    C8F10895   4.554   3.977   9.580 -0.6730 -0.2313 -0.1685
  106OSM    H8F10896   4.640   3.910   9.560  0.3300  1.5041 -2.0585
  106OSM    H8G10897   4.579   4.069   9.523 -1.0992 -0.6390 -1.0450
  106OSM    C9F10898   4.425   3.927   9.532  0.3222  0.8968  0.0548
  106OSM    H9F10899   4.356   3.899   9.613 -0.2760 -0.5712 -0.9186
  106OSM   C10F10900   4.384   3.920   9.401  0.0111  1.1090 -0.1228
  106OSM   H10F10901   4.283   3.880   9.385  0.1576  0.1409  1.2128
  106OSM   C11F10902   4.455   3.970   9.277  0.0558 -0.6169  0.1952
  106OSM   H11F10903   4.457   3.886   9.205 -0.8466 -0.2496 -0.2771
  106OSM   H11G10904   4.558   4.006   9.299 -0.2448 -0.0207  0.6922
  106OSM   C12F10905   4.375   4.088   9.215 -0.1275  0.4220  0.3071
  106OSM   H12F10906   4.358   4.168   9.290  0.1874  1.9806 -1.2186
  106OSM   H12G10907   4.275   4.049   9.187 -0.4328  1.2710  0.1728
  106OSM   C13F10908   4.451   4.151   9.093 -0.3357  0.2954  0.1850
  106OSM   H13F10909   4.486   4.072   9.024 -2.8280 -1.6288  0.9819
  106OSM   H13G10910   4.535   4.216   9.125  2.2560 -1.8986 -1.7343
  106OSM   C14F10911   4.353   4.249   9.022  0.4623  0.1599  0.3677
  106OSM   H14F10912   4.322   4.322   9.100  1.0571 -1.0957  1.8261
  106OSM   H14G10913   4.265   4.184   9.001 -0.7215  0.9217  2.6367
  106OSM   C15F10914   4.416   4.331   8.906 -0.4003 -0.1271 -0.0150
  106OSM   H15F10915   4.343   4.395   8.851  2.0138  0.6036 -2.6177
  106OSM   H15G10916   4.449   4.251   8.836 -0.9015  0.4311 -0.9113
  106OSM   C16F10917   4.540   4.418   8.925 -0.1112  0.1209 -0.2443
  106OSM   H16F10918   4.623   4.364   8.974 -0.8370  2.2533  3.7880
  106OSM   H16G10919   4.500   4.494   8.996 -1.5509  2.0650 -2.9481
  106OSM   C17F10920   4.597   4.495   8.803 -1.0191  0.2610  0.1222
  106OSM   H17F10921   4.517   4.514   8.729  0.9082 -0.8223 -2.4211
  106OSM   H17G10922   4.666   4.427   8.747 -2.1255  0.5963 -1.7433
  106OSM   C18F10923   4.668   4.628   8.842 -0.5284 -0.9126  0.0237
  106OSM   H18F10924   4.593   4.695   8.889 -0.0635 -0.3413 -0.0409
  106OSM   H18G10925   4.697   4.679   8.748  1.9255  0.1685  1.2837
  106OSM   H18H10926   4.755   4.623   8.910  0.5951  3.7261 -0.7763
  107OSM      N10927   3.668   0.898  10.639  0.2480  0.0713  0.2245
  107OSM    C1510928   3.578   0.900  10.522  0.0980  0.7430 -0.1619
  107OSM   H15A10929   3.499   0.826  10.528 -1.3428  2.2529  0.3723
  107OSM   H15B10930   3.628   0.880  10.429  1.6260  2.1162  0.3092
  107OSM   H15C10931   3.529   0.996  10.516 -0.4338  0.4356 -0.8613
  107OSM    C1410932   3.593   0.925  10.769 -0.3521 -0.3678 -0.3458
  107OSM   H14A10933   3.660   0.958  10.847 -0.4731  0.2793 -0.5136
  107OSM   H14B10934   3.544   0.834  10.803 -1.7454  0.8328  1.0527
  107OSM   H14C10935   3.519   1.004  10.764  2.0647  2.1132  0.6729
  107OSM    C1310936   3.721   0.756  10.650  0.2844  0.5266  0.2926
  107OSM   H13A10937   3.787   0.739  10.567 -1.1309  1.9071 -1.2026
  107OSM   H13B10938   3.638   0.687  10.646 -0.1516  1.0477  0.1488
  107OSM   H13C10939   3.784   0.740  10.736 -0.3558 -0.1540  0.6578
  107OSM    C1210940   3.785   0.996  10.625 -0.2450  0.1336  0.2273
  107OSM   H12A10941   3.757   1.097  10.596  1.1928  1.3122  2.6404
  107OSM   H12B10942   3.837   0.963  10.537  0.9930 -0.9235  1.3167
  107OSM    C1110943   3.878   1.001  10.743 -0.0113 -0.2853 -0.1241
  107OSM   H11A10944   3.985   1.020  10.718 -0.3743  0.8953 -0.8244
  107OSM   H11B10945   3.892   0.894  10.771 -0.6207 -0.2644  0.2795
  107OSM      P10946   3.840   1.233  10.852  0.0490  0.4038  0.3473
  107OSM    O1310947   3.702   1.295  10.880 -0.2384  1.0074 -0.0587
  107OSM    O1410948   3.949   1.267  10.944 -1.0053  0.5147 -1.1725
  107OSM    O1110949   3.871   1.281  10.700 -0.5003 -0.1051 -0.1083
  107OSM    O1210950   3.827   1.074  10.854 -0.0184  0.5677 -0.0599
  107OSM    C1S10951   4.008   1.323  10.667  0.5544  0.0483  0.7813
  107OSM    H1S10952   4.080   1.241  10.689  1.3189 -0.1062 -1.9584
  107OSM    H1T10953   4.031   1.423  10.709 -0.7515  0.9707 -0.6098
  107OSM     NF10954   4.145   1.350  10.469  0.3128 -0.2385  0.5240
  107OSM    HNF10955   4.183   1.441  10.457 -1.2035  0.2371 -1.1391
  107OSM    C2S10956   4.013   1.340  10.513  0.8310 -0.3707  0.3646
  107OSM    H2S10957   3.963   1.247  10.476  0.1303 -0.5167  1.6382
  107OSM    C3S10958   3.917   1.458  10.461 -0.4054  0.3243 -0.5230
  107OSM    H3S10959   3.967   1.552  10.493 -1.5995  0.9251 -0.3923
  107OSM     O310960   3.786   1.458  10.526 -0.0802 -0.4303 -0.2667
  107OSM    HO310961   3.786   1.390  10.593  0.6732 -1.0658 -0.8937
  107OSM    C4S10962   3.911   1.473  10.309  0.3054 -0.2724  0.2857
  107OSM    H4S10963   4.001   1.528  10.278 -0.6701  1.9756  1.1953
  107OSM    C5S10964   3.808   1.440  10.225 -0.1554  0.3322 -0.1355
  107OSM    H5S10965   3.721   1.393  10.273  0.9688 -3.2232 -1.3036
  107OSM    C6S10966   3.817   1.453  10.074 -0.2426  0.5025 -0.7251
  107OSM    H6S10967   3.751   1.536  10.041  0.8126  1.5810 -0.1826
  107OSM    H6T10968   3.769   1.360  10.037  1.8245 -1.2208  0.7068
  107OSM    C7S10969   3.951   1.482  10.001 -0.0999 -0.4457  0.0041
  107OSM    H7S10970   4.029   1.413  10.041  0.9663  1.0451  0.5766
  107OSM    H7T10971   3.994   1.582  10.022 -1.4604  0.1653 -0.0616
  107OSM    C8S10972   3.934   1.465   9.845  0.1913  0.5727 -0.3752
  107OSM    H8S10973   3.831   1.474   9.805 -0.4561 -0.5890  0.9384
  107OSM    H8T10974   3.941   1.355   9.830  0.4386  0.4276  0.7319
  107OSM    C9S10975   4.028   1.546   9.752  0.5156 -0.1367 -0.1745
  107OSM    H9S10976   4.129   1.512   9.784 -0.4195 -1.9324  1.1258
  107OSM    H9T10977   4.019   1.655   9.771 -2.5771  0.1127 -2.3780
  107OSM   C10S10978   4.002   1.511   9.607 -0.3315 -0.1786 -0.2733
  107OSM   H10S10979   3.998   1.400   9.600  0.1059 -0.2086 -0.0846
  107OSM   H10T10980   4.094   1.533   9.549  1.5382 -1.5323  2.0104
  107OSM   C11S10981   3.884   1.588   9.547  0.1059 -0.6791 -0.7794
  107OSM   H11S10982   3.889   1.698   9.556 -4.9344 -0.3250  1.0944
  107OSM   H11T10983   3.786   1.569   9.596 -0.6731 -0.1231 -2.0647
  107OSM   C12S10984   3.878   1.549   9.400  0.2008 -0.3840  0.1648
  107OSM   H12S10985   3.778   1.575   9.360  0.2879 -0.6350 -0.2272
  107OSM   H12T10986   3.892   1.442   9.374  2.0819 -0.7643  2.3731
  107OSM   C13S10987   3.985   1.617   9.318  0.3733  0.4250 -0.2281
  107OSM   H13S10988   4.085   1.568   9.321 -1.3560 -3.6240 -1.3925
  107OSM   H13T10989   3.994   1.724   9.348 -0.3254  0.7021 -0.9504
  107OSM   C14S10990   3.949   1.625   9.168 -0.0237  0.8351 -0.4422
  107OSM   H14S10991   3.848   1.655   9.134 -0.6364 -0.4644  0.1453
  107OSM   H14T10992   3.962   1.523   9.125 -1.0289  0.6406 -0.2998
  107OSM   C15S10993   4.068   1.694   9.108 -0.3436  0.6894 -0.8012
  107OSM   H15S10994   4.157   1.635   9.137  0.7649  2.2339 -0.8836
  107OSM   H15T10995   4.077   1.797   9.150  0.9258  0.3094 -0.0868
  107OSM   C16S10996   4.063   1.715   8.954 -0.3059  0.5885 -0.4861
  107OSM   H16S10997   3.981   1.779   8.915 -1.3029 -1.5713 -2.1454
  107OSM   H16T10998   4.033   1.614   8.919  1.0078 -0.1258  0.3564
  107OSM   C17S10999   4.205   1.757   8.896 -0.2795  0.0439  0.3000
  107OSM   H17S11000   4.272   1.705   8.968 -0.3138  1.5161  1.4385
  107OSM   H17T11001   4.222   1.866   8.910  1.2363 -0.2035  0.4869
  107OSM   C18S11002   4.219   1.717   8.759 -0.1496  0.2326 -0.1433
  107OSM   H18S11003   4.124   1.719   8.702 -0.8809  1.1172  1.0545
  107OSM   H18T11004   4.245   1.608   8.759  2.1095  0.6660  2.0630
  107OSM   H18U11005   4.303   1.774   8.715  0.7631 -0.4951  0.5983
  107OSM    C1F11006   4.224   1.244  10.470 -0.2693 -0.3650  0.4753
  107OSM     OF11007   4.175   1.133  10.461 -0.8082  0.2238 -0.0491
  107OSM    C2F11008   4.366   1.275  10.474  0.0841 -0.0153 -0.5594
  107OSM    H2F11009   4.416   1.219  10.557  0.9176  3.2717  1.3193
  107OSM    H2G11010   4.393   1.376  10.510  0.4903 -0.4207  0.3308
  107OSM    C3F11011   4.433   1.242  10.339  0.2621 -0.5532 -0.2361
  107OSM    H3F11012   4.420   1.133  10.323 -0.3832 -0.6726  1.0118
  107OSM    H3G11013   4.539   1.274  10.342  0.1365 -0.2107  0.7561
  107OSM    C4F11014   4.359   1.310  10.220  0.0997  0.2841  0.2699
  107OSM    H4F11015   4.379   1.418  10.231  2.1570 -0.2836  4.1860
  107OSM    H4G11016   4.250   1.288  10.216  0.3178 -1.0587  0.9002
  107OSM    C5F11017   4.413   1.257  10.089 -0.0863  0.0243 -0.0912
  107OSM    H5F11018   4.378   1.154  10.070 -0.8628  0.2775 -0.0863
  107OSM    H5G11019   4.524   1.255  10.093 -0.0030  1.2620 -1.1282
  107OSM    C6F11020   4.371   1.331   9.964  0.4445  0.2604  0.0045
  107OSM    H6F11021   4.409   1.435   9.971 -2.8535  1.6709 -1.1201
  107OSM    H6G11022   4.260   1.327   9.964  0.2448  3.3824  0.2085
  107OSM    C7F11023   4.408   1.247   9.836 -0.1663 -0.1420 -0.2242
  107OSM    H7F11024   4.396   1.136   9.840 -2.2740 -0.1742 -3.3560
  107OSM    H7G11025   4.517   1.268   9.830 -0.2717  0.1797 -1.1435
  107OSM    C8F11026   4.347   1.300   9.699 -0.4348 -0.5970 -0.3309
  107OSM    H8F11027   4.236   1.300   9.695 -0.6283 -0.0307  2.6547
  107OSM    H8G11028   4.396   1.231   9.627 -0.6749  1.0515 -2.1555
  107OSM    C9F11029   4.382   1.447   9.660 -0.0318  0.8857 -0.3586
  107OSM    H9F11030   4.397   1.510   9.749 -2.5750  0.4930  0.4438
  107OSM   C10F11031   4.377   1.498   9.538  0.3685  0.4493  0.5189
  107OSM   H10F11032   4.403   1.601   9.512 -1.7232  0.7443 -0.6394
  107OSM   C11F11033   4.336   1.416   9.416  0.3556 -0.3202  0.4624
  107OSM   H11F11034   4.259   1.456   9.347  0.5113 -3.8674 -2.0673
  107OSM   H11G11035   4.278   1.326   9.445 -1.2085 -0.2256 -2.0872
  107OSM   C12F11036   4.451   1.361   9.334  0.1241  0.6935 -0.2292
  107OSM   H12F11037   4.534   1.314   9.392 -0.3901 -0.0185 -0.0604
  107OSM   H12G11038   4.501   1.450   9.290  0.8472 -0.2061 -1.2654
  107OSM   C13F11039   4.417   1.259   9.222 -0.0475  0.1239  0.9584
  107OSM   H13F11040   4.310   1.278   9.199  0.5521  3.1825  0.2344
  107OSM   H13G11041   4.414   1.153   9.254  1.3338 -1.5089 -3.5104
  107OSM   C14F11042   4.500   1.276   9.092  0.7780  0.2849  0.3968
  107OSM   H14F11043   4.503   1.174   9.047 -1.4159 -0.0522  0.8995
  107OSM   H14G11044   4.602   1.296   9.130  0.6826  2.5860 -0.3775
  107OSM   C15F11045   4.447   1.383   8.998  0.3278 -0.0114 -0.5125
  107OSM   H15F11046   4.443   1.478   9.057 -2.0423  1.0752 -2.2649
  107OSM   H15G11047   4.344   1.358   8.966  1.1808 -0.4223 -3.1239
  107OSM   C16F11048   4.539   1.405   8.870  0.7714 -0.1324  0.5922
  107OSM   H16F11049   4.643   1.393   8.908 -0.2888 -1.3052  3.3907
  107OSM   H16G11050   4.508   1.504   8.830 -1.5746 -0.6881  0.8542
  107OSM   C17F11051   4.516   1.301   8.755 -0.3125 -0.0173  0.5230
  107OSM   H17F11052   4.406   1.294   8.740 -0.3510 -2.9445  1.5923
  107OSM   H17G11053   4.543   1.201   8.794  0.5356 -0.2508 -0.6121
  107OSM   C18F11054   4.584   1.336   8.626  0.5709 -0.3796  0.5335
  107OSM   H18F11055   4.570   1.253   8.554  0.6546  0.0993 -0.0499
  107OSM   H18G11056   4.693   1.353   8.639  0.8733 -1.2876 -0.6146
  107OSM   H18H11057   4.538   1.425   8.577  1.0255 -1.0131 -1.1249
  108OSM      N11058   6.626   6.265  11.028  0.7525 -0.0598 -0.3517
  108OSM    C1511059   6.755   6.334  11.003  0.0843 -0.5609 -0.0001
  108OSM   H15A11060   6.797   6.367  11.097 -1.4560  1.1204  0.1641
  108OSM   H15B11061   6.731   6.418  10.940 -1.8010  1.1251  2.7202
  108OSM   H15C11062   6.831   6.265  10.969 -0.4580 -1.2479  0.1504
  108OSM    C1411063   6.647   6.136  11.093  0.0886  0.2628 -0.7498
  108OSM   H14A11064   6.686   6.058  11.029 -0.6870 -1.4377  0.7517
  108OSM   H14B11065   6.555   6.101  11.138 -0.2727  0.3396 -1.4087
  108OSM   H14C11066   6.723   6.152  11.167  0.0601  0.5572 -0.7800
  108OSM    C1311067   6.560   6.374  11.122 -0.1840  0.5107 -0.0586
  108OSM   H13A11068   6.618   6.384  11.213  1.7395  0.2950 -1.1942
  108OSM   H13B11069   6.462   6.345  11.155  0.8897 -2.6418  0.6503
  108OSM   H13C11070   6.564   6.471  11.073  0.1247  0.8832  0.6822
  108OSM    C1211071   6.537   6.236  10.905  0.4906 -0.7079  0.0815
  108OSM   H12A11072   6.442   6.200  10.942 -0.1221  0.2154 -0.5637
  108OSM   H12B11073   6.582   6.149  10.861  1.1207 -0.1672 -0.3499
  108OSM    C1111074   6.510   6.352  10.805 -0.1029 -0.8793  0.1117
  108OSM   H11A11075   6.454   6.333  10.711  3.3058  0.7279 -2.4884
  108OSM   H11B11076   6.611   6.369  10.760 -0.8077  1.3129 -0.7591
  108OSM      P11077   6.520   6.613  10.844 -0.3540 -0.0959  0.3904
  108OSM    O1311078   6.438   6.710  10.916 -0.1178 -0.2091  0.0586
  108OSM    O1411079   6.665   6.625  10.856 -0.1022  0.0634  0.3898
  108OSM    O1111080   6.482   6.622  10.689 -0.5366 -0.4475 -0.5620
  108OSM    O1211081   6.468   6.468  10.872  0.2909 -0.1265 -0.0015
  108OSM    C1S11082   6.354   6.655  10.647 -0.4539 -0.1760  0.6570
  108OSM    H1S11083   6.327   6.752  10.694  0.2189  0.5790 -0.4504
  108OSM    H1T11084   6.281   6.582  10.687 -0.8141  0.0544  0.4290
  108OSM     NF11085   6.204   6.706  10.460  0.1182 -0.2494 -0.0091
  108OSM    HNF11086   6.140   6.631  10.450  2.1205 -1.9288 -1.0109
  108OSM    C2S11087   6.339   6.660  10.494  0.0831  0.4766 -0.0282
  108OSM    H2S11088   6.410   6.738  10.461 -0.0907  0.0154 -1.5824
  108OSM    C3S11089   6.380   6.525  10.428 -0.2084 -0.1148  0.3822
  108OSM    H3S11090   6.316   6.446  10.473  0.7385 -2.8381 -2.6599
  108OSM     O311091   6.515   6.491  10.450  0.1365  0.1977 -0.0306
  108OSM    HO311092   6.525   6.516  10.542 -0.3781  1.1444 -0.2208
  108OSM    C4S11093   6.355   6.525  10.278 -0.6519 -0.0871  0.2496
  108OSM    H4S11094   6.253   6.496  10.249 -1.2456 -0.2251  2.3377
  108OSM    C5S11095   6.437   6.562  10.178 -0.8049  0.0651  0.0760
  108OSM    H5S11096   6.534   6.608  10.203 -0.7415 -0.4358  0.7592
  108OSM    C6S11097   6.397   6.557  10.029  0.9172  0.3604 -0.1348
  108OSM    H6S11098   6.491   6.522   9.979  0.7049 -2.3274  1.1260
  108OSM    H6T11099   6.361   6.659  10.004 -1.7072  0.5121  3.4251
  108OSM    C7S11100   6.296   6.452   9.986  0.5225 -0.0081  1.0192
  108OSM    H7S11101   6.215   6.428  10.058  0.1278 -0.7122  0.3534
  108OSM    H7T11102   6.343   6.352   9.978 -0.1988 -0.2312 -0.7589
  108OSM    C8S11103   6.205   6.486   9.858 -0.1140  0.2737 -0.1009
  108OSM    H8S11104   6.272   6.548   9.795 -0.9874 -0.7057 -2.0945
  108OSM    H8T11105   6.120   6.549   9.893 -0.7283 -1.1691  1.1195
  108OSM    C9S11106   6.162   6.364   9.782  0.4259  1.2254 -0.0747
  108OSM    H9S11107   6.064   6.328   9.821  1.1695 -0.7607  0.0912
  108OSM    H9T11108   6.233   6.279   9.795 -1.5162 -0.5750 -0.5167
  108OSM   C10S11109   6.145   6.380   9.628 -0.2471  1.2268 -0.3195
  108OSM   H10S11110   6.237   6.362   9.568 -1.3477  1.3909 -2.1123
  108OSM   H10T11111   6.114   6.484   9.604  0.0604  1.5024  0.4511
  108OSM   C11S11112   6.027   6.296   9.583 -0.0856 -0.8997  0.2502
  108OSM   H11S11113   5.935   6.318   9.642 -0.2427  1.2539 -0.7195
  108OSM   H11T11114   6.054   6.189   9.598 -1.1538 -1.5832 -2.1928
  108OSM   C12S11115   5.993   6.314   9.435  0.4547 -0.2057  0.0408
  108OSM   H12S11116   6.064   6.244   9.386 -0.7336 -0.8919 -0.7582
  108OSM   H12T11117   6.007   6.422   9.416 -1.9247  0.7156  2.7209
  108OSM   C13S11118   5.854   6.289   9.396  0.4491  0.4371 -0.6890
  108OSM   H13S11119   5.777   6.360   9.431 -1.0712 -0.1082 -2.7268
  108OSM   H13T11120   5.810   6.192   9.427 -0.9697  0.8158 -1.4463
  108OSM   C14S11121   5.835   6.283   9.243  0.4618 -0.7050  0.2617
  108OSM   H14S11122   5.831   6.388   9.208 -1.4622 -0.6956  0.3736
  108OSM   H14T11123   5.737   6.244   9.207  1.4916  0.4640 -4.4476
  108OSM   C15S11124   5.940   6.204   9.161  0.0263 -0.4183  0.0190
  108OSM   H15S11125   5.946   6.103   9.205 -1.3403 -0.8118 -0.6394
  108OSM   H15T11126   6.039   6.252   9.175  0.8693 -1.9348 -0.4557
  108OSM   C16S11127   5.904   6.196   9.007  0.1179  0.5752 -0.2262
  108OSM   H16S11128   5.909   6.301   8.971  0.5005 -0.1712 -2.4925
  108OSM   H16T11129   5.799   6.162   8.996 -0.0391  0.4894  1.3093
  108OSM   C17S11130   5.990   6.103   8.915  0.1031  0.0893 -0.0507
  108OSM   H17S11131   6.008   6.005   8.964  2.4780 -0.2201 -1.4258
  108OSM   H17T11132   6.088   6.155   8.910  0.5725 -0.5401  1.7137
  108OSM   C18S11133   5.926   6.097   8.779  0.1568 -0.3313 -0.5184
  108OSM   H18S11134   5.830   6.042   8.783 -1.7567  2.7738 -0.2636
  108OSM   H18T11135   5.988   6.045   8.704  0.7398  0.3680 -0.5323
  108OSM   H18U11136   5.885   6.192   8.736  1.1482  0.9153  1.1596
  108OSM    C1F11137   6.171   6.837  10.478  0.3276  0.2741  0.2795
  108OSM     OF11138   6.251   6.907  10.534 -0.5935 -0.0555  0.0276
  108OSM    C2F11139   6.035   6.881  10.444 -0.2325  0.5912  0.8636
  108OSM    H2F11140   5.988   6.928  10.533  1.9050  0.7346  1.9694
  108OSM    H2G11141   5.967   6.796  10.420 -3.1344  3.1217 -0.6745
  108OSM    C3F11142   6.058   6.973  10.317  0.5142  0.1897 -0.2394
  108OSM    H3F11143   6.096   7.071  10.352  2.1608  0.3963 -2.4144
  108OSM    H3G11144   5.957   6.991  10.273  2.0278  3.1140 -2.8866
  108OSM    C4F11145   6.163   6.935  10.214  0.0547 -0.5996  1.1750
  108OSM    H4F11146   6.152   6.830  10.181 -0.5087 -0.1475 -0.1450
  108OSM    H4G11147   6.266   6.947  10.253  0.2383 -0.1528  0.5739
  108OSM    C5F11148   6.157   7.034  10.093  0.5555  0.2720  0.3482
  108OSM    H5F11149   6.215   7.126  10.117  3.0219 -0.7338 -1.3228
  108OSM    H5G11150   6.054   7.065  10.065  0.2794 -0.3024  0.7017
  108OSM    C6F11151   6.230   6.971   9.976 -0.0400 -0.2142  0.1951
  108OSM    H6F11152   6.316   6.909  10.011 -0.0324 -0.4171 -0.1789
  108OSM    H6G11153   6.270   7.048   9.907 -3.8281  0.5671 -1.3435
  108OSM    C7F11154   6.146   6.884   9.881  0.7708  0.0837 -0.2156
  108OSM    H7F11155   6.101   6.811   9.951  1.0286 -1.3141 -1.4745
  108OSM    H7G11156   6.201   6.821   9.808 -2.0513 -1.8858 -0.7853
  108OSM    C8F11157   6.030   6.954   9.798  0.0012 -0.5437  0.4022
  108OSM    H8F11158   5.950   6.978   9.872 -2.6983 -2.8077 -1.5114
  108OSM    H8G11159   6.004   6.873   9.726  1.1978  0.7202 -1.5307
  108OSM    C9F11160   6.093   7.071   9.726 -0.0093  0.1873  0.9355
  108OSM    H9F11161   6.120   7.166   9.776  0.9278  1.8308 -2.4286
  108OSM   C10F11162   6.098   7.087   9.591  0.6972 -0.1231  0.1546
  108OSM   H10F11163   6.154   7.176   9.559 -0.1593  0.1974 -0.4909
  108OSM   C11F11164   6.040   6.996   9.488  0.3341  0.2231  0.1532
  108OSM   H11F11165   5.963   6.931   9.535  0.1426  0.0425 -0.3962
  108OSM   H11G11166   6.120   6.929   9.450 -0.4705 -0.9186  0.3801
  108OSM   C12F11167   5.968   7.058   9.371 -0.7119 -0.7505 -0.6184
  108OSM   H12F11168   6.037   7.117   9.307 -1.4134 -0.9274 -1.5677
  108OSM   H12G11169   5.885   7.116   9.414 -0.6119 -2.2574  1.7837
  108OSM   C13F11170   5.896   6.962   9.276  0.0767  0.0898  0.3697
  108OSM   H13F11171   5.837   6.891   9.338  0.0507 -0.4220 -0.2260
  108OSM   H13G11172   5.971   6.902   9.220 -0.7314 -0.9596  0.3709
  108OSM   C14F11173   5.799   7.027   9.171  0.0558 -0.8469  0.0585
  108OSM   H14F11174   5.713   7.075   9.224 -0.9879 -1.9105 -0.6329
  108OSM   H14G11175   5.751   6.941   9.120 -0.5557 -0.8074  0.5457
  108OSM   C15F11176   5.848   7.143   9.086  0.4057 -0.7452 -0.3986
  108OSM   H15F11177   5.851   7.235   9.148 -1.8357 -1.2784  0.5800
  108OSM   H15G11178   5.769   7.165   9.012 -0.7532  1.9125  1.4775
  108OSM   C16F11179   5.982   7.102   9.017 -0.0996 -1.1944  0.0036
  108OSM   H16F11180   5.961   7.006   8.964 -4.2447 -0.2402 -0.3435
  108OSM   H16G11181   6.055   7.083   9.099 -0.5139 -2.1721  0.1650
  108OSM   C17F11182   6.033   7.212   8.924  0.3006 -0.2293  0.3877
  108OSM   H17F11183   6.140   7.186   8.909  0.8441  2.0379 -0.0606
  108OSM   H17G11184   6.027   7.308   8.980  3.5159  2.7463 -3.7664
  108OSM   C18F11185   5.967   7.217   8.787  0.2895  0.6078  0.7775
  108OSM   H18F11186   5.980   7.305   8.721 -0.9039  0.6339  0.5459
  108OSM   H18G11187   5.857   7.204   8.793  0.0508  2.4697  0.9776
  108OSM   H18H11188   6.014   7.135   8.728  0.3166  1.2391 -0.0901
  109OSM      N11189   1.084   0.431  10.574 -0.0353 -0.2552  0.2519
  109OSM    C1511190   1.133   0.346  10.688  0.1834 -0.6134  0.0696
  109OSM   H15A11191   1.084   0.373  10.780  0.3884  1.5988 -0.4092
  109OSM   H15B11192   1.237   0.369  10.708  0.0361 -0.8005  1.1006
  109OSM   H15C11193   1.126   0.239  10.673 -1.3581 -0.8747  2.2304
  109OSM    C1411194   1.142   0.383  10.452 -0.5983 -0.0430 -0.9329
  109OSM   H14A11195   1.078   0.303  10.417 -2.1000  0.7097 -0.0163
  109OSM   H14B11196   1.242   0.345  10.470 -1.4858 -2.6615 -1.0559
  109OSM   H14C11197   1.149   0.459  10.376  1.1507 -0.5958 -1.3704
  109OSM    C1311198   0.934   0.417  10.562 -0.2268 -0.4642 -0.1161
  109OSM   H13A11199   0.889   0.457  10.651  1.1331  1.0992 -0.0942
  109OSM   H13B11200   0.900   0.317  10.540  1.4521 -0.9160 -0.8009
  109OSM   H13C11201   0.901   0.472  10.475  1.6574 -2.2026 -2.0381
  109OSM    C1211202   1.125   0.579  10.603 -0.2589  0.4147  0.2252
  109OSM   H12A11203   1.099   0.597  10.706  1.3383 -0.7509  0.8665
  109OSM   H12B11204   1.079   0.651  10.536  0.8132 -0.6134 -1.7025
  109OSM    C1111205   1.283   0.614  10.591 -0.1137  0.4824 -0.2058
  109OSM   H11A11206   1.346   0.539  10.643 -0.0910  0.7416  0.1427
  109OSM   H11B11207   1.298   0.713  10.639  2.4617 -0.8838  2.1446
  109OSM      P11208   1.266   0.724  10.357 -0.0824 -0.0816  0.3889
  109OSM    O1311209   1.171   0.661  10.265 -0.0572 -0.1067 -0.0484
  109OSM    O1411210   1.221   0.845  10.424  0.3548 -0.4973  0.5004
  109OSM    O1111211   1.389   0.771  10.272 -0.6418  0.2099 -0.0600
  109OSM    O1211212   1.329   0.622  10.455  0.1619 -0.1659 -0.0336
  109OSM    C1S11213   1.467   0.687  10.187 -0.2480 -0.3865 -0.4533
  109OSM    H1S11214   1.450   0.578  10.204 -0.6529 -0.1076  1.0270
  109OSM    H1T11215   1.577   0.685  10.203  0.6722  0.8647 -5.1103
  109OSM     NF11216   1.524   0.628   9.949  0.7422 -0.3579  0.3561
  109OSM    HNF11217   1.618   0.658   9.932  0.8436  0.1500  1.6783
  109OSM    C2S11218   1.451   0.726  10.040  0.6434  0.0357  0.6026
  109OSM    H2S11219   1.343   0.736  10.018  1.0599  3.4132 -0.5988
  109OSM    C3S11220   1.503   0.868  10.026  0.1185 -0.3213  0.7263
  109OSM    H3S11221   1.593   0.871  10.091 -0.2883  0.6004  1.2576
  109OSM     O311222   1.427   0.975  10.074  0.2731  0.5542 -0.0222
  109OSM    HO311223   1.365   0.947  10.143 -0.1895  1.9892  0.1740
  109OSM    C4S11224   1.537   0.900   9.882 -1.1902 -0.2103  0.5541
  109OSM    H4S11225   1.642   0.886   9.853 -1.4284  1.0644 -1.0559
  109OSM    C5S11226   1.455   0.935   9.781  0.3199 -0.3287 -0.7469
  109OSM    H5S11227   1.352   0.964   9.807  0.2008 -0.1162 -1.4228
  109OSM    C6S11228   1.496   0.957   9.638  0.7432 -0.3230 -0.2649
  109OSM    H6S11229   1.437   0.896   9.566 -0.9143 -0.3494  1.0566
  109OSM    H6T11230   1.603   0.930   9.624  1.2795  1.8377 -0.7075
  109OSM    C7S11231   1.492   1.110   9.611  0.2673  0.2464 -0.8373
  109OSM    H7S11232   1.564   1.157   9.682  0.1226 -1.9907  0.9047
  109OSM    H7T11233   1.390   1.153   9.618 -0.0379 -0.6202  0.3238
  109OSM    C8S11234   1.530   1.147   9.467  0.5533 -0.2226 -0.1745
  109OSM    H8S11235   1.434   1.141   9.411 -0.5281  3.2026  1.0252
  109OSM    H8T11236   1.606   1.070   9.440 -0.3516 -1.2296  0.0774
  109OSM    C9S11237   1.590   1.285   9.452 -0.5643  0.4229  0.0487
  109OSM    H9S11238   1.692   1.273   9.495 -0.2295 -0.6969 -0.9969
  109OSM    H9T11239   1.533   1.373   9.490 -0.2559  1.3229 -1.4660
  109OSM   C10S11240   1.622   1.315   9.306 -0.0711  0.8564  0.5871
  109OSM   H10S11241   1.693   1.235   9.274 -0.3367  0.0086  2.0361
  109OSM   H10T11242   1.684   1.407   9.298  2.1127 -0.3889  2.0502
  109OSM   C11S11243   1.503   1.304   9.209  0.7611 -0.4683 -0.8032
  109OSM   H11S11244   1.518   1.386   9.135  1.8635  0.7445  0.6852
  109OSM   H11T11245   1.405   1.327   9.255  0.0088 -1.5893 -1.8103
  109OSM   C12S11246   1.499   1.179   9.119 -0.5125 -0.5771 -0.2995
  109OSM   H12S11247   1.474   1.089   9.179 -0.8162  0.6743  1.5167
  109OSM   H12T11248   1.596   1.161   9.068  1.1458  2.0809  1.6727
  109OSM   C13S11249   1.394   1.197   9.009  0.5785  0.2205 -1.0421
  109OSM   H13S11250   1.404   1.289   8.947 -2.5844  1.2022 -0.2933
  109OSM   H13T11251   1.290   1.206   9.045 -0.4669 -1.1709 -3.4382
  109OSM   C14S11252   1.385   1.082   8.909 -0.0927 -0.3424  0.3621
  109OSM   H14S11253   1.329   1.007   8.968 -0.1364 -0.7578 -0.1908
  109OSM   H14T11254   1.480   1.035   8.875 -0.3686 -1.8840  1.6049
  109OSM   C15S11255   1.306   1.132   8.781  0.4748 -0.6318 -0.6062
  109OSM   H15S11256   1.215   1.190   8.811 -0.8127 -2.4612 -0.8137
  109OSM   H15T11257   1.246   1.050   8.736 -1.4984  0.2735  0.2336
  109OSM   C16S11258   1.386   1.211   8.675 -0.3167 -0.7336  0.0936
  109OSM   H16S11259   1.494   1.194   8.694 -0.0043  1.5752  0.7078
  109OSM   H16T11260   1.374   1.316   8.710 -1.0572  0.0328 -2.2608
  109OSM   C17S11261   1.345   1.204   8.523 -0.3154  0.0234  0.2059
  109OSM   H17S11262   1.334   1.105   8.473 -0.4606 -0.3674  0.9946
  109OSM   H17T11263   1.432   1.249   8.471 -1.0952 -0.7166 -1.8152
  109OSM   C18S11264   1.215   1.282   8.497  0.3904 -0.2743  0.2999
  109OSM   H18S11265   1.213   1.366   8.569  2.0264  0.2892 -0.2828
  109OSM   H18T11266   1.132   1.209   8.511  1.3717 -1.6385 -0.6089
  109OSM   H18U11267   1.216   1.320   8.393  0.6524 -1.4004 -0.1302
  109OSM    C1F11268   1.475   0.505   9.924  0.2915  0.6044 -0.0361
  109OSM     OF11269   1.368   0.458   9.963 -0.5647 -0.5489 -0.1564
  109OSM    C2F11270   1.583   0.412   9.862  0.0321 -0.3178 -0.0821
  109OSM    H2F11271   1.580   0.313   9.912 -1.8771  0.3120  1.1362
  109OSM    H2G11272   1.679   0.452   9.903 -1.3834  0.1369  3.0497
  109OSM    C3F11273   1.579   0.419   9.709  0.1732 -0.1377  0.5984
  109OSM    H3F11274   1.484   0.372   9.675  0.8211 -0.5634 -0.7038
  109OSM    H3G11275   1.651   0.342   9.674  0.3212 -1.4145  3.4351
  109OSM    C4F11276   1.598   0.554   9.649  0.2729  0.3628 -0.5105
  109OSM    H4F11277   1.692   0.597   9.689 -1.4025  2.5970  1.3240
  109OSM    H4G11278   1.507   0.616   9.666  0.4084  0.8594 -1.5236
  109OSM    C5F11279   1.592   0.547   9.495  0.4139  0.1956 -0.0973
  109OSM    H5F11280   1.494   0.503   9.467  1.1320 -3.2235  2.0381
  109OSM    H5G11281   1.674   0.476   9.470 -1.4601 -1.4564 -1.8923
  109OSM    C6F11282   1.612   0.685   9.430 -0.4099 -0.2877  0.9832
  109OSM    H6F11283   1.702   0.735   9.472 -0.3576 -1.3962  2.2469
  109OSM    H6G11284   1.515   0.736   9.450  0.0195  1.1165 -0.2916
  109OSM    C7F11285   1.632   0.682   9.276  0.9736  0.4445  0.4219
  109OSM    H7F11286   1.558   0.614   9.231  0.4927  1.8741 -1.0468
  109OSM    H7G11287   1.731   0.643   9.245 -0.4517 -3.0067 -0.1745
  109OSM    C8F11288   1.607   0.822   9.214 -0.3196 -0.1820  0.4275
  109OSM    H8F11289   1.658   0.910   9.261 -1.5508 -0.6597  2.8576
  109OSM    H8G11290   1.500   0.845   9.234 -0.2889  0.6749 -0.3553
  109OSM    C9F11291   1.618   0.827   9.060 -0.4802 -0.1472 -0.6731
  109OSM    H9F11292   1.525   0.801   9.009  0.5365 -0.5662 -2.4072
  109OSM   C10F11293   1.728   0.871   8.995  0.6953 -0.1575  0.0432
  109OSM   H10F11294   1.722   0.874   8.885  1.1150 -0.3507  0.0147
  109OSM   C11F11295   1.854   0.921   9.065 -0.2266  0.4636 -0.2351
  109OSM   H11F11296   1.939   0.853   9.044 -1.2840 -1.7312  2.0741
  109OSM   H11G11297   1.844   0.920   9.176  0.9157  2.5181 -0.0514
  109OSM   C12F11298   1.888   1.069   9.019  1.2112  0.9848 -0.0258
  109OSM   H12F11299   1.978   1.095   9.078  0.7794  0.7190  0.7659
  109OSM   H12G11300   1.803   1.136   9.043  2.4303  2.2499  0.9452
  109OSM   C13F11301   1.929   1.084   8.872  0.6159 -0.0681  0.0539
  109OSM   H13F11302   1.838   1.084   8.809  0.5315 -0.4979  0.1686
  109OSM   H13G11303   1.989   0.993   8.846  0.5232  0.1733 -1.0354
  109OSM   C14F11304   2.012   1.202   8.839 -0.0026 -0.7001  0.3951
  109OSM   H14F11305   2.044   1.208   8.732 -1.1389 -1.1298  0.0197
  109OSM   H14G11306   2.110   1.193   8.891  0.8844  0.9112 -0.8751
  109OSM   C15F11307   1.938   1.338   8.874  0.4854 -0.3647 -0.3176
  109OSM   H15F11308   2.010   1.419   8.850 -1.1247  1.8311  1.8479
  109OSM   H15G11309   1.925   1.345   8.984  0.5093 -2.3970 -0.1398
  109OSM   C16F11310   1.804   1.347   8.796  0.6883 -0.2149 -0.7153
  109OSM   H16F11311   1.733   1.272   8.839  3.1856 -2.4130 -0.1635
  109OSM   H16G11312   1.815   1.322   8.689 -0.3947  1.7604 -1.3431
  109OSM   C17F11313   1.741   1.481   8.798 -0.0004  0.4218 -0.2962
  109OSM   H17F11314   1.665   1.488   8.718  0.5605  0.3645 -0.8411
  109OSM   H17G11315   1.809   1.567   8.776 -1.7528  1.7488 -0.7232
  109OSM   C18F11316   1.676   1.517   8.938 -0.6562  0.0562  0.2887
  109OSM   H18F11317   1.748   1.520   9.022 -0.6228  0.8200  0.2391
  109OSM   H18G11318   1.592   1.447   8.957  1.4691 -2.9481 -0.6217
  109OSM   H18H11319   1.637   1.621   8.935 -0.9753 -0.0733 -0.1489
  110OSM      N11320   3.837   4.598  10.865 -0.0522 -0.4005 -0.2457
  110OSM    C1511321   3.732   4.659  10.777 -1.0502 -0.0320 -0.1744
  110OSM   H15A11322   3.655   4.586  10.757 -1.8715 -0.0213  2.5706
  110OSM   H15B11323   3.779   4.685  10.683  0.7800 -0.8580  0.4652
  110OSM   H15C11324   3.683   4.744  10.822  0.0168  0.0200  0.9276
  110OSM    C1411325   3.964   4.676  10.840  0.7276 -0.3683  0.3087
  110OSM   H14A11326   4.039   4.668  10.917  1.8907  1.4177 -0.5523
  110OSM   H14B11327   3.944   4.782  10.837 -1.3931 -0.7392 -0.4664
  110OSM   H14C11328   4.013   4.646  10.748  1.1176 -2.1390  1.0519
  110OSM    C1311329   3.789   4.605  11.014 -0.7943 -0.1383 -0.5756
  110OSM   H13A11330   3.684   4.579  11.007 -0.5463 -1.5753  0.4782
  110OSM   H13B11331   3.805   4.701  11.059 -0.3399  0.3668 -1.7819
  110OSM   H13C11332   3.833   4.526  11.074 -1.8257  1.7909  3.0300
  110OSM    C1211333   3.874   4.456  10.829  0.0939  0.9248  0.0118
  110OSM   H12A11334   3.959   4.433  10.892 -0.1317  0.0144 -0.0051
  110OSM   H12B11335   3.915   4.450  10.729  2.8200  0.7639  1.0415
  110OSM    C1111336   3.759   4.351  10.844 -0.4454  0.3022 -0.2181
  110OSM   H11A11337   3.747   4.334  10.954  1.5361 -2.8431 -0.3657
  110OSM   H11B11338   3.792   4.253  10.803  0.3569 -0.4877  2.1402
  110OSM      P11339   3.498   4.353  10.851 -0.1243  0.1099  0.0698
  110OSM    O1311340   3.510   4.212  10.890 -0.4279 -0.3907 -0.6331
  110OSM    O1411341   3.461   4.447  10.961  0.2443  0.1054 -0.3989
  110OSM    O1111342   3.405   4.377  10.730 -0.0392 -0.5064  0.1059
  110OSM    O1211343   3.634   4.390  10.793  0.5515  0.0670 -0.5130
  110OSM    C1S11344   3.410   4.502  10.649  0.0889  0.1189 -0.2731
  110OSM    H1S11345   3.506   4.558  10.651 -1.1250  2.3971 -1.7847
  110OSM    H1T11346   3.335   4.576  10.685  2.8607  3.2645 -0.4625
  110OSM     NF11347   3.396   4.601  10.433 -0.3718  0.3842 -0.1192
  110OSM    HNF11348   3.310   4.653  10.427 -1.1654 -0.8209  0.4576
  110OSM    C2S11349   3.379   4.476  10.498  0.6939  0.0199 -0.7696
  110OSM    H2S11350   3.454   4.410  10.449 -0.0478 -0.8836 -0.7095
  110OSM    C3S11351   3.240   4.405  10.462 -0.0407  0.2436 -0.0441
  110OSM    H3S11352   3.159   4.479  10.479 -0.0507  0.0937  0.5722
  110OSM     O311353   3.213   4.297  10.545 -0.1472  0.6968  0.3243
  110OSM    HO311354   3.260   4.313  10.627 -2.4585 -1.9904  2.3811
  110OSM    C4S11355   3.240   4.359  10.317 -0.1527  0.7507  0.4279
  110OSM    H4S11356   3.308   4.275  10.297  1.2014  1.6920  0.9752
  110OSM    C5S11357   3.152   4.401  10.227 -0.3750 -0.3546 -0.2328
  110OSM    H5S11358   3.074   4.477  10.243 -0.0435  0.4102 -2.0061
  110OSM    C6S11359   3.147   4.359  10.086  0.0939  0.5675 -0.0681
  110OSM    H6S11360   3.154   4.248  10.086  0.1644  0.5362  1.7810
  110OSM    H6T11361   3.227   4.403  10.023 -1.9170  0.8109 -2.6359
  110OSM    C7S11362   3.021   4.396  10.017  0.6340  0.6176  0.0167
  110OSM    H7S11363   3.016   4.507  10.013 -0.9302  0.6455  1.5176
  110OSM    H7T11364   2.938   4.360  10.082  0.3865 -0.8543 -1.0658
  110OSM    C8S11365   3.004   4.323   9.884 -0.1033  0.1963  0.0347
  110OSM    H8S11366   2.969   4.219   9.900 -0.8874  0.4800  0.2281
  110OSM    H8T11367   3.103   4.326   9.833  0.2493 -0.3723  0.6732
  110OSM    C9S11368   2.893   4.385   9.802 -0.2781 -0.8037  0.0875
  110OSM    H9S11369   2.896   4.495   9.790  0.4239 -0.8182  0.1306
  110OSM    H9T11370   2.797   4.359   9.852  0.6012 -3.7020  0.4761
  110OSM   C10S11371   2.889   4.326   9.663 -0.4752  0.4229  1.2266
  110OSM   H10S11372   2.792   4.354   9.616  0.2337  2.2576  0.7388
  110OSM   H10T11373   2.876   4.218   9.682  1.2221  0.2781  1.7827
  110OSM   C11S11374   3.011   4.357   9.577 -0.3890  0.5758 -0.9042
  110OSM   H11S11375   3.111   4.333   9.619 -1.9291  0.2000  2.8940
  110OSM   H11T11376   3.018   4.468   9.568 -2.6830  0.7931 -0.5820
  110OSM   C12S11377   3.011   4.311   9.428 -0.2552 -0.1375  0.0830
  110OSM   H12S11378   3.101   4.362   9.387  0.3278 -0.9753  0.2895
  110OSM   H12T11379   2.919   4.351   9.379 -0.1196  0.4922  0.3286
  110OSM   C13S11380   3.020   4.156   9.416 -0.3680 -0.0457 -0.4380
  110OSM   H13S11381   2.920   4.125   9.454  0.7998  0.0846  3.1918
  110OSM   H13T11382   3.102   4.114   9.478 -1.8828 -1.8878  0.4115
  110OSM   C14S11383   3.024   4.109   9.268  0.7945 -0.0915  0.2132
  110OSM   H14S11384   2.931   4.143   9.218 -0.4604 -1.1150  1.7550
  110OSM   H14T11385   3.020   3.999   9.273 -0.5099 -0.0143  1.5676
  110OSM   C15S11386   3.136   4.158   9.176  0.3823 -0.0228 -0.8732
  110OSM   H15S11387   3.226   4.157   9.241  0.1970 -0.4276 -0.6147
  110OSM   H15T11388   3.109   4.264   9.156 -1.7873 -0.1774  0.8132
  110OSM   C16S11389   3.159   4.081   9.050  0.0757  0.5451  0.6268
  110OSM   H16S11390   3.078   4.005   9.054 -1.4415  2.0591 -0.2177
  110OSM   H16T11391   3.251   4.019   9.055 -0.2340  0.1669  2.8814
  110OSM   C17S11392   3.131   4.150   8.917 -0.3325 -0.0583 -0.1287
  110OSM   H17S11393   3.158   4.073   8.841 -2.9691 -0.6678 -0.5244
  110OSM   H17T11394   3.205   4.232   8.904  1.1429 -1.4065 -0.5478
  110OSM   C18S11395   2.983   4.205   8.896  0.6073 -0.5249  0.2872
  110OSM   H18S11396   2.922   4.116   8.925 -0.7241 -0.4069 -1.9320
  110OSM   H18T11397   2.953   4.242   8.796  0.2410 -0.3248  0.4675
  110OSM   H18U11398   2.971   4.289   8.967 -0.3612 -0.4581  0.0521
  110OSM    C1F11399   3.514   4.659  10.430 -0.4268  0.1312  0.2526
  110OSM     OF11400   3.623   4.603  10.437  0.7324 -0.3406 -0.6798
  110OSM    C2F11401   3.516   4.804  10.402  0.1616 -0.4543  0.2937
  110OSM    H2F11402   3.573   4.855  10.482  0.4038  0.3269 -0.3610
  110OSM    H2G11403   3.411   4.840  10.398  0.0487 -0.7152  0.8800
  110OSM    C3F11404   3.597   4.836  10.276  0.3665 -1.2480 -0.1310
  110OSM    H3F11405   3.702   4.804  10.291  1.3890  0.1731 -3.2761
  110OSM    H3G11406   3.637   4.940  10.270  1.2306 -1.4982  1.0597
  110OSM    C4F11407   3.551   4.774  10.141  0.6067  0.7120 -0.9913
  110OSM    H4F11408   3.528   4.851  10.065 -0.0102  2.0570  0.5158
  110OSM    H4G11409   3.458   4.715  10.160  0.8509  0.4211 -0.6855
  110OSM    C5F11410   3.648   4.674  10.085 -1.0537  0.0525  1.2358
  110OSM    H5F11411   3.708   4.610  10.153  0.7101 -0.0170 -0.3088
  110OSM    H5G11412   3.731   4.718  10.026 -1.1881 -0.6851  0.4830
  110OSM    C6F11413   3.578   4.566  10.004  0.2183 -0.7680  0.7674
  110OSM    H6F11414   3.493   4.520  10.059  0.2150  0.8412  2.1672
  110OSM    H6G11415   3.655   4.490   9.977  1.6063  0.8547 -0.0200
  110OSM    C7F11416   3.522   4.612   9.869 -0.7840 -0.0290  0.3383
  110OSM    H7F11417   3.596   4.662   9.804 -0.0940 -0.4439  0.7867
  110OSM    H7G11418   3.445   4.688   9.895 -1.1783 -0.8873  1.7973
  110OSM    C8F11419   3.471   4.497   9.783 -0.4711  1.0001  0.4332
  110OSM    H8F11420   3.403   4.430   9.840 -0.4871  1.4162  0.9070
  110OSM    H8G11421   3.557   4.429   9.763 -2.2487 -0.8509 -1.6223
  110OSM    C9F11422   3.395   4.532   9.653  0.5692  0.2894  0.1413
  110OSM    H9F11423   3.359   4.634   9.635 -0.4717 -0.1178 -0.1229
  110OSM   C10F11424   3.385   4.455   9.540  0.7317 -0.3444 -0.2343
  110OSM   H10F11425   3.335   4.503   9.454 -1.4142  0.5643  1.4314
  110OSM   C11F11426   3.442   4.312   9.518  0.3579 -0.4012  0.6299
  110OSM   H11F11427   3.362   4.238   9.501 -0.2900 -0.5012  3.5478
  110OSM   H11G11428   3.508   4.270   9.598 -1.0526  1.2505  2.7523
  110OSM   C12F11429   3.540   4.309   9.394  0.0185 -0.2295  0.1515
  110OSM   H12F11430   3.590   4.209   9.391 -2.3297 -1.5179  1.2133
  110OSM   H12G11431   3.622   4.381   9.414 -0.9905  1.4817 -1.5040
  110OSM   C13F11432   3.465   4.348   9.266  0.7583  0.1687 -0.1844
  110OSM   H13F11433   3.430   4.453   9.272 -0.9773 -0.4313  0.9138
  110OSM   H13G11434   3.379   4.282   9.244  0.4553  1.0410 -1.7638
  110OSM   C14F11435   3.554   4.334   9.146  0.7628  0.1863  0.4284
  110OSM   H14F11436   3.613   4.239   9.149 -0.5618 -0.6854 -0.0674
  110OSM   H14G11437   3.622   4.421   9.153  0.0444  0.6525  2.5124
  110OSM   C15F11438   3.485   4.344   9.010  0.7770  0.0387  0.2801
  110OSM   H15F11439   3.404   4.419   9.022  1.2182  0.5641  0.0313
  110OSM   H15G11440   3.437   4.248   8.983  0.3231 -0.1796  1.7650
  110OSM   C16F11441   3.567   4.411   8.899 -0.6107  0.2542 -0.6465
  110OSM   H16F11442   3.653   4.357   8.853 -0.3792  0.3599 -0.3441
  110OSM   H16G11443   3.620   4.494   8.951  1.4551 -0.4602 -1.5243
  110OSM   C17F11444   3.483   4.473   8.779  0.3953  0.1188 -0.5773
  110OSM   H17F11445   3.423   4.557   8.819  1.7680  0.8000  0.1176
  110OSM   H17G11446   3.426   4.388   8.735  1.8618 -0.1123 -2.1420
  110OSM   C18F11447   3.573   4.521   8.669 -0.1219 -0.7726  0.1062
  110OSM   H18F11448   3.637   4.604   8.708 -0.0391 -0.6463 -0.2953
  110OSM   H18G11449   3.519   4.566   8.583 -1.2849 -1.2042  0.5982
  110OSM   H18H11450   3.633   4.442   8.620 -1.2985 -0.1805 -2.4497
  111OSM      N11451   4.279   2.364  10.854 -0.1780 -0.0774  0.2706
  111OSM    C1511452   4.238   2.506  10.875 -1.2464  0.1774 -0.0360
  111OSM   H15A11453   4.261   2.533  10.977 -0.8932 -2.5976  0.6808
  111OSM   H15B11454   4.130   2.519  10.868 -1.3089 -0.2569  0.1310
  111OSM   H15C11455   4.284   2.578  10.808 -1.7964  0.8265  0.2684
  111OSM    C1411456   4.265   2.323  10.709  0.0399 -0.8329  0.0628
  111OSM   H14A11457   4.333   2.385  10.653 -0.6393  0.1691  0.3236
  111OSM   H14B11458   4.163   2.346  10.684 -0.2942 -1.5045  0.7541
  111OSM   H14C11459   4.289   2.218  10.697  1.1594 -0.4720 -1.0979
  111OSM    C1311460   4.424   2.343  10.886 -0.9294  0.2960 -0.1045
  111OSM   H13A11461   4.483   2.408  10.823 -0.1890 -0.9589 -0.7518
  111OSM   H13B11462   4.459   2.241  10.876 -0.4150  0.3397  1.0776
  111OSM   H13C11463   4.441   2.365  10.991  0.5593  0.8591 -0.4343
  111OSM    C1211464   4.183   2.277  10.932 -0.1430  0.1967  0.8077
  111OSM   H12A11465   4.188   2.302  11.037 -0.6168 -1.2160  1.1930
  111OSM   H12B11466   4.225   2.179  10.913  2.4962  1.7506 -2.5225
  111OSM    C1111467   4.036   2.267  10.889 -0.0133  0.2015 -0.2261
  111OSM   H11A11468   3.990   2.184  10.947  0.5201 -0.6365 -0.9776
  111OSM   H11B11469   4.020   2.240  10.782 -3.1288  2.9743 -0.6352
  111OSM      P11470   3.820   2.421  10.933  0.2122 -0.1472 -0.5996
  111OSM    O1311471   3.753   2.340  11.041 -0.0675 -0.1861  0.3807
  111OSM    O1411472   3.805   2.566  10.952  0.5117  0.2309 -0.0564
  111OSM    O1111473   3.757   2.378  10.803  0.1575 -0.3410 -0.0279
  111OSM    O1211474   3.972   2.392  10.917 -0.7348  0.3253  0.2578
  111OSM    C1S11475   3.806   2.427  10.676  0.2295 -0.2797 -0.0706
  111OSM    H1S11476   3.917   2.419  10.671  0.2752  0.6775 -1.0018
  111OSM    H1T11477   3.790   2.537  10.668  2.3246 -0.0033 -1.2263
  111OSM     NF11478   3.815   2.384  10.442  0.7436  0.4398  0.1425
  111OSM    HNF11479   3.784   2.462  10.388 -0.9644  0.0775  0.5438
  111OSM    C2S11480   3.736   2.358  10.560 -0.4270 -0.0544 -0.4929
  111OSM    H2S11481   3.718   2.250  10.574 -2.5081  0.3065 -0.0407
  111OSM    C3S11482   3.596   2.419  10.547  0.0571  0.5616  0.5340
  111OSM    H3S11483   3.602   2.528  10.527  2.5059  0.6623  1.4676
  111OSM     O311484   3.515   2.413  10.662  0.1260  0.9099  0.5918
  111OSM    HO311485   3.576   2.391  10.732 -2.1398 -1.0338  2.0976
  111OSM    C4S11486   3.536   2.340  10.429  0.1519  0.7380 -0.8445
  111OSM    H4S11487   3.528   2.398  10.336  0.8618  0.2229 -1.2283
  111OSM    C5S11488   3.482   2.218  10.434  0.3932 -0.1204 -0.0245
  111OSM    H5S11489   3.502   2.166  10.528 -1.0434 -0.3481  0.1778
  111OSM    C6S11490   3.421   2.136  10.322 -0.1727  0.0647  0.0666
  111OSM    H6S11491   3.314   2.108  10.333 -0.3114  0.6042  0.1163
  111OSM    H6T11492   3.480   2.042  10.323  0.7907  0.6529  1.2237
  111OSM    C7S11493   3.441   2.199  10.184 -0.3059  0.3758 -0.1589
  111OSM    H7S11494   3.548   2.228  10.177  0.9243 -2.3156  3.8538
  111OSM    H7T11495   3.378   2.290  10.179  1.0568  1.4669  1.5823
  111OSM    C8S11496   3.411   2.113  10.057  0.4126  0.3161 -0.2249
  111OSM    H8S11497   3.309   2.072  10.044 -0.0154  1.5995 -1.0863
  111OSM    H8T11498   3.476   2.023  10.052  0.9551  0.7579 -2.8894
  111OSM    C9S11499   3.445   2.193   9.927 -0.5283 -0.2670 -0.9555
  111OSM    H9S11500   3.540   2.244   9.951 -0.1969 -1.3985  0.2285
  111OSM    H9T11501   3.367   2.272   9.923 -0.3824 -0.1035 -0.5361
  111OSM   C10S11502   3.446   2.119   9.795  0.0369  0.4850 -0.0999
  111OSM   H10S11503   3.344   2.079   9.776  0.8702 -1.6274 -0.4544
  111OSM   H10T11504   3.516   2.033   9.809 -1.0740 -0.2787  0.9239
  111OSM   C11S11505   3.497   2.199   9.663  0.3091  0.7822  0.3479
  111OSM   H11S11506   3.599   2.160   9.641 -0.2124 -0.9695  0.8624
  111OSM   H11T11507   3.504   2.309   9.673 -0.7071  0.9332 -0.4262
  111OSM   C12S11508   3.405   2.175   9.540  0.5028 -0.4972 -0.4129
  111OSM   H12S11509   3.315   2.238   9.555  3.2949  3.8093  0.0223
  111OSM   H12T11510   3.367   2.070   9.548 -0.7017 -0.1477 -1.2747
  111OSM   C13S11511   3.459   2.216   9.407  0.0289 -0.0869 -0.0934
  111OSM   H13S11512   3.546   2.150   9.388 -0.8399 -1.1763 -0.3566
  111OSM   H13T11513   3.497   2.321   9.407 -0.3600  0.0573  0.3161
  111OSM   C14S11514   3.362   2.186   9.295 -0.3077 -0.6766 -0.2740
  111OSM   H14S11515   3.266   2.237   9.315 -0.2951 -1.2319  1.3842
  111OSM   H14T11516   3.337   2.078   9.306  0.6233 -1.0977 -1.8631
  111OSM   C15S11517   3.425   2.222   9.159 -0.2333  0.0160 -0.0678
  111OSM   H15S11518   3.523   2.170   9.151 -1.0842 -1.7688  0.5527
  111OSM   H15T11519   3.441   2.332   9.159 -0.2147  0.0129  0.3769
  111OSM   C16S11520   3.332   2.193   9.030 -0.2042  0.9069 -0.5457
  111OSM   H16S11521   3.245   2.262   9.020 -1.6038 -0.7045 -0.1636
  111OSM   H16T11522   3.285   2.093   9.045 -0.9720  1.3631  0.1871
  111OSM   C17S11523   3.417   2.206   8.905  0.3608 -0.4227 -0.5749
  111OSM   H17S11524   3.491   2.125   8.922  1.9890  0.9970 -0.5879
  111OSM   H17T11525   3.470   2.304   8.900  0.3378 -0.3165  0.8839
  111OSM   C18S11526   3.328   2.174   8.785 -0.1169 -0.5043  0.9007
  111OSM   H18S11527   3.390   2.183   8.693  1.4872  1.3846  2.0835
  111OSM   H18T11528   3.238   2.239   8.775 -0.0247 -0.1779  2.0461
  111OSM   H18U11529   3.289   2.070   8.790 -0.9740 -0.5072 -2.8850
  111OSM    C1F11530   3.933   2.316  10.421  0.0609  0.0398  0.0190
  111OSM     OF11531   3.979   2.239  10.503  0.0692 -0.1595  0.2195
  111OSM    C2F11532   4.016   2.359  10.302 -0.3628  0.2669 -0.3055
  111OSM    H2F11533   4.015   2.470  10.301  0.4293  0.2773 -0.8697
  111OSM    H2G11534   3.962   2.320  10.214  0.7174  0.9464 -1.2995
  111OSM    C3F11535   4.166   2.312  10.304 -0.0182 -0.4733  0.3066
  111OSM    H3F11536   4.166   2.201  10.297 -1.1385 -0.3998 -1.4297
  111OSM    H3G11537   4.201   2.327  10.408  0.1852  3.9457 -0.2197
  111OSM    C4F11538   4.254   2.386  10.197  0.0435  0.1975 -0.1197
  111OSM    H4F11539   4.359   2.356  10.222 -0.2781 -2.4209 -1.4808
  111OSM    H4G11540   4.253   2.496  10.210  1.2770  0.1471  0.6101
  111OSM    C5F11541   4.240   2.344  10.044  0.0787 -0.4827 -0.7177
  111OSM    H5F11542   4.148   2.395  10.008 -0.1925  0.6465  1.4451
  111OSM    H5G11543   4.227   2.234  10.041  0.8613 -0.5732 -1.0793
  111OSM    C6F11544   4.352   2.384   9.941 -0.3878  0.2955 -0.4159
  111OSM    H6F11545   4.451   2.334   9.951  0.5851  2.4809  2.5062
  111OSM    H6G11546   4.364   2.494   9.929  0.5466  0.4647  1.5901
  111OSM    C7F11547   4.303   2.338   9.799  0.5824 -0.6866  0.0017
  111OSM    H7F11548   4.198   2.372   9.801  0.3063 -1.5064  2.3951
  111OSM    H7G11549   4.304   2.227   9.794 -2.5731 -0.8330  0.6567
  111OSM    C8F11550   4.371   2.399   9.677 -0.6145 -0.3179 -0.1141
  111OSM    H8F11551   4.476   2.364   9.667 -0.2535  0.6320  0.1847
  111OSM    H8G11552   4.379   2.508   9.698 -0.5066 -0.6356  1.6617
  111OSM    C9F11553   4.292   2.383   9.547  0.3184 -0.2584  0.0480
  111OSM    H9F11554   4.294   2.279   9.511  1.5470  0.2350 -1.3939
  111OSM   C10F11555   4.244   2.485   9.467 -0.0988  0.3478  0.9961
  111OSM   H10F11556   4.174   2.462   9.385 -0.0651  2.9009  0.1588
  111OSM   C11F11557   4.245   2.635   9.484 -0.7216  0.3545 -0.2377
  111OSM   H11F11558   4.300   2.651   9.579  0.1019  0.5881 -0.7420
  111OSM   H11G11559   4.143   2.679   9.493 -0.4335  0.8516  0.6393
  111OSM   C12F11560   4.331   2.705   9.370  0.2593 -0.8578 -0.1149
  111OSM   H12F11561   4.400   2.634   9.319  1.1914  0.5078 -0.8186
  111OSM   H12G11562   4.397   2.777   9.424 -0.3356 -1.2354  1.1534
  111OSM   C13F11563   4.238   2.766   9.263 -0.4552  0.6277 -0.3040
  111OSM   H13F11564   4.301   2.836   9.204 -0.5452  0.5885 -0.4453
  111OSM   H13G11565   4.153   2.817   9.313  1.5646  2.6851  1.2619
  111OSM   C14F11566   4.197   2.663   9.158 -0.2197  0.0779  0.1130
  111OSM   H14F11567   4.139   2.576   9.198  0.5847 -0.6121 -0.1896
  111OSM   H14G11568   4.289   2.628   9.108 -1.0860 -0.2285 -1.3272
  111OSM   C15F11569   4.098   2.725   9.060  0.2739 -0.0313 -1.1250
  111OSM   H15F11570   4.150   2.800   8.996 -2.4627  1.0927 -2.1783
  111OSM   H15G11571   4.025   2.785   9.118 -0.2959 -0.7593 -1.0794
  111OSM   C16F11572   4.031   2.618   8.964  0.4542  0.8118  0.7177
  111OSM   H16F11573   3.950   2.573   9.026 -0.3839  2.1426  0.6065
  111OSM   H16G11574   4.096   2.534   8.931  0.4868  0.8260  0.7449
  111OSM   C17F11575   3.985   2.676   8.835  1.0835 -0.7960  0.7656
  111OSM   H17F11576   4.078   2.726   8.801 -0.0379  0.8972  0.0480
  111OSM   H17G11577   3.913   2.760   8.846 -0.0860 -1.5957 -0.4646
  111OSM   C18F11578   3.934   2.574   8.733  0.2864  0.6234  0.7879
  111OSM   H18F11579   3.864   2.500   8.777  0.6687 -0.1387  0.1509
  111OSM   H18G11580   4.019   2.517   8.688 -2.2698 -2.0006 -1.1580
  111OSM   H18H11581   3.881   2.624   8.649 -1.3754 -0.4413  1.1533
  112OSM      N11582   3.850   0.149  11.102  0.1549 -0.1859 -0.1316
  112OSM    C1511583   3.809   0.294  11.082 -0.3828  0.3341 -0.3596
  112OSM   H15A11584   3.718   0.313  11.136 -0.6145 -0.5118 -0.4377
  112OSM   H15B11585   3.796   0.301  10.975 -0.9392 -1.8599 -0.4826
  112OSM   H15C11586   3.889   0.362  11.108  1.0265 -1.2879 -0.2818
  112OSM    C1411587   3.974   0.136  11.023 -0.2400 -0.0625  0.3561
  112OSM   H14A11588   4.021   0.042  11.049  1.8230  0.9220  0.3342
  112OSM   H14B11589   4.045   0.212  11.050 -2.7951  1.7092  2.5893
  112OSM   H14C11590   3.961   0.133  10.915 -0.6001 -0.3052  0.4031
  112OSM    C1311591   3.889   0.135  11.249 -0.5343  0.2295  0.0192
  112OSM   H13A11592   3.941   0.225  11.277 -0.5887  0.0150  0.8315
  112OSM   H13B11593   3.946   0.046  11.272  0.1158  0.5206 -0.4227
  112OSM   H13C11594   3.800   0.122  11.309 -0.2487 -1.4405  0.1325
  112OSM    C1211595   3.741   0.047  11.066 -0.7975 -0.0503  0.2573
  112OSM   H12A11596   3.775  -0.056  11.073 -0.6966 -0.1266 -1.0947
  112OSM   H12B11597   3.716   0.060  10.962 -0.6818 -1.7290 -0.0157
  112OSM    C1111598   3.605   0.055  11.136  0.2222 -0.6286  0.2724
  112OSM   H11A11599   3.629   0.029  11.241  1.1413  0.5129  0.3756
  112OSM   H11B11600   3.542  -0.027  11.097  3.3453 -3.3716  0.5103
  112OSM      P11601   3.463   0.228  11.002  0.4570 -0.2428  0.1286
  112OSM    O1311602   3.315   0.195  11.001 -0.2546 -0.1769  0.0376
  112OSM    O1411603   3.483   0.375  10.976 -0.1412 -0.2533 -0.2546
  112OSM    O1111604   3.521   0.134  10.886 -0.2918  0.1728  0.0445
  112OSM    O1211605   3.544   0.186  11.136  0.2790  0.1567 -0.1726
  112OSM    C1S11606   3.586   0.181  10.764 -0.4377  0.6165 -0.4292
  112OSM    H1S11607   3.683   0.230  10.787 -0.2352  0.8292 -1.6806
  112OSM    H1T11608   3.523   0.259  10.718 -1.5138  1.7653  2.7263
  112OSM     NF11609   3.680   0.121  10.541  0.0696  0.0489  0.1723
  112OSM    HNF11610   3.622   0.151  10.466 -2.0180  1.3653  2.1719
  112OSM    C2S11611   3.616   0.068  10.659 -0.2864 -0.3695 -0.4352
  112OSM    H2S11612   3.680  -0.010  10.704 -1.3751 -1.6852 -1.0815
  112OSM    C3S11613   3.487  -0.014  10.629  0.9468 -0.3309 -0.3811
  112OSM    H3S11614   3.405   0.058  10.604  0.9282  0.5628  1.9776
  112OSM     O311615   3.445  -0.080  10.748 -0.1243 -0.1270 -0.2383
  112OSM    HO311616   3.464  -0.014  10.815  0.0082  2.8215 -2.9998
  112OSM    C4S11617   3.509  -0.124  10.528 -0.9132 -0.7242 -0.0088
  112OSM    H4S11618   3.574  -0.203  10.568  3.1105  1.9763 -0.6908
  112OSM    C5S11619   3.458  -0.130  10.401 -0.7775  0.4920 -0.2342
  112OSM    H5S11620   3.403  -0.039  10.374  2.7821  3.8082  2.4334
  112OSM    C6S11621   3.491  -0.227  10.290  0.0500 -0.0175  0.9986
  112OSM    H6S11622   3.504  -0.188  10.187  3.2146 -3.3879 -0.0749
  112OSM    H6T11623   3.399  -0.286  10.271  1.4290 -1.7492 -0.7012
  112OSM    C7S11624   3.600  -0.324  10.314 -0.3184 -0.2323  0.2150
  112OSM    H7S11625   3.575  -0.373  10.410  1.5156  2.5911  2.2820
  112OSM    H7T11626   3.695  -0.270  10.335 -1.4859  1.8832  0.3586
  112OSM    C8S11627   3.621  -0.422  10.196 -0.1791 -0.1199  0.4761
  112OSM    H8S11628   3.723  -0.465  10.209 -0.4872 -1.1234 -0.3395
  112OSM    H8T11629   3.629  -0.363  10.103  0.5982 -0.9134  0.0212
  112OSM    C9S11630   3.526  -0.533  10.186 -0.5230  0.1698 -0.4168
  112OSM    H9S11631   3.429  -0.488  10.158 -0.3343 -0.9464 -3.2248
  112OSM    H9T11632   3.506  -0.585  10.282 -0.3853 -0.2255 -0.5999
  112OSM   C10S11633   3.556  -0.639  10.080  0.0251  0.2261 -0.4088
  112OSM   H10S11634   3.491  -0.723  10.114  0.7589 -0.3298 -0.3641
  112OSM   H10T11635   3.664  -0.666  10.082 -0.0465 -0.0454  0.9029
  112OSM   C11S11636   3.503  -0.609   9.939 -0.6811  0.3793  0.3969
  112OSM   H11S11637   3.560  -0.521   9.903 -1.2832  1.1286  1.2286
  112OSM   H11T11638   3.393  -0.595   9.933 -0.7783 -0.6252 -1.0113
  112OSM   C12S11639   3.534  -0.726   9.841  0.7981 -0.0751 -0.4623
  112OSM   H12S11640   3.500  -0.824   9.881 -2.3016  1.1890  0.2600
  112OSM   H12T11641   3.644  -0.733   9.824  0.9029  1.2053 -0.4289
  112OSM   C13S11642   3.459  -0.711   9.703 -0.6203 -0.5968  0.0912
  112OSM   H13S11643   3.469  -0.609   9.658  0.1318 -0.5555  0.3245
  112OSM   H13T11644   3.350  -0.728   9.715 -0.8758 -0.0663 -1.2215
  112OSM   C14S11645   3.503  -0.810   9.596 -0.5036  0.6195 -0.0051
  112OSM   H14S11646   3.463  -0.907   9.632  0.0369  0.6990  0.8254
  112OSM   H14T11647   3.612  -0.828   9.600 -0.4338  0.4381 -1.9292
  112OSM   C15S11648   3.450  -0.789   9.450 -0.6713  0.3412  0.7975
  112OSM   H15S11649   3.492  -0.698   9.401  0.1043  0.5051  1.7325
  112OSM   H15T11650   3.339  -0.787   9.454 -0.7498 -1.5831  0.4221
  112OSM   C16S11651   3.492  -0.909   9.369 -0.0295  0.1506 -0.3491
  112OSM   H16S11652   3.441  -0.997   9.415  2.3307 -0.3215  1.5989
  112OSM   H16T11653   3.600  -0.937   9.369 -0.5116 -1.9960  0.6217
  112OSM   C17S11654   3.445  -0.893   9.224 -0.0870  0.6578 -0.0710
  112OSM   H17S11655   3.457  -0.788   9.189 -1.0434 -0.0695 -2.8532
  112OSM   H17T11656   3.337  -0.917   9.223 -0.2373  1.2699  0.3707
  112OSM   C18S11657   3.513  -0.997   9.137 -0.3914 -0.2295 -0.0408
  112OSM   H18S11658   3.498  -1.104   9.164 -1.6467  0.2984  1.5221
  112OSM   H18T11659   3.623  -0.986   9.138 -0.1583 -2.0179  2.0167
  112OSM   H18U11660   3.479  -0.984   9.032  0.2632  0.8793 -0.1208
  112OSM    C1F11661   3.811   0.156  10.553 -0.6949 -0.3776  0.6283
  112OSM     OF11662   3.871   0.148  10.657  0.4735 -0.2940  0.2669
  112OSM    C2F11663   3.866   0.228  10.439 -0.3597 -0.1061 -0.5311
  112OSM    H2F11664   3.928   0.312  10.478 -0.3839  0.0835 -0.8995
  112OSM    H2G11665   3.785   0.260  10.371 -1.8216 -1.1967  0.6333
  112OSM    C3F11666   3.964   0.127  10.363  0.0791 -0.8075 -0.6977
  112OSM    H3F11667   4.050   0.106  10.429  1.0901  0.7269 -1.4672
  112OSM    H3G11668   4.008   0.179  10.275 -0.7510  0.8567 -0.1749
  112OSM    C4F11669   3.884   0.001  10.302 -0.3900 -0.0678  0.8410
  112OSM    H4F11670   3.775   0.018  10.311 -0.2939  1.2542 -0.2315
  112OSM    H4G11671   3.918  -0.085  10.363  4.8576  0.3405 -0.9554
  112OSM    C5F11672   3.919  -0.018  10.156  0.1369  0.5270 -0.3011
  112OSM    H5F11673   4.027   0.008  10.149  0.9205 -0.6520  4.1193
  112OSM    H5G11674   3.866   0.050  10.086 -1.0207 -0.0533 -0.0206
  112OSM    C6F11675   3.900  -0.156  10.102  0.2302 -0.1159 -0.2938
  112OSM    H6F11676   3.798  -0.198  10.121 -0.2832 -0.7836 -3.9371
  112OSM    H6G11677   3.982  -0.219  10.142 -0.6437 -0.8367  0.4330
  112OSM    C7F11678   3.929  -0.159   9.951  0.4776 -0.1429 -0.2742
  112OSM    H7F11679   4.022  -0.098   9.945  0.0371  0.6978  0.9105
  112OSM    H7G11680   3.846  -0.113   9.895 -0.7648 -0.5315  1.1924
  112OSM    C8F11681   3.958  -0.297   9.902 -0.3307  0.5445 -0.6200
  112OSM    H8F11682   4.032  -0.334   9.976 -0.4506  0.1581 -0.6895
  112OSM    H8G11683   4.013  -0.280   9.807 -1.2436  2.9867 -0.7642
  112OSM    C9F11684   3.862  -0.405   9.884 -0.1214  0.2603 -0.6178
  112OSM    H9F11685   3.811  -0.431   9.977 -0.6885  1.7648 -0.4861
  112OSM   C10F11686   3.818  -0.462   9.769  0.6997  0.1855  0.1222
  112OSM   H10F11687   3.749  -0.546   9.786  1.8333 -0.4232  2.0442
  112OSM   C11F11688   3.864  -0.435   9.634  0.2810  0.4006  0.2036
  112OSM   H11F11689   3.947  -0.496   9.593  0.6264  1.3413 -0.5330
  112OSM   H11G11690   3.892  -0.328   9.641 -0.3006  0.4573  2.7179
  112OSM   C12F11691   3.744  -0.473   9.545  0.0861 -0.1014  0.4334
  112OSM   H12F11692   3.666  -0.396   9.567  0.3979 -0.1261  1.7442
  112OSM   H12G11693   3.706  -0.573   9.573  1.1795 -0.5013  0.5267
  112OSM   C13F11694   3.779  -0.458   9.397  0.1068 -0.2077 -0.0212
  112OSM   H13F11695   3.844  -0.542   9.362 -0.2781 -0.4324 -0.2018
  112OSM   H13G11696   3.839  -0.365   9.388 -0.7198  0.2096 -1.7563
  112OSM   C14F11697   3.653  -0.448   9.307 -0.8265 -0.3668  0.0416
  112OSM   H14F11698   3.588  -0.366   9.346  0.5244  0.9542 -0.4104
  112OSM   H14G11699   3.603  -0.547   9.314  0.2256 -0.7812  3.5513
  112OSM   C15F11700   3.702  -0.416   9.165 -0.9123  0.3676  0.5058
  112OSM   H15F11701   3.779  -0.491   9.133 -1.5007  0.8372 -2.2635
  112OSM   H15G11702   3.749  -0.316   9.173  2.8723 -1.2818  1.3163
  112OSM   C16F11703   3.595  -0.434   9.069  0.0169 -0.2641 -0.1501
  112OSM   H16F11704   3.505  -0.394   9.119  0.6651  2.4338 -0.9296
  112OSM   H16G11705   3.571  -0.541   9.057 -0.8397 -0.1674  0.6758
  112OSM   C17F11706   3.631  -0.370   8.934 -0.0685  0.3545 -0.4706
  112OSM   H17F11707   3.732  -0.406   8.906  0.3130  0.6269  0.4904
  112OSM   H17G11708   3.655  -0.261   8.941 -2.6333  0.9129  0.6095
  112OSM   C18F11709   3.522  -0.388   8.830  0.2484 -0.4714 -0.4097
  112OSM   H18F11710   3.455  -0.301   8.841  0.2989 -0.6615  1.9090
  112OSM   H18G11711   3.483  -0.492   8.841  2.3259 -1.1645  1.2366
  112OSM   H18H11712   3.569  -0.387   8.730 -1.2288  0.7838 -1.1140
  113OSM      N11713   0.931   5.004  11.149  0.7005  0.4987  0.0886
  113OSM    C1511714   0.919   4.928  11.275  0.7395  0.2505  0.6250
  113OSM   H15A11715   1.014   4.880  11.292  0.1008 -1.0891  0.5556
  113OSM   H15B11716   0.841   4.855  11.261  1.8275 -0.5878 -1.6067
  113OSM   H15C11717   0.888   4.993  11.356 -0.4512  0.8842 -0.2993
  113OSM    C1411718   0.807   5.090  11.135  0.4301  0.0196  0.9303
  113OSM   H14A11719   0.813   5.157  11.220  1.8063  2.6563 -1.1045
  113OSM   H14B11720   0.713   5.037  11.137  0.0777  0.6468  2.0019
  113OSM   H14C11721   0.803   5.154  11.048  0.1696 -0.9678  0.1899
  113OSM    C1311722   1.050   5.094  11.160  0.7504  0.3358  0.1556
  113OSM   H13A11723   1.036   5.151  11.251  0.9995 -0.5451  0.7562
  113OSM   H13B11724   1.072   5.153  11.072  1.6925  1.0368  0.8421
  113OSM   H13C11725   1.141   5.037  11.172  1.7143  1.7256 -0.2712
  113OSM    C1211726   0.938   4.925  11.020 -0.7520 -0.4720  0.0684
  113OSM   H12A11727   0.946   4.984  10.931 -0.1246  0.7721  0.9210
  113OSM   H12B11728   0.843   4.874  11.011 -0.7730 -1.4666  3.9160
  113OSM    C1111729   1.043   4.819  11.010 -0.3973 -0.0067  0.5370
  113OSM   H11A11730   1.025   4.766  10.914 -0.5954 -0.8938  1.0549
  113OSM   H11B11731   1.025   4.748  11.093 -0.2692  0.5903  1.0763
  113OSM      P11732   1.241   4.934  10.885  0.0926 -0.4633  0.1932
  113OSM    O1311733   1.329   5.048  10.915  0.2736  0.4948 -0.4829
  113OSM    O1411734   1.295   4.824  10.810 -0.2980  0.1948 -0.1730
  113OSM    O1111735   1.114   4.989  10.807 -0.6160 -0.0615  0.4280
  113OSM    O1211736   1.173   4.878  11.018 -0.8120  0.7224 -0.0655
  113OSM    C1S11737   1.137   5.033  10.672 -0.4556 -1.0543  0.3335
  113OSM    H1S11738   1.203   4.961  10.618  0.5726 -0.4420  0.7359
  113OSM    H1T11739   1.191   5.130  10.676 -0.5412 -0.9710 -0.3020
  113OSM     NF11740   1.033   5.070  10.439  0.1866  0.1142  0.6473
  113OSM    HNF11741   1.020   5.159  10.395 -0.4153 -0.4015 -0.2336
  113OSM    C2S11742   1.008   5.052  10.585  0.1371 -0.6138  1.4098
  113OSM    H2S11743   0.941   4.964  10.597 -1.1650 -0.0912 -1.1662
  113OSM    C3S11744   0.929   5.175  10.644 -0.2862 -0.0446 -0.3948
  113OSM    H3S11745   0.988   5.268  10.629 -0.2037  0.2665  1.6379
  113OSM     O311746   0.921   5.171  10.784 -0.2674 -0.2168 -0.0469
  113OSM    HO311747   1.004   5.131  10.810 -1.1198 -2.0578 -0.0036
  113OSM    C4S11748   0.796   5.192  10.576 -0.6280  0.3131  1.1430
  113OSM    H4S11749   0.737   5.100  10.588  0.0152 -0.3622 -0.5744
  113OSM    C5S11750   0.745   5.292  10.505 -0.5215 -0.0347 -0.5807
  113OSM    H5S11751   0.789   5.392  10.515 -0.5803  0.1564 -2.0420
  113OSM    C6S11752   0.606   5.297  10.445  0.0315  0.2067 -0.7964
  113OSM    H6S11753   0.564   5.377  10.508 -0.8640 -0.6403 -0.2947
  113OSM    H6T11754   0.558   5.198  10.461 -3.0745  1.7984  0.5573
  113OSM    C7S11755   0.608   5.312  10.292  0.9410  0.6131 -0.8147
  113OSM    H7S11756   0.503   5.309  10.255  0.0436 -0.2617  1.5992
  113OSM    H7T11757   0.664   5.229  10.243 -0.2895 -0.0782 -1.0830
  113OSM    C8S11758   0.663   5.451  10.271 -0.9585 -0.0731  0.4255
  113OSM    H8S11759   0.769   5.463  10.302 -1.3356 -1.6441  2.4630
  113OSM    H8T11760   0.606   5.524  10.333  0.0107  0.0243  1.2276
  113OSM    C9S11761   0.657   5.488  10.122  0.2907  0.0841  0.5948
  113OSM    H9S11762   0.668   5.595  10.096  0.0727  0.1634  0.8170
  113OSM    H9T11763   0.554   5.461  10.089 -0.2552  2.1061  0.4946
  113OSM   C10S11764   0.762   5.411  10.043  0.6911 -0.7760 -0.3817
  113OSM   H10S11765   0.725   5.306  10.042 -1.4631 -0.1817  2.2744
  113OSM   H10T11766   0.859   5.421  10.096  1.1720 -1.7712 -1.0474
  113OSM   C11S11767   0.775   5.461   9.903 -0.1224  0.1189  0.4436
  113OSM   H11S11768   0.811   5.566   9.906  1.2616 -0.3571  2.3277
  113OSM   H11T11769   0.683   5.457   9.841  0.7124  0.7919 -0.8752
  113OSM   C12S11770   0.871   5.366   9.834 -0.5832  0.0025 -0.0934
  113OSM   H12S11771   0.821   5.269   9.818  0.4847 -0.6764  0.5871
  113OSM   H12T11772   0.964   5.362   9.895 -1.4181 -0.5970  1.1526
  113OSM   C13S11773   0.912   5.414   9.696  0.0357 -0.0212  0.7596
  113OSM   H13S11774   0.819   5.459   9.657  0.6288 -0.5451 -1.3734
  113OSM   H13T11775   0.961   5.339   9.630  1.5977  0.6370  1.1322
  113OSM   C14S11776   1.003   5.540   9.707  0.4721  0.3469  1.1165
  113OSM   H14S11777   1.098   5.506   9.753  1.2042  2.3212  1.1849
  113OSM   H14T11778   0.952   5.628   9.752 -2.8285  0.0407 -1.6239
  113OSM   C15S11779   1.047   5.593   9.561  0.1604 -0.3318  0.3847
  113OSM   H15S11780   1.107   5.686   9.570  0.3517 -0.4779  0.6150
  113OSM   H15T11781   0.959   5.628   9.502  0.5759 -0.5713 -0.3957
  113OSM   C16S11782   1.125   5.489   9.479 -0.0070  0.2586  0.8676
  113OSM   H16S11783   1.064   5.407   9.437 -0.1212 -0.2119  1.9195
  113OSM   H16T11784   1.199   5.451   9.552 -0.1049 -0.4130  0.6239
  113OSM   C17S11785   1.217   5.536   9.358 -0.6348  0.1854 -0.5933
  113OSM   H17S11786   1.279   5.454   9.316 -0.5378  1.2179 -2.6256
  113OSM   H17T11787   1.287   5.616   9.391 -0.0587 -0.7227  0.4458
  113OSM   C18S11788   1.145   5.585   9.235 -0.7074  0.2017 -0.6711
  113OSM   H18S11789   1.039   5.552   9.240 -0.9244  0.9446 -0.1479
  113OSM   H18T11790   1.197   5.551   9.142 -0.5016  0.9495 -0.8399
  113OSM   H18U11791   1.143   5.696   9.232  1.5993  0.3561  0.9196
  113OSM    C1F11792   1.051   4.955  10.369 -0.8203  1.0829  0.3972
  113OSM     OF11793   1.074   4.850  10.432 -0.5032 -0.4035  0.5305
  113OSM    C2F11794   1.039   4.953  10.221  0.9730  0.4612 -0.4979
  113OSM    H2F11795   1.126   5.004  10.174  0.4281  0.0156 -2.0392
  113OSM    H2G11796   0.947   5.008  10.193  0.1115  0.0701  1.3768
  113OSM    C3F11797   1.025   4.808  10.171  0.7588  0.3809  0.4403
  113OSM    H3F11798   0.934   4.767  10.219 -0.1798 -0.8331 -2.2457
  113OSM    H3G11799   1.118   4.749  10.189  2.1884  2.1965 -0.7137
  113OSM    C4F11800   1.008   4.801  10.019  0.4773  0.4333  0.5652
  113OSM    H4F11801   1.106   4.832   9.976  1.5298 -1.7162  1.2904
  113OSM    H4G11802   0.918   4.858   9.988  0.0813 -1.1127 -1.3469
  113OSM    C5F11803   0.993   4.654   9.974  0.2072  0.5139  0.3088
  113OSM    H5F11804   0.898   4.623  10.022  0.4578  1.9870  1.8548
  113OSM    H5G11805   1.085   4.607  10.014 -0.0247  0.4316  0.7508
  113OSM    C6F11806   0.995   4.637   9.823  0.4466  0.0119 -0.5880
  113OSM    H6F11807   0.989   4.529   9.799  1.2372  0.1278 -1.3285
  113OSM    H6G11808   1.081   4.687   9.774  2.7530 -2.3096  0.8393
  113OSM    C7F11809   0.874   4.717   9.757  0.1585 -0.1389 -0.6007
  113OSM    H7F11810   0.884   4.825   9.781 -1.4566  0.0575 -0.6996
  113OSM    H7G11811   0.782   4.692   9.813 -2.0415  0.0953 -3.8205
  113OSM    C8F11812   0.873   4.694   9.605  0.7017  0.0205  1.1905
  113OSM    H8F11813   0.873   4.585   9.586 -0.1832 -0.2294  2.4448
  113OSM    H8G11814   0.960   4.746   9.560  0.3176  1.5751  2.1746
  113OSM    C9F11815   0.745   4.763   9.557 -1.3035  0.3146 -0.0548
  113OSM    H9F11816   0.661   4.746   9.625 -0.8755  0.5186  0.5262
  113OSM   C10F11817   0.730   4.836   9.449  0.1351 -0.2085  0.6858
  113OSM   H10F11818   0.639   4.894   9.430  0.1747 -0.0657  0.9201
  113OSM   C11F11819   0.834   4.870   9.348 -0.2368 -0.2228  0.3785
  113OSM   H11F11820   0.826   4.794   9.267  0.3890 -0.4056  0.4801
  113OSM   H11G11821   0.937   4.848   9.382 -0.2570 -2.6117 -0.8930
  113OSM   C12F11822   0.824   5.006   9.283 -0.1449 -0.2217  0.2170
  113OSM   H12F11823   0.920   5.016   9.229  1.1284 -2.1260  1.9599
  113OSM   H12G11824   0.828   5.078   9.368 -0.5445 -1.1160  1.0155
  113OSM   C13F11825   0.700   5.038   9.204 -0.7209  0.4346  0.4827
  113OSM   H13F11826   0.703   5.145   9.174  0.1073  1.0514  2.6038
  113OSM   H13G11827   0.612   5.040   9.273  1.1169  2.0164  2.9592
  113OSM   C14F11828   0.665   4.954   9.076 -1.2464 -0.0242 -0.0919
  113OSM   H14F11829   0.627   4.856   9.111  2.5764 -1.7403 -0.2300
  113OSM   H14G11830   0.757   4.937   9.016 -0.9734  1.0155  0.0058
  113OSM   C15F11831   0.569   5.022   8.987  0.0888  0.2190 -0.1045
  113OSM   H15F11832   0.584   5.132   8.996  0.0037  0.3019 -0.9627
  113OSM   H15G11833   0.463   5.001   9.014 -0.4603 -1.5582 -3.1437
  113OSM   C16F11834   0.589   4.981   8.839  0.5519 -0.1127  0.0680
  113OSM   H16F11835   0.682   5.025   8.798 -1.0062  2.2542 -1.0945
  113OSM   H16G11836   0.499   5.012   8.782  1.0033 -0.7885 -1.0277
  113OSM   C17F11837   0.594   4.831   8.817 -0.4198 -0.1338 -0.5210
  113OSM   H17F11838   0.508   4.772   8.855  1.1396 -1.4927  1.0384
  113OSM   H17G11839   0.689   4.799   8.863 -0.3571  1.2350  0.3215
  113OSM   C18F11840   0.606   4.819   8.662  0.2298  0.4034  0.0952
  113OSM   H18F11841   0.528   4.882   8.614  0.2984 -0.8460 -1.7424
  113OSM   H18G11842   0.587   4.714   8.632 -1.5537  1.0081 -1.0280
  113OSM   H18H11843   0.712   4.843   8.640  0.5790 -0.9901  0.1871
  114OSM      N11844   2.935   5.414  11.127 -0.0570 -0.2510  0.1205
  114OSM    C1511845   2.927   5.462  10.988 -0.5943  0.4901  0.0346
  114OSM   H15A11846   2.892   5.381  10.925 -1.2086  0.8964 -0.1590
  114OSM   H15B11847   3.019   5.503  10.949 -1.5298  0.2308 -2.6519
  114OSM   H15C11848   2.860   5.546  10.977 -2.2552 -0.9025 -1.0056
  114OSM    C1411849   3.037   5.303  11.131 -0.1181  0.0268 -0.0801
  114OSM   H14A11850   3.020   5.260  11.228 -0.1179  2.5006  1.0872
  114OSM   H14B11851   3.141   5.334  11.128 -0.1331  0.3902  1.8707
  114OSM   H14C11852   3.009   5.235  11.052 -0.9975 -0.0088  0.2531
  114OSM    C1311853   2.975   5.517  11.219 -0.0705  0.1101 -0.2807
  114OSM   H13A11854   3.006   5.474  11.313  0.8746 -2.2924 -1.6190
  114OSM   H13B11855   2.895   5.588  11.234 -0.1586  0.0651 -0.5339
  114OSM   H13C11856   3.065   5.569  11.188  0.1452  0.7422  1.2975
  114OSM    C1211857   2.802   5.350  11.167 -0.1480  0.1977 -0.0739
  114OSM   H12A11858   2.727   5.428  11.164  2.2854  2.8023  1.1511
  114OSM   H12B11859   2.817   5.309  11.265  0.5698  1.7691  0.5158
  114OSM    C1111860   2.747   5.238  11.075  0.8128 -0.4840  0.6222
  114OSM   H11A11861   2.654   5.204  11.125  0.6508 -2.2445 -0.7460
  114OSM   H11B11862   2.812   5.148  11.082  0.4971 -1.0202 -2.1737
  114OSM      P11863   2.609   5.362  10.879 -0.3908  0.0652 -0.1266
  114OSM    O1311864   2.526   5.403  10.992 -0.0410 -0.2878 -0.3353
  114OSM    O1411865   2.663   5.466  10.783  0.1476 -0.2884  0.3756
  114OSM    O1111866   2.528   5.259  10.788 -0.0477 -0.8576 -0.5651
  114OSM    O1211867   2.728   5.266  10.936  0.2173  0.1725  0.0476
  114OSM    C1S11868   2.409   5.326  10.732 -0.1749  0.5027  0.2225
  114OSM    H1S11869   2.401   5.436  10.741 -2.0085  0.2405  2.8440
  114OSM    H1T11870   2.319   5.288  10.785  0.3497  0.0553  0.8085
  114OSM     NF11871   2.309   5.347  10.502  0.0890 -0.3358  0.0227
  114OSM    HNF11872   2.220   5.313  10.474  0.2470  1.2147 -2.7945
  114OSM    C2S11873   2.401   5.271  10.585  0.0432  0.4289  0.8520
  114OSM    H2S11874   2.499   5.281  10.534 -0.3617 -2.4318 -0.7315
  114OSM    C3S11875   2.373   5.119  10.593 -0.2996  0.1917  1.0215
  114OSM    H3S11876   2.268   5.095  10.621 -0.1177 -1.5878  0.3137
  114OSM     O311877   2.447   5.043  10.689  0.1622  0.1254  0.4755
  114OSM    HO311878   2.510   5.106  10.726  1.5815 -0.4148 -0.9207
  114OSM    C4S11879   2.404   5.063  10.453 -0.1820  0.0724  0.1893
  114OSM    H4S11880   2.512   5.055  10.433  0.6937  0.7614  3.8637
  114OSM    C5S11881   2.319   5.044  10.354  1.0014 -0.6338 -0.1494
  114OSM    H5S11882   2.220   5.088  10.375  2.0231  1.7361  0.0002
  114OSM    C6S11883   2.348   5.001  10.217  0.3003 -0.6790  0.9602
  114OSM    H6S11884   2.297   4.904  10.197  1.3496 -1.4414  1.8865
  114OSM    H6T11885   2.455   4.981  10.194 -0.4151 -0.0517 -4.0995
  114OSM    C7S11886   2.291   5.110  10.117 -0.6135  0.0025  0.1618
  114OSM    H7S11887   2.325   5.213  10.142 -2.4790  0.6848  0.0138
  114OSM    H7T11888   2.180   5.109  10.116 -0.6390  0.1175  1.4655
  114OSM    C8S11889   2.320   5.071   9.974 -0.0653 -0.4108 -0.1429
  114OSM    H8S11890   2.263   4.983   9.937  2.5423 -1.7704 -1.2021
  114OSM    H8T11891   2.423   5.036   9.955 -0.4233 -0.9456 -1.1750
  114OSM    C9S11892   2.302   5.182   9.866 -0.0523  0.2568  0.2185
  114OSM    H9S11893   2.367   5.267   9.895 -0.1613  0.1071  0.9212
  114OSM    H9T11894   2.196   5.214   9.864 -0.6702 -1.6414 -0.0634
  114OSM   C10S11895   2.356   5.148   9.727  0.1071  0.6104 -0.0501
  114OSM   H10S11896   2.291   5.076   9.673  1.1874  0.1276 -0.7257
  114OSM   H10T11897   2.452   5.095   9.737 -0.6547 -1.3143 -2.1641
  114OSM   C11S11898   2.378   5.275   9.648  0.4489  0.1016 -0.1577
  114OSM   H11S11899   2.442   5.352   9.695 -0.7162  0.6116  0.6427
  114OSM   H11T11900   2.279   5.325   9.637  1.3557  2.0714  0.3697
  114OSM   C12S11901   2.440   5.252   9.510  0.7136 -0.0448  1.2487
  114OSM   H12S11902   2.382   5.173   9.457  2.2820  0.0162 -0.6796
  114OSM   H12T11903   2.543   5.213   9.525 -0.0595 -1.4744  3.2452
  114OSM   C13S11904   2.439   5.367   9.404 -0.4047  1.0124 -0.0221
  114OSM   H13S11905   2.520   5.438   9.430  1.1648 -0.4095 -0.9026
  114OSM   H13T11906   2.342   5.422   9.402  0.1099  2.0152  1.3021
  114OSM   C14S11907   2.459   5.311   9.266  0.5524  0.4867  0.1376
  114OSM   H14S11908   2.377   5.236   9.258  1.6329 -0.8945  1.4423
  114OSM   H14T11909   2.561   5.267   9.269  0.2595 -0.2661 -0.5829
  114OSM   C15S11910   2.444   5.406   9.144 -0.1854  0.3628  0.3042
  114OSM   H15S11911   2.515   5.491   9.155  0.4901  0.4563 -3.5769
  114OSM   H15T11912   2.341   5.445   9.130  0.0192  1.1468  0.9177
  114OSM   C16S11913   2.490   5.335   9.022  0.1841  0.2791  0.2367
  114OSM   H16S11914   2.407   5.271   8.985 -0.9162  1.0202  1.3537
  114OSM   H16T11915   2.586   5.280   9.037  1.0706  1.5365 -0.6045
  114OSM   C17S11916   2.501   5.423   8.898 -0.0424 -0.4049 -0.6408
  114OSM   H17S11917   2.573   5.505   8.916 -2.7638  2.3595 -1.5011
  114OSM   H17T11918   2.409   5.484   8.885  0.0697  0.3420  1.6593
  114OSM   C18S11919   2.533   5.366   8.758 -0.3114  0.3115 -0.6176
  114OSM   H18S11920   2.444   5.323   8.706 -1.0402  0.0358  0.8149
  114OSM   H18T11921   2.604   5.280   8.765 -1.0285 -0.4004 -1.7324
  114OSM   H18U11922   2.574   5.444   8.691 -0.3436  0.7874 -0.0893
  114OSM    C1F11923   2.341   5.465  10.459 -0.4258 -0.9693  0.0626
  114OSM     OF11924   2.424   5.544  10.510  0.4791  0.5070 -0.3982
  114OSM    C2F11925   2.271   5.511  10.336  0.2711  0.3039 -1.0794
  114OSM    H2F11926   2.179   5.564  10.366 -1.2930 -1.9455 -1.6695
  114OSM    H2G11927   2.243   5.425  10.272 -1.3584 -0.5467  0.6999
  114OSM    C3F11928   2.344   5.613  10.258 -0.1853 -0.3650 -0.5587
  114OSM    H3F11929   2.436   5.558  10.227 -0.9431 -3.3444  2.0199
  114OSM    H3G11930   2.359   5.704  10.319 -1.5066  0.4687 -1.4190
  114OSM    C4F11931   2.264   5.664  10.134 -0.5659 -0.0589 -0.1655
  114OSM    H4F11932   2.308   5.755  10.087  0.1333 -0.4859 -0.3613
  114OSM    H4G11933   2.163   5.675  10.177 -0.1562 -1.0702  1.1043
  114OSM    C5F11934   2.254   5.553  10.029 -0.4557 -0.2178 -0.1811
  114OSM    H5F11935   2.196   5.465  10.065  1.5213 -0.2539  3.2926
  114OSM    H5G11936   2.351   5.505  10.006 -0.7160 -1.3794  1.0194
  114OSM    C6F11937   2.195   5.606   9.898 -0.2088  0.8489 -0.3792
  114OSM    H6F11938   2.207   5.523   9.825  1.5398  0.6056  0.1299
  114OSM    H6G11939   2.254   5.692   9.861 -0.8674  1.0885 -0.8903
  114OSM    C7F11940   2.048   5.642   9.913  0.2044 -0.0215  0.3807
  114OSM    H7F11941   2.048   5.723   9.988  0.2254  1.1790 -0.8839
  114OSM    H7G11942   1.988   5.559   9.957  0.1322  0.2745  0.8474
  114OSM    C8F11943   1.976   5.691   9.788 -0.0983 -0.0104  0.1890
  114OSM    H8F11944   1.895   5.761   9.818 -0.6883 -1.1755  1.4567
  114OSM    H8G11945   1.925   5.603   9.742 -0.8575 -0.5297  1.9333
  114OSM    C9F11946   2.075   5.757   9.698  0.8776  0.3859  0.6560
  114OSM    H9F11947   2.129   5.832   9.758 -0.1407  0.2261  1.8017
  114OSM   C10F11948   2.102   5.732   9.570  0.1688 -0.0337  0.1162
  114OSM   H10F11949   2.178   5.797   9.526  1.0206 -0.5012  0.8547
  114OSM   C11F11950   2.045   5.626   9.480 -0.6194  0.2484  0.3814
  114OSM   H11F11951   1.976   5.555   9.531 -3.4003  0.5793 -2.5429
  114OSM   H11G11952   2.132   5.570   9.440 -0.6977 -1.6765  2.6982
  114OSM   C12F11953   1.971   5.685   9.354 -1.0339  1.0739 -0.1061
  114OSM   H12F11954   1.881   5.745   9.380 -2.2563 -0.5662 -0.3836
  114OSM   H12G11955   1.932   5.598   9.296  0.7086  0.8622 -1.0342
  114OSM   C13F11956   2.069   5.756   9.263 -0.3524 -0.0675  0.0407
  114OSM   H13F11957   2.155   5.689   9.244 -1.7601 -1.7249 -0.8937
  114OSM   H13G11958   2.096   5.850   9.315 -1.5553  0.8876 -0.9853
  114OSM   C14F11959   2.004   5.788   9.125 -0.4011  0.1534 -0.6008
  114OSM   H14F11960   1.920   5.861   9.116 -1.7691 -1.3257 -0.3588
  114OSM   H14G11961   1.973   5.689   9.086  0.5617 -1.0060  1.4462
  114OSM   C15F11962   2.118   5.826   9.022 -0.1251 -0.2560  0.1432
  114OSM   H15F11963   2.205   5.759   9.043  1.6346  2.4417  2.2347
  114OSM   H15G11964   2.148   5.933   9.030  0.8065 -0.3037 -2.0013
  114OSM   C16F11965   2.070   5.816   8.876 -0.5823  0.5645  0.7579
  114OSM   H16F11966   2.035   5.714   8.848  1.3673  0.3092 -0.9766
  114OSM   H16G11967   2.155   5.846   8.811 -1.7904 -1.2349 -1.8361
  114OSM   C17F11968   1.950   5.903   8.842 -0.1811 -0.0058  0.4614
  114OSM   H17F11969   1.960   6.006   8.884  0.9316 -0.1607  0.6094
  114OSM   H17G11970   1.862   5.848   8.881  0.5303 -3.0980 -1.9513
  114OSM   C18F11971   1.923   5.910   8.694  0.3464 -0.4076  0.2416
  114OSM   H18F11972   1.841   5.981   8.672  1.0098  0.5555  0.7987
  114OSM   H18G11973   1.914   5.807   8.652 -0.6888 -0.4889  0.6510
  114OSM   H18H11974   2.011   5.954   8.642  0.0704  0.1925  0.2797
  115OSM      N11975   5.865   0.775  10.979  0.6878 -0.0948  0.1015
  115OSM    C1511976   5.995   0.787  10.914  0.5976  0.2415  0.0310
  115OSM   H15A11977   6.074   0.798  10.986 -0.0113 -1.4510  1.0242
  115OSM   H15B11978   5.987   0.855  10.831  3.1302  1.9351  1.0734
  115OSM   H15C11979   6.020   0.688  10.877  2.3825 -0.1561  2.0974
  115OSM    C1411980   5.825   0.907  11.031  0.0820 -0.2310 -0.1616
  115OSM   H14A11981   5.870   0.936  11.124  0.3446  1.9559 -0.9100
  115OSM   H14B11982   5.718   0.918  11.041 -0.1834  0.0440 -2.6449
  115OSM   H14C11983   5.853   0.978  10.954  0.4683  0.0615  0.2446
  115OSM    C1311984   5.771   0.720  10.876  0.3671 -0.7514 -0.1786
  115OSM   H13A11985   5.669   0.720  10.913  0.7153 -1.0600  0.8301
  115OSM   H13B11986   5.791   0.618  10.850  2.7935 -0.5620  0.7299
  115OSM   H13C11987   5.795   0.760  10.779  0.0227 -1.4990 -0.5801
  115OSM    C1211988   5.870   0.668  11.092 -0.8673  0.6372  0.0091
  115OSM   H12A11989   5.935   0.700  11.172 -3.0520 -2.1946  3.2106
  115OSM   H12B11990   5.919   0.584  11.044  1.1261  1.8203 -0.1344
  115OSM    C1111991   5.734   0.620  11.154 -0.5470  0.2009 -0.3606
  115OSM   H11A11992   5.677   0.703  11.201  0.5292  2.4824 -2.8582
  115OSM   H11B11993   5.761   0.560  11.244 -0.2558  2.7392  1.3617
  115OSM      P11994   5.682   0.400  11.025  0.1412 -0.0681 -0.0518
  115OSM    O1311995   5.808   0.395  10.951  0.3161 -0.2262  0.1473
  115OSM    O1411996   5.680   0.318  11.148 -0.4165 -0.1057 -0.3008
  115OSM    O1111997   5.554   0.353  10.931  0.0209 -0.0395  0.1058
  115OSM    O1211998   5.653   0.543  11.066  0.1739 -0.0692 -0.1227
  115OSM    C1S11999   5.533   0.418  10.807 -0.7804 -0.5022  0.1981
  115OSM    H1S12000   5.623   0.414  10.741  0.6521  0.6117  1.9650
  115OSM    H1T12001   5.517   0.528  10.815  0.9172 -0.1524 -0.6098
  115OSM     NF12002   5.420   0.445  10.598 -0.1495  0.1931  0.1302
  115OSM    HNF12003   5.333   0.493  10.598 -0.5461 -0.2927  3.1981
  115OSM    C2S12004   5.433   0.355  10.708 -0.0771  0.3045  1.0332
  115OSM    H2S12005   5.485   0.261  10.680  0.3499  0.7015  0.4906
  115OSM    C3S12006   5.294   0.327  10.776 -0.1072  0.5010 -0.1592
  115OSM    H3S12007   5.255   0.428  10.798  1.8055  1.2325  0.0812
  115OSM     O312008   5.306   0.267  10.906  1.0447 -0.0541  0.6258
  115OSM    HO312009   5.401   0.276  10.911  1.0434  2.8709 -1.6710
  115OSM    C4S12010   5.207   0.262  10.675  0.1600  0.6999  0.5692
  115OSM    H4S12011   5.125   0.319  10.630  1.6655  1.6083 -1.1730
  115OSM    C5S12012   5.219   0.134  10.643 -0.2680  0.4627 -0.3570
  115OSM    H5S12013   5.309   0.078  10.670 -0.1947  1.2863  1.2798
  115OSM    C6S12014   5.128   0.071  10.544  0.9334 -0.6796 -0.8057
  115OSM    H6S12015   5.029   0.121  10.538  1.3472  0.3385  0.3695
  115OSM    H6T12016   5.099  -0.032  10.577  0.6153 -0.4487 -0.3420
  115OSM    C7S12017   5.184   0.046  10.407 -0.5747 -0.5583  0.3724
  115OSM    H7S12018   5.110  -0.019  10.356  1.1956 -2.6895  0.3457
  115OSM    H7T12019   5.279  -0.011  10.417  0.6145  1.3055  0.2414
  115OSM    C8S12020   5.219   0.173  10.324 -0.0190  1.0391 -0.4262
  115OSM    H8S12021   5.307   0.214  10.378  3.0237 -2.1862 -2.4987
  115OSM    H8T12022   5.138   0.248  10.339  0.7175  1.5877  0.9174
  115OSM    C9S12023   5.242   0.150  10.174 -0.1511  0.3267  0.1102
  115OSM    H9S12024   5.144   0.111  10.138 -1.1133 -0.6098  3.4307
  115OSM    H9T12025   5.316   0.069  10.161 -1.5362 -0.9289 -0.2125
  115OSM   C10S12026   5.290   0.272  10.085  0.2525  0.1998 -0.9132
  115OSM   H10S12027   5.384   0.303  10.136 -0.6963  0.6219  0.6476
  115OSM   H10T12028   5.221   0.359  10.095 -0.3312 -0.4336  1.0475
  115OSM   C11S12029   5.312   0.231   9.940 -0.2008  0.0888 -0.4160
  115OSM   H11S12030   5.229   0.172   9.893  1.2943 -1.5927 -1.0889
  115OSM   H11T12031   5.410   0.179   9.938 -0.3745 -0.3331  1.0882
  115OSM   C12S12032   5.319   0.360   9.855  0.4311  0.5554  0.3130
  115OSM   H12S12033   5.394   0.434   9.890  0.2850  0.5072  0.7371
  115OSM   H12T12034   5.221   0.412   9.851  0.1987  0.1894  1.0813
  115OSM   C13S12035   5.348   0.325   9.706 -0.0242 -0.3869  0.3281
  115OSM   H13S12036   5.276   0.246   9.678  1.5074 -1.2857 -1.2872
  115OSM   H13T12037   5.452   0.286   9.697  0.2584 -0.8009  3.8664
  115OSM   C14S12038   5.334   0.446   9.612 -0.3811 -0.0903 -0.4752
  115OSM   H14S12039   5.410   0.519   9.647 -1.0441  0.2567  0.2757
  115OSM   H14T12040   5.232   0.485   9.632 -0.3517 -0.6913  0.9450
  115OSM   C15S12041   5.376   0.409   9.470  0.5158 -0.0454  0.1388
  115OSM   H15S12042   5.297   0.337   9.441 -0.5843  0.7892  0.9626
  115OSM   H15T12043   5.478   0.365   9.464  0.2754 -0.6005  0.0890
  115OSM   C16S12044   5.392   0.529   9.376  0.2135  0.4227  0.3702
  115OSM   H16S12045   5.433   0.613   9.437 -2.4425  0.9183  1.6322
  115OSM   H16T12046   5.299   0.572   9.333 -0.3532 -3.6480 -3.0870
  115OSM   C17S12047   5.466   0.507   9.241  0.0649 -0.5762  0.2171
  115OSM   H17S12048   5.567   0.468   9.264  1.9136  3.6921  0.3225
  115OSM   H17T12049   5.474   0.612   9.205  0.8963 -0.6292  0.2266
  115OSM   C18S12050   5.392   0.418   9.144  0.4197  0.2282  0.9870
  115OSM   H18S12051   5.292   0.463   9.130  1.4812  2.1046 -1.1097
  115OSM   H18T12052   5.393   0.307   9.153  0.5880  0.0984 -0.4391
  115OSM   H18U12053   5.451   0.432   9.051  1.3757  2.7912  1.8861
  115OSM    C1F12054   5.507   0.457  10.498  0.0589 -0.3314 -0.8655
  115OSM     OF12055   5.618   0.407  10.513 -0.1241  0.6476 -0.0142
  115OSM    C2F12056   5.463   0.524  10.371  0.1742  0.6171 -0.7488
  115OSM    H2F12057   5.355   0.510  10.349  0.2936  0.6170 -1.3689
  115OSM    H2G12058   5.518   0.465  10.294 -2.0424 -2.5479 -0.1020
  115OSM    C3F12059   5.512   0.672  10.369  0.3301  0.0831 -0.2797
  115OSM    H3F12060   5.622   0.671  10.384  0.3325 -0.4590 -0.2904
  115OSM    H3G12061   5.465   0.722  10.456  0.9668 -1.0828  0.7647
  115OSM    C4F12062   5.485   0.728  10.228 -0.5169  0.1850  0.4292
  115OSM    H4F12063   5.503   0.640  10.164  3.5080 -0.7371  2.5279
  115OSM    H4G12064   5.561   0.806  10.208 -0.0329  0.0400  1.6111
  115OSM    C5F12065   5.341   0.775  10.214 -0.6553 -0.9106  0.3535
  115OSM    H5F12066   5.325   0.862  10.280 -0.3753 -0.4607 -0.1609
  115OSM    H5G12067   5.271   0.691  10.235 -2.5792  0.9553  1.8130
  115OSM    C6F12068   5.321   0.835  10.070  0.7462 -0.1417 -0.0280
  115OSM    H6F12069   5.392   0.917  10.047 -0.2909  0.6487 -0.4907
  115OSM    H6G12070   5.217   0.872  10.062  0.7805  0.6421  2.2408
  115OSM    C7F12071   5.330   0.734   9.954 -0.0345  0.0577 -0.2169
  115OSM    H7F12072   5.253   0.656   9.973 -1.9548  1.5556 -1.5087
  115OSM    H7G12073   5.430   0.686   9.955 -0.0836 -0.0340  0.4181
  115OSM    C8F12074   5.309   0.802   9.814  0.1050 -0.1217  0.7210
  115OSM    H8F12075   5.221   0.865   9.839 -0.8073 -0.6940 -0.8768
  115OSM    H8G12076   5.289   0.724   9.737 -2.3859 -0.8467  1.9829
  115OSM    C9F12077   5.426   0.879   9.765 -0.4363  0.0161 -0.0805
  115OSM    H9F12078   5.507   0.894   9.838 -0.8125 -0.0040  0.3455
  115OSM   C10F12079   5.438   0.935   9.647 -0.6759  0.8150 -0.2737
  115OSM   H10F12080   5.520   1.007   9.633  2.5743 -2.8328 -1.8212
  115OSM   C11F12081   5.337   0.940   9.542  0.9167 -0.0638 -0.6285
  115OSM   H11F12082   5.277   1.033   9.533 -1.9314 -1.7256 -0.2073
  115OSM   H11G12083   5.262   0.860   9.559  1.2262  0.0605  1.6227
  115OSM   C12F12084   5.389   0.916   9.401 -1.0564  0.3694  0.0715
  115OSM   H12F12085   5.441   0.820   9.418  0.0686  1.1440  1.2276
  115OSM   H12G12086   5.472   0.986   9.377  0.7437 -1.9825 -0.9544
  115OSM   C13F12087   5.286   0.904   9.292 -0.0220 -0.4779  0.8947
  115OSM   H13F12088   5.196   0.968   9.303 -1.1988 -1.5862 -1.5240
  115OSM   H13G12089   5.245   0.803   9.315  0.9397 -0.7407  1.5219
  115OSM   C14F12090   5.346   0.908   9.149 -0.3074 -0.0629  0.2335
  115OSM   H14F12091   5.278   0.865   9.072 -1.0770  0.0822  0.8237
  115OSM   H14G12092   5.423   0.828   9.141 -0.4686 -0.3200  1.1925
  115OSM   C15F12093   5.403   1.045   9.099  0.2324 -0.2889 -0.9422
  115OSM   H15F12094   5.507   1.056   9.136  0.2645 -1.2609 -0.7008
  115OSM   H15G12095   5.334   1.119   9.146  1.1538  2.3794 -3.4725
  115OSM   C16F12096   5.390   1.070   8.949  0.1203 -0.3052 -0.1057
  115OSM   H16F12097   5.406   0.973   8.896 -2.2855 -0.8906  0.0828
  115OSM   H16G12098   5.478   1.133   8.925  0.0778 -1.2414 -3.0940
  115OSM   C17F12099   5.262   1.136   8.890  0.1423 -0.7063 -0.5261
  115OSM   H17F12100   5.245   1.231   8.946  0.6376 -0.9232  0.0019
  115OSM   H17G12101   5.175   1.070   8.906 -0.8350  0.2701 -1.6621
  115OSM   C18F12102   5.273   1.159   8.739 -0.5723  0.0297 -0.7056
  115OSM   H18F12103   5.363   1.221   8.717  0.5350 -1.6308 -1.0860
  115OSM   H18G12104   5.184   1.203   8.690  0.2413  1.2955 -1.1056
  115OSM   H18H12105   5.294   1.057   8.698  0.3432  0.6198 -1.7716
  116OSM      N12106   4.122   1.631  11.123  0.0025  0.3613  0.3543
  116OSM    C1512107   4.076   1.696  11.250 -0.2305  0.1425  0.1917
  116OSM   H15A12108   3.987   1.753  11.228 -0.5112 -1.1265 -2.2511
  116OSM   H15B12109   4.153   1.764  11.285  0.6855  0.1783 -1.7784
  116OSM   H15C12110   4.052   1.616  11.319 -1.7839 -2.0734 -2.6826
  116OSM    C1412111   4.189   1.733  11.039 -0.6296  0.2307 -0.1799
  116OSM   H14A12112   4.122   1.816  11.022 -1.0792 -0.0704  0.1321
  116OSM   H14B12113   4.233   1.696  10.948  0.9933 -0.1626  0.7167
  116OSM   H14C12114   4.259   1.786  11.103 -0.6816 -1.2769  1.1754
  116OSM    C1312115   4.217   1.526  11.165  0.6169 -0.3780 -0.4202
  116OSM   H13A12116   4.163   1.455  11.225 -0.7608 -1.0248 -2.3274
  116OSM   H13B12117   4.288   1.580  11.226  0.7744 -2.4495  1.3512
  116OSM   H13C12118   4.274   1.496  11.078  0.5404  0.8732 -0.9234
  116OSM    C1212119   4.011   1.563  11.039 -0.1122 -0.0306 -0.4370
  116OSM   H12A12120   3.957   1.499  11.107  0.8421  1.3386  1.7390
  116OSM   H12B12121   4.060   1.484  10.984  1.0852 -0.3889  1.0668
  116OSM    C1112122   3.913   1.648  10.951 -0.0265 -0.0669 -0.1177
  116OSM   H11A12123   3.861   1.575  10.885 -0.7417  1.8390 -1.7421
  116OSM   H11B12124   3.974   1.715  10.887  0.8609 -1.3477 -0.6524
  116OSM      P12125   3.818   1.887  11.043 -0.1232 -0.0071  0.0282
  116OSM    O1312126   3.698   1.926  11.112  0.3556  0.1329 -0.6412
  116OSM    O1412127   3.939   1.947  11.102 -0.0527  0.0501  1.0882
  116OSM    O1112128   3.798   1.920  10.891  0.2669 -0.8068 -0.2310
  116OSM    O1212129   3.826   1.722  11.035  0.1334  0.4486  0.1099
  116OSM    C1S12130   3.888   1.974  10.799 -0.0819  0.7034  0.1482
  116OSM    H1S12131   3.988   1.966  10.847 -0.8905  1.0208  1.9659
  116OSM    H1T12132   3.863   2.081  10.783 -0.6223  0.5184 -0.2988
  116OSM     NF12133   4.006   1.968  10.588 -0.3185  0.1381  0.5336
  116OSM    HNF12134   3.991   2.058  10.548  1.1743 -1.1054 -3.3730
  116OSM    C2S12135   3.885   1.913  10.657  0.2373  0.3807 -0.5589
  116OSM    H2S12136   3.895   1.803  10.667 -5.0794 -0.2929  0.2408
  116OSM    C3S12137   3.743   1.943  10.603 -0.5596 -0.0440 -0.2857
  116OSM    H3S12138   3.731   2.053  10.591  1.1886  0.1633 -0.3541
  116OSM     O312139   3.627   1.909  10.681  0.3017 -0.4266 -0.4067
  116OSM    HO312140   3.650   1.942  10.769  0.7078 -1.5599 -0.0757
  116OSM    C4S12141   3.726   1.865  10.473 -0.3459  0.7147  0.0314
  116OSM    H4S12142   3.760   1.761  10.480  1.5769  1.2166 -1.0522
  116OSM    C5S12143   3.698   1.912  10.348  0.0051 -0.3134 -0.2712
  116OSM    H5S12144   3.669   2.018  10.358 -0.8994 -0.6589  0.9659
  116OSM    C6S12145   3.707   1.832  10.222 -0.3545  0.1047 -0.1222
  116OSM    H6S12146   3.607   1.803  10.183  0.6371 -0.9001 -2.0765
  116OSM    H6T12147   3.770   1.741  10.227  0.7894  0.9578  2.2670
  116OSM    C7S12148   3.779   1.927  10.125  0.1843 -0.2222 -0.1548
  116OSM    H7S12149   3.887   1.929  10.153 -0.1719 -0.2801  1.2928
  116OSM    H7T12150   3.748   2.034  10.131 -1.1893 -0.1783 -4.4450
  116OSM    C8S12151   3.759   1.883   9.976  0.2500 -0.0984 -0.7978
  116OSM    H8S12152   3.652   1.887   9.945  0.3940  0.6395 -1.2279
  116OSM    H8T12153   3.785   1.776   9.971 -1.1885 -0.5391  0.2921
  116OSM    C9S12154   3.840   1.967   9.883 -0.0611  0.1005  0.5125
  116OSM    H9S12155   3.948   1.949   9.900  0.0253 -0.3712 -0.4287
  116OSM    H9T12156   3.821   2.076   9.894 -0.2533  0.1956 -0.6192
  116OSM   C10S12157   3.828   1.938   9.733  0.2372 -0.1983  0.9442
  116OSM   H10S12158   3.719   1.935   9.716  0.5426  0.0925 -1.5829
  116OSM   H10T12159   3.881   1.843   9.712 -0.1240  0.0057 -1.1022
  116OSM   C11S12160   3.878   2.051   9.647  0.0757  0.0570  0.3575
  116OSM   H11S12161   3.986   2.069   9.665  0.2692 -0.3015 -0.3940
  116OSM   H11T12162   3.822   2.144   9.665  1.0782  0.2576  2.7631
  116OSM   C12S12163   3.866   2.023   9.491 -0.1351  0.4307  0.1377
  116OSM   H12S12164   3.759   2.024   9.462 -0.6711  0.9127  1.9809
  116OSM   H12T12165   3.920   1.928   9.470  0.9700  1.2341 -0.7818
  116OSM   C13S12166   3.922   2.135   9.413 -0.6321 -0.1693  0.2596
  116OSM   H13S12167   4.029   2.154   9.437 -0.4007  0.2637 -1.0138
  116OSM   H13T12168   3.870   2.232   9.427 -0.1002  0.2769 -0.7685
  116OSM   C14S12169   3.909   2.111   9.254 -1.2847  0.0223 -0.8295
  116OSM   H14S12170   3.806   2.082   9.223 -1.4558  0.6328 -0.8515
  116OSM   H14T12171   3.973   2.026   9.223 -2.9178 -1.1022 -1.2268
  116OSM   C15S12172   3.945   2.233   9.169  0.1511 -0.4123  0.3083
  116OSM   H15S12173   4.052   2.261   9.176 -0.3440  1.0775  3.3312
  116OSM   H15T12174   3.888   2.315   9.217  1.2609  0.7418 -0.3036
  116OSM   C16S12175   3.901   2.231   9.020  0.3465  0.5790  0.3563
  116OSM   H16S12176   3.894   2.334   8.979 -0.2425 -0.4961 -2.4614
  116OSM   H16T12177   3.797   2.198   8.998  1.0969 -0.4340 -1.9250
  116OSM   C17S12178   3.993   2.139   8.932 -0.6402 -0.0701  0.0133
  116OSM   H17S12179   3.963   2.034   8.954 -2.5906  0.1214 -1.4427
  116OSM   H17T12180   4.098   2.164   8.960 -0.5721  1.5396 -1.4598
  116OSM   C18S12181   3.996   2.147   8.779  0.2934  0.1921 -0.0754
  116OSM   H18S12182   4.001   2.255   8.754  1.4630 -0.3429 -2.3614
  116OSM   H18T12183   3.902   2.103   8.738  0.4811 -0.1337 -0.1644
  116OSM   H18U12184   4.082   2.098   8.728  0.1657  0.9483 -1.0494
  116OSM    C1F12185   4.122   1.913  10.580  0.6382 -0.5044  0.4393
  116OSM     OF12186   4.145   1.806  10.634 -0.0913 -0.3405 -0.1460
  116OSM    C2F12187   4.221   1.991  10.497 -0.1675  0.1931 -0.3976
  116OSM    H2F12188   4.292   2.026  10.575 -1.1386  0.5065  0.3637
  116OSM    H2G12189   4.169   2.080  10.457 -1.5232 -0.5860 -0.4076
  116OSM    C3F12190   4.292   1.919  10.383  0.0510 -0.6567 -0.6349
  116OSM    H3F12191   4.357   1.840  10.426  0.7419  0.4842  0.4720
  116OSM    H3G12192   4.357   1.979  10.316  0.7576 -0.5999  0.0844
  116OSM    C4F12193   4.178   1.859  10.292  0.0642  0.8385  0.1140
  116OSM    H4F12194   4.080   1.911  10.298 -1.4288 -1.8016 -0.2623
  116OSM    H4G12195   4.163   1.761  10.342 -2.7720  0.0540 -2.0067
  116OSM    C5F12196   4.218   1.839  10.151  0.2434 -0.4578  0.7866
  116OSM    H5F12197   4.233   1.941  10.109 -1.4922 -0.2026  0.7227
  116OSM    H5G12198   4.131   1.795  10.098  0.8714  1.0520 -1.6494
  116OSM    C6F12199   4.348   1.761  10.130 -0.1787  0.5073  0.3689
  116OSM    H6F12200   4.332   1.661  10.177 -0.0668 -0.0116 -0.6522
  116OSM    H6G12201   4.433   1.817  10.174  0.0948 -0.2431  0.8099
  116OSM    C7F12202   4.377   1.738   9.983 -0.3664 -0.3262  0.4730
  116OSM    H7F12203   4.290   1.686   9.938  0.3028 -1.6736  0.6836
  116OSM    H7G12204   4.461   1.665   9.976 -0.6539 -0.8257  1.9425
  116OSM    C8F12205   4.428   1.872   9.928 -0.4400 -0.5632  0.6034
  116OSM    H8F12206   4.493   1.928   9.999 -0.1609  0.5949 -0.5185
  116OSM    H8G12207   4.338   1.936   9.916  0.6065  0.4398 -3.2433
  116OSM    C9F12208   4.496   1.852   9.792  0.1818  0.5576 -0.2540
  116OSM    H9F12209   4.586   1.789   9.789  1.6720  2.6049 -1.6004
  116OSM   C10F12210   4.450   1.885   9.670  0.3841  0.3419  1.1548
  116OSM   H10F12211   4.514   1.850   9.588  0.2986  0.0222  1.2235
  116OSM   C11F12212   4.317   1.954   9.635  0.1451  0.0218  0.5749
  116OSM   H11F12213   4.335   2.045   9.574 -2.3966  0.1596 -0.0836
  116OSM   H11G12214   4.265   1.989   9.727 -0.0657 -0.5018  0.6649
  116OSM   C12F12215   4.242   1.861   9.538 -0.0042  0.2009  0.9892
  116OSM   H12F12216   4.139   1.900   9.523  0.2615  0.6771  0.3613
  116OSM   H12G12217   4.239   1.757   9.579 -1.1145 -0.5391 -0.8546
  116OSM   C13F12218   4.298   1.847   9.397 -0.3341  0.0412  0.0222
  116OSM   H13F12219   4.223   1.789   9.339 -0.3420 -0.3164  0.3903
  116OSM   H13G12220   4.393   1.789   9.386 -0.5158 -0.1913 -0.3345
  116OSM   C14F12221   4.313   1.989   9.333  0.0051 -0.7946 -0.5534
  116OSM   H14F12222   4.391   2.051   9.383 -0.5084 -0.6048  0.0289
  116OSM   H14G12223   4.221   2.050   9.344  0.9566  0.5678  0.1404
  116OSM   C15F12224   4.337   1.989   9.185  0.4432  0.0913 -0.5728
  116OSM   H15F12225   4.248   1.937   9.143  0.1784  0.2962 -0.2712
  116OSM   H15G12226   4.422   1.921   9.165  0.0948 -1.0601  1.5894
  116OSM   C16F12227   4.357   2.138   9.139 -0.4921  0.7072  0.4019
  116OSM   H16F12228   4.439   2.188   9.194  2.3993 -1.2888 -1.8396
  116OSM   H16G12229   4.263   2.190   9.169 -1.2704 -0.0289 -0.6761
  116OSM   C17F12230   4.392   2.151   8.988 -0.1223 -0.3409 -0.1486
  116OSM   H17F12231   4.352   2.248   8.953  1.0311  0.3848  0.5016
  116OSM   H17G12232   4.346   2.066   8.933 -1.8248  1.3797 -1.5385
  116OSM   C18F12233   4.546   2.144   8.977 -0.3902 -0.2245 -0.1017
  116OSM   H18F12234   4.573   2.236   9.033 -0.5308  1.0590 -2.0410
  116OSM   H18G12235   4.580   2.156   8.872  0.0639 -1.5401 -0.1146
  116OSM   H18H12236   4.587   2.048   9.014  1.1023  0.1525 -0.6951
  117OSM      N12237   1.487   4.021  10.947  0.1509 -0.7881  0.6924
  117OSM    C1512238   1.599   3.939  10.882  0.0710 -0.1208 -0.2028
  117OSM   H15A12239   1.668   3.909  10.960  0.5445  2.5444  0.5132
  117OSM   H15B12240   1.655   4.009  10.823 -0.1443 -0.5610 -0.9342
  117OSM   H15C12241   1.550   3.859  10.829  2.5338 -2.4482  0.8314
  117OSM    C1412242   1.378   4.047  10.847 -0.4945  0.2406  0.1099
  117OSM   H14A12243   1.411   4.109  10.765 -2.4995  1.9723  0.5170
  117OSM   H14B12244   1.299   4.092  10.904 -0.5539 -1.1684  1.1957
  117OSM   H14C12245   1.340   3.953  10.808  0.1870  0.4230 -1.0563
  117OSM    C1312246   1.425   3.936  11.052 -0.0956  0.1677  0.5201
  117OSM   H13A12247   1.337   3.980  11.098 -0.8553  0.3080 -1.0271
  117OSM   H13B12248   1.488   3.910  11.136 -2.3861 -2.5509  1.5646
  117OSM   H13C12249   1.400   3.838  11.013 -0.3630  0.7878 -0.9270
  117OSM    C1212250   1.536   4.150  11.006 -0.7914  0.0582 -0.3249
  117OSM   H12A12251   1.598   4.135  11.093 -1.6838  1.1553  0.5337
  117OSM   H12B12252   1.458   4.215  11.042  1.3168  3.3822 -1.3271
  117OSM    C1112253   1.618   4.241  10.911  1.0591 -0.2061  0.1237
  117OSM   H11A12254   1.624   4.342  10.956  0.2443  0.5506 -1.4326
  117OSM   H11B12255   1.560   4.242  10.817  2.6426 -0.7972 -0.8917
  117OSM      P12256   1.879   4.236  10.968 -0.3278  0.0030  0.5435
  117OSM    O1312257   1.847   4.239  11.111  0.0536  0.1261 -0.5603
  117OSM    O1412258   1.980   4.142  10.916  0.2826 -0.8714  0.2712
  117OSM    O1112259   1.920   4.379  10.923 -0.3976  0.4497 -0.0628
  117OSM    O1212260   1.756   4.197  10.883  0.2172  0.0587 -0.1249
  117OSM    C1S12261   2.000   4.411  10.811  0.2023 -0.0457  0.4847
  117OSM    H1S12262   2.046   4.326  10.757 -0.1685  0.9571 -1.5241
  117OSM    H1T12263   2.085   4.477  10.839  0.2844  0.2650 -0.4426
  117OSM     NF12264   1.980   4.480  10.577 -0.6631  0.9932 -0.6686
  117OSM    HNF12265   2.023   4.569  10.565  3.9834 -0.8108  0.1031
  117OSM    C2S12266   1.905   4.473  10.699 -0.8405  0.2307 -0.5120
  117OSM    H2S12267   1.828   4.394  10.682 -1.6303  0.5247  1.4166
  117OSM    C3S12268   1.845   4.608  10.751 -0.2047  0.0257 -0.1798
  117OSM    H3S12269   1.918   4.680  10.794 -0.2110 -1.3683  2.3712
  117OSM     O312270   1.761   4.587  10.866 -0.1830 -0.4462  0.2183
  117OSM    HO312271   1.801   4.509  10.904  1.8427 -1.4492 -3.5344
  117OSM    C4S12272   1.776   4.675  10.637 -0.0996  0.0183  0.0840
  117OSM    H4S12273   1.830   4.753  10.582  1.5808  0.9705  2.9145
  117OSM    C5S12274   1.643   4.655  10.599 -0.4743 -0.1046 -0.2592
  117OSM    H5S12275   1.581   4.589  10.660 -0.4982  0.1594  0.0052
  117OSM    C6S12276   1.577   4.721  10.490  0.1506 -0.9633  0.7713
  117OSM    H6S12277   1.640   4.789  10.427 -2.1384  0.3439 -0.2494
  117OSM    H6T12278   1.504   4.796  10.529  0.7690  0.8776 -1.3578
  117OSM    C7S12279   1.503   4.635  10.390  0.9188 -0.3058  0.0563
  117OSM    H7S12280   1.417   4.595  10.448  0.1292 -0.3747 -1.1492
  117OSM    H7T12281   1.558   4.541  10.368 -0.2463 -1.6578  2.4311
  117OSM    C8S12282   1.455   4.705  10.264  0.0560 -0.0393  0.7612
  117OSM    H8S12283   1.403   4.799  10.293 -1.7873  0.4664 -3.4615
  117OSM    H8T12284   1.383   4.630  10.225  0.0608  0.5614 -0.4772
  117OSM    C9S12285   1.572   4.742  10.161 -0.6381  0.6977 -0.3318
  117OSM    H9S12286   1.637   4.652  10.157  1.6531  1.8946  3.6793
  117OSM    H9T12287   1.636   4.815  10.215 -1.8623  0.7039  1.1917
  117OSM   C10S12288   1.527   4.776  10.023  0.1404  0.6597  0.5753
  117OSM   H10S12289   1.467   4.870  10.018 -1.0379 -0.1392 -0.8297
  117OSM   H10T12290   1.451   4.701   9.994  0.0623  2.0485 -3.2867
  117OSM   C11S12291   1.634   4.777   9.911 -0.0439 -0.2995  0.8396
  117OSM   H11S12292   1.697   4.688   9.887 -0.3737  0.2287 -2.5878
  117OSM   H11T12293   1.704   4.861   9.929 -0.0811 -0.3168  1.0677
  117OSM   C12S12294   1.578   4.815   9.781  0.3431  0.2399  0.1011
  117OSM   H12S12295   1.508   4.901   9.791 -0.9831 -0.5971 -1.4553
  117OSM   H12T12296   1.504   4.742   9.743 -0.5330  1.5842 -0.8886
  117OSM   C13S12297   1.675   4.845   9.672  0.0180  0.1025  0.6470
  117OSM   H13S12298   1.710   4.749   9.628  2.3366  1.1647 -0.0410
  117OSM   H13T12299   1.757   4.912   9.707  0.1992 -0.6203  1.6491
  117OSM   C14S12300   1.606   4.928   9.562 -0.1239 -0.6700  0.6666
  117OSM   H14S12301   1.573   5.029   9.593  2.8479  0.3532  0.8041
  117OSM   H14T12302   1.517   4.874   9.523 -1.8984  2.6289 -0.1823
  117OSM   C15S12303   1.688   4.950   9.434  0.8435  0.1478  0.1208
  117OSM   H15S12304   1.788   4.992   9.460  0.4938  0.1398  1.5682
  117OSM   H15T12305   1.633   5.026   9.375 -1.5643 -3.6088 -3.0281
  117OSM   C16S12306   1.709   4.821   9.346 -0.0607  0.4532 -0.0294
  117OSM   H16S12307   1.619   4.758   9.363  1.0619 -0.3692  3.8844
  117OSM   H16T12308   1.792   4.767   9.397 -0.4524  0.3850  0.5418
  117OSM   C17S12309   1.720   4.854   9.196 -0.3900 -0.3933 -0.4168
  117OSM   H17S12310   1.798   4.933   9.197  1.0873 -1.6089  3.5064
  117OSM   H17T12311   1.617   4.888   9.176 -0.8084 -0.1946  1.7963
  117OSM   C18S12312   1.760   4.742   9.101  0.7382  0.4385 -0.4296
  117OSM   H18S12313   1.670   4.679   9.089  1.0946 -0.0540 -0.5718
  117OSM   H18T12314   1.843   4.678   9.140  0.1572  1.0857  2.0664
  117OSM   H18U12315   1.794   4.791   9.007 -1.4361 -0.1549 -1.5699
  117OSM    C1F12316   2.037   4.371  10.513 -1.1006  0.4657  0.4997
  117OSM     OF12317   1.991   4.257  10.536 -0.0904 -0.2562 -0.5903
  117OSM    C2F12318   2.143   4.390  10.411  0.4749 -0.2580 -0.0693
  117OSM    H2F12319   2.214   4.464  10.454 -0.1362  0.2704  0.0509
  117OSM    H2G12320   2.100   4.454  10.331 -0.0016 -0.5216 -0.0271
  117OSM    C3F12321   2.216   4.263  10.366  0.5694 -0.5977 -0.1762
  117OSM    H3F12322   2.141   4.185  10.341  1.4959 -0.3873 -4.4751
  117OSM    H3G12323   2.285   4.220  10.442 -0.1139  0.4882  1.1028
  117OSM    C4F12324   2.301   4.290  10.244  0.3429 -0.0742 -0.7226
  117OSM    H4F12325   2.396   4.232  10.249  0.5756  0.3876  3.0182
  117OSM    H4G12326   2.340   4.393  10.256  0.4638 -0.1862 -0.1652
  117OSM    C5F12327   2.215   4.279  10.117  0.4685 -0.5823  0.7671
  117OSM    H5F12328   2.141   4.363  10.119  0.6033 -0.4506  0.3474
  117OSM    H5G12329   2.157   4.185  10.108 -0.0726 -0.0851 -2.2672
  117OSM    C6F12330   2.302   4.294   9.985 -0.3550  0.1475 -0.0677
  117OSM    H6F12331   2.399   4.241   9.998 -0.3197  0.4151  0.8517
  117OSM    H6G12332   2.326   4.402   9.969  1.0972 -0.6220 -4.6953
  117OSM    C7F12333   2.245   4.241   9.853  0.4293  0.4257 -0.4755
  117OSM    H7F12334   2.173   4.312   9.806  0.5329  1.4907  0.9475
  117OSM    H7G12335   2.196   4.148   9.889 -1.7828  1.1295 -1.4820
  117OSM    C8F12336   2.338   4.203   9.745 -0.2346  0.7439  0.1116
  117OSM    H8F12337   2.281   4.145   9.669  1.9429 -2.1686  0.5532
  117OSM    H8G12338   2.415   4.129   9.777 -0.8226  0.1275  0.1364
  117OSM    C9F12339   2.406   4.327   9.696  0.5610  0.2306 -0.1054
  117OSM    H9F12340   2.488   4.363   9.760 -0.6655  1.4672  0.8320
  117OSM   C10F12341   2.372   4.387   9.578 -0.1465  0.4798  0.2288
  117OSM   H10F12342   2.437   4.469   9.545 -0.9363  1.3021  0.6537
  117OSM   C11F12343   2.258   4.353   9.484 -0.0651 -0.9335  0.1159
  117OSM   H11F12344   2.197   4.439   9.449  1.6115 -0.3680 -1.6185
  117OSM   H11G12345   2.186   4.280   9.526  0.7656 -0.9243  1.6204
  117OSM   C12F12346   2.316   4.288   9.358 -0.3225  0.6041  0.3391
  117OSM   H12F12347   2.241   4.223   9.309 -0.3936  0.9226  0.0205
  117OSM   H12G12348   2.415   4.239   9.370  0.6797  2.0042 -1.6545
  117OSM   C13F12349   2.339   4.395   9.247 -0.1571  0.5939  0.4139
  117OSM   H13F12350   2.420   4.468   9.267 -0.3576  0.9232  0.0419
  117OSM   H13G12351   2.248   4.456   9.230 -0.9270 -0.3856  0.8903
  117OSM   C14F12352   2.371   4.322   9.114  0.5506 -0.9089  0.0500
  117OSM   H14F12353   2.280   4.269   9.079 -0.1400 -0.6590  1.3875
  117OSM   H14G12354   2.435   4.232   9.127 -2.9725 -3.3757  1.7673
  117OSM   C15F12355   2.415   4.424   9.002 -0.7142 -0.1223  0.4140
  117OSM   H15F12356   2.501   4.485   9.039  0.6761 -2.2152  0.8030
  117OSM   H15G12357   2.337   4.499   8.977  0.5629  1.5162  1.1423
  117OSM   C16F12358   2.465   4.354   8.877  0.4002 -0.2128  0.0046
  117OSM   H16F12359   2.554   4.291   8.900 -1.2803 -1.6012  3.4561
  117OSM   H16G12360   2.494   4.436   8.808  1.0271  0.8495  1.4731
  117OSM   C17F12361   2.350   4.256   8.824  0.8276  0.1760  0.1537
  117OSM   H17F12362   2.249   4.301   8.816  0.3705 -0.6709  0.9524
  117OSM   H17G12363   2.329   4.174   8.896 -1.8697  1.0704  0.4688
  117OSM   C18F12364   2.396   4.193   8.696 -0.4161 -0.4889  0.6150
  117OSM   H18F12365   2.377   4.252   8.604 -1.2839 -0.8669  0.5378
  117OSM   H18G12366   2.350   4.092   8.687  1.0354 -1.1964  0.8753
  117OSM   H18H12367   2.505   4.175   8.704 -0.5995 -1.5647  0.8002
  118OSM      N12368   0.455   5.711  10.772 -0.5589 -0.1288  0.1006
  118OSM    C1512369   0.469   5.597  10.868 -0.4029 -0.3946  0.2772
  118OSM   H15A12370   0.432   5.505  10.824  1.5753  0.6636 -4.1119
  118OSM   H15B12371   0.403   5.625  10.949 -0.8796  0.1812 -0.2945
  118OSM   H15C12372   0.572   5.595  10.901  0.2267  1.6012 -1.3686
  118OSM    C1412373   0.529   5.830  10.828 -0.0246  0.4042 -0.6231
  118OSM   H14A12374   0.533   5.912  10.758  2.8850 -0.1147 -1.1801
  118OSM   H14B12375   0.632   5.814  10.857  0.0687  1.9268 -0.0273
  118OSM   H14C12376   0.474   5.870  10.912 -0.5815  2.7416 -1.9870
  118OSM    C1312377   0.515   5.668  10.639 -0.5234  0.3070 -0.1692
  118OSM   H13A12378   0.619   5.640  10.649 -0.5147 -0.3419 -1.7538
  118OSM   H13B12379   0.526   5.750  10.570  1.4009  1.6957  1.6639
  118OSM   H13C12380   0.455   5.590  10.593  1.1699 -0.5402 -1.0376
  118OSM    C1212381   0.307   5.742  10.754  0.0895  0.2534 -0.4667
  118OSM   H12A12382   0.265   5.656  10.703  2.5058 -0.7085 -0.9505
  118OSM   H12B12383   0.300   5.822  10.682 -0.1313 -0.6382 -1.4695
  118OSM    C1112384   0.217   5.780  10.876  0.5522  0.3189 -0.8354
  118OSM   H11A12385   0.206   5.686  10.935 -0.5513  0.3200 -1.0114
  118OSM   H11B12386   0.120   5.803  10.826  0.9923  1.3981 -1.2082
  118OSM      P12387   0.176   6.008  10.984 -0.0141  0.0139  0.0142
  118OSM    O1312388   0.044   5.965  11.037 -0.0132  0.2689  0.2471
  118OSM    O1412389   0.251   6.107  11.061  0.2401 -0.0530  0.0133
  118OSM    O1112390   0.144   6.077  10.850 -0.2681 -0.0185  0.5085
  118OSM    O1212391   0.271   5.885  10.961 -0.3178 -0.0257  0.3654
  118OSM    C1S12392   0.237   6.085  10.747 -0.4805 -0.0336  0.3649
  118OSM    H1S12393   0.310   6.001  10.739 -1.1672 -0.4778 -1.6987
  118OSM    H1T12394   0.297   6.177  10.767  0.0299 -0.7863  2.6234
  118OSM     NF12395   0.263   6.130  10.506  0.3057  0.6197 -0.3213
  118OSM    HNF12396   0.299   6.223  10.509  0.4681  0.5573  2.1542
  118OSM    C2S12397   0.166   6.100  10.607 -0.0549 -0.1969 -1.2339
  118OSM    H2S12398   0.117   6.003  10.583 -0.0405 -0.4887 -0.1642
  118OSM    C3S12399   0.051   6.211  10.612  0.1878  0.0772 -0.2607
  118OSM    H3S12400   0.086   6.312  10.639 -0.5906  0.2691  0.0748
  118OSM     O312401  -0.059   6.186  10.706 -0.3322 -0.9273  0.2494
  118OSM    HO312402  -0.034   6.124  10.775 -1.2829 -2.3260 -0.6162
  118OSM    C4S12403  -0.011   6.229  10.481 -0.3445  0.3324 -0.1694
  118OSM    H4S12404   0.040   6.307  10.423  0.2779  0.9675  1.1789
  118OSM    C5S12405  -0.103   6.156  10.420 -0.0289  0.6196 -0.2002
  118OSM    H5S12406  -0.149   6.072  10.472  3.4809 -0.9825  0.5988
  118OSM    C6S12407  -0.149   6.169  10.275  0.2045 -0.1016 -0.4505
  118OSM    H6S12408  -0.255   6.202  10.270 -0.0522 -0.7549  0.3636
  118OSM    H6T12409  -0.135   6.068  10.230  2.6896  0.1042 -0.3128
  118OSM    C7S12410  -0.086   6.278  10.182  0.0318 -0.1375  0.4836
  118OSM    H7S12411   0.021   6.253  10.166 -0.7170 -1.7820 -2.5472
  118OSM    H7T12412  -0.092   6.382  10.220  3.0444  1.0914 -1.9688
  118OSM    C8S12413  -0.145   6.282  10.044 -0.1167 -0.0117  0.2284
  118OSM    H8S12414  -0.246   6.325  10.059  0.8470  2.1818  0.9101
  118OSM    H8T12415  -0.157   6.179  10.004 -0.5815  0.3308 -0.5468
  118OSM    C9S12416  -0.060   6.366   9.943  0.2958 -0.5356 -0.8252
  118OSM    H9S12417   0.036   6.311   9.942  0.8336  0.2100  1.7333
  118OSM    H9T12418  -0.040   6.466   9.987  0.8423 -0.7898 -0.4890
  118OSM   C10S12419  -0.128   6.384   9.806  0.2814 -0.3079 -0.8468
  118OSM   H10S12420  -0.081   6.464   9.745  2.8989 -1.0292  0.0780
  118OSM   H10T12421  -0.226   6.433   9.825  1.0362  0.7330  0.5915
  118OSM   C11S12422  -0.154   6.264   9.730 -1.0803 -0.0062 -0.7073
  118OSM   H11S12423  -0.228   6.200   9.783 -1.6181  0.7869 -0.4812
  118OSM   H11T12424  -0.054   6.216   9.734 -0.4767  1.2938  0.4464
  118OSM   C12S12425  -0.192   6.306   9.584  0.0312 -0.4288  0.6226
  118OSM   H12S12426  -0.121   6.383   9.547 -0.2921  0.7228  2.3136
  118OSM   H12T12427  -0.298   6.338   9.580 -0.4131 -1.8998 -2.1238
  118OSM   C13S12428  -0.180   6.199   9.473  0.3981 -0.5732  0.3410
  118OSM   H13S12429  -0.262   6.124   9.480 -2.2362  2.0135 -0.5890
  118OSM   H13T12430  -0.083   6.148   9.492  1.1551 -0.3117 -2.4335
  118OSM   C14S12431  -0.200   6.262   9.329  0.8829 -0.1666 -0.2056
  118OSM   H14S12432  -0.107   6.313   9.296  1.1199 -0.2184  0.3810
  118OSM   H14T12433  -0.281   6.335   9.350  0.1663 -0.4673 -1.7098
  118OSM   C15S12434  -0.248   6.163   9.226 -0.3036  0.1246 -0.0921
  118OSM   H15S12435  -0.332   6.111   9.276 -1.0942  0.8782 -0.6115
  118OSM   H15T12436  -0.164   6.090   9.220  0.7170  1.1075  1.5727
  118OSM   C16S12437  -0.282   6.234   9.098 -0.3193  0.2308 -0.2707
  118OSM   H16S12438  -0.196   6.242   9.027  0.3113 -1.0798  0.3144
  118OSM   H16T12439  -0.310   6.341   9.110 -0.9876  0.3056 -2.1291
  118OSM   C17S12440  -0.397   6.169   9.021  0.5360 -0.0358  0.5587
  118OSM   H17S12441  -0.498   6.176   9.066  0.4819 -1.2633  0.6628
  118OSM   H17T12442  -0.370   6.061   9.012  0.8426  0.0305  0.6744
  118OSM   C18S12443  -0.405   6.226   8.879  0.5761 -0.2739  0.0679
  118OSM   H18S12444  -0.485   6.168   8.829  2.8991 -1.0490 -3.0225
  118OSM   H18T12445  -0.312   6.203   8.823  0.9061  3.5662 -1.2649
  118OSM   H18U12446  -0.440   6.332   8.874 -1.7188 -1.0224 -0.5710
  118OSM    C1F12447   0.344   6.033  10.464  0.3063 -0.6867 -0.4512
  118OSM     OF12448   0.335   5.920  10.515  0.2227 -0.2126  0.6439
  118OSM    C2F12449   0.448   6.073  10.360 -0.2431 -0.0752  0.3336
  118OSM    H2F12450   0.541   6.092  10.419  0.5959  1.9958 -1.5080
  118OSM    H2G12451   0.435   6.175  10.316  0.0703 -0.7325 -1.3877
  118OSM    C3F12452   0.475   5.965  10.256  0.6019  0.3402  0.8136
  118OSM    H3F12453   0.390   5.948  10.186 -1.0418  1.2123  2.5150
  118OSM    H3G12454   0.493   5.862  10.293 -2.5011 -1.1811 -1.3888
  118OSM    C4F12455   0.600   5.990  10.172 -0.1157 -0.0459 -0.1914
  118OSM    H4F12456   0.680   6.035  10.235 -0.4420  1.2406 -0.6605
  118OSM    H4G12457   0.583   6.070  10.096  0.3648 -1.0761 -1.4150
  118OSM    C5F12458   0.653   5.870  10.092 -0.3086  0.1254 -0.3560
  118OSM    H5F12459   0.572   5.805  10.054  1.7931 -2.4933 -0.7203
  118OSM    H5G12460   0.709   5.813  10.170 -0.7524 -1.8037 -1.3938
  118OSM    C6F12461   0.742   5.905   9.979  0.0071 -0.8078  0.4107
  118OSM    H6F12462   0.769   5.808   9.933  1.6187 -0.3250  0.2925
  118OSM    H6G12463   0.836   5.954  10.012  1.2100 -3.0475  0.4933
  118OSM    C7F12464   0.680   5.985   9.866 -0.0653 -0.6025 -0.6180
  118OSM    H7F12465   0.642   6.084   9.899  0.8827  0.0275 -1.3503
  118OSM    H7G12466   0.582   5.939   9.844 -0.0494 -0.9591  0.0385
  118OSM    C8F12467   0.775   6.017   9.748 -0.0776 -0.1643 -0.1927
  118OSM    H8F12468   0.826   5.926   9.709  2.4481  0.3002  1.7658
  118OSM    H8G12469   0.860   6.078   9.784 -0.6220 -0.6533  2.0585
  118OSM    C9F12470   0.714   6.102   9.646 -0.3697 -0.7011  0.3735
  118OSM    H9F12471   0.643   6.171   9.694  0.4166 -0.5931  1.4277
  118OSM   C10F12472   0.740   6.103   9.515  0.1338 -0.0144  0.1885
  118OSM   H10F12473   0.693   6.167   9.439 -0.5800  0.0009  0.6345
  118OSM   C11F12474   0.846   6.010   9.443  0.6622 -0.3048 -0.2157
  118OSM   H11F12475   0.825   5.904   9.470  3.0133 -0.6824  0.3781
  118OSM   H11G12476   0.950   6.028   9.478  1.5174 -0.9492 -2.2886
  118OSM   C12F12477   0.851   6.033   9.293  0.2011  0.4762  0.1562
  118OSM   H12F12478   0.871   6.137   9.259 -0.0628  0.7320  0.7667
  118OSM   H12G12479   0.756   5.989   9.258 -0.3532  1.3002  0.5720
  118OSM   C13F12480   0.962   5.952   9.224 -0.3645  0.9343 -0.5353
  118OSM   H13F12481   0.940   5.846   9.249  0.9442  0.0793 -2.7469
  118OSM   H13G12482   1.059   5.983   9.269  0.8500  0.2964 -2.6129
  118OSM   C14F12483   0.970   5.972   9.074 -0.2470 -0.0303 -0.1420
  118OSM   H14F12484   0.993   6.078   9.050 -0.5436  0.0677 -0.0035
  118OSM   H14G12485   0.873   5.959   9.023 -1.0646  3.1323  0.3714
  118OSM   C15F12486   1.066   5.879   9.004 -1.2146  0.7183  0.0044
  118OSM   H15F12487   1.031   5.774   9.017  0.7755  0.1523  1.1794
  118OSM   H15G12488   1.168   5.889   9.046 -1.4555  1.1616  0.4933
  118OSM   C16F12489   1.070   5.914   8.855 -0.2115 -0.2063 -0.5298
  118OSM   H16F12490   1.168   5.878   8.817 -0.1090  0.6715 -1.1058
  118OSM   H16G12491   1.067   6.025   8.851 -0.5457  0.0676  3.2345
  118OSM   C17F12492   0.953   5.874   8.768  0.2928 -0.3350  0.4015
  118OSM   H17F12493   0.865   5.931   8.806  1.9708  2.4532  0.3184
  118OSM   H17G12494   0.933   5.765   8.765  0.7922 -0.4078 -2.1263
  118OSM   C18F12495   0.958   5.924   8.620  0.3722  0.5480  0.0630
  118OSM   H18F12496   0.859   5.911   8.572 -0.9588  2.4018  2.1020
  118OSM   H18G12497   1.031   5.874   8.553 -0.5665  0.3174 -0.8060
  118OSM   H18H12498   0.977   6.034   8.617 -0.9068  0.7908  0.3058
  119OSM      N12499   2.722   4.438  11.222 -0.6072 -0.5600 -0.1103
  119OSM    C1512500   2.623   4.335  11.198  1.0411 -0.1537 -0.6166
  119OSM   H15A12501   2.642   4.239  11.243  0.8428 -0.0005 -0.2030
  119OSM   H15B12502   2.603   4.326  11.092  1.4162 -0.9633 -0.6273
  119OSM   H15C12503   2.531   4.383  11.228  2.0787  2.0433 -0.7723
  119OSM    C1412504   2.684   4.509  11.348  0.0802  0.0266  0.1254
  119OSM   H14A12505   2.678   4.433  11.425  1.0639 -0.3945 -0.1975
  119OSM   H14B12506   2.587   4.554  11.334 -0.0548 -0.7975 -1.9874
  119OSM   H14C12507   2.746   4.593  11.375  0.6868 -0.8255  1.5095
  119OSM    C1312508   2.861   4.379  11.228  0.0171 -0.5722 -0.1235
  119OSM   H13A12509   2.892   4.317  11.146  1.9262  2.5942 -2.0112
  119OSM   H13B12510   2.861   4.320  11.318 -2.2596 -1.2666 -0.5022
  119OSM   H13C12511   2.935   4.455  11.247  0.0761 -0.1218 -1.9564
  119OSM    C1212512   2.731   4.538  11.105  0.5180  0.1052 -0.8742
  119OSM   H12A12513   2.811   4.610  11.116 -1.2683  2.1876 -0.8912
  119OSM   H12B12514   2.644   4.602  11.112  0.1133 -0.5428  0.2766
  119OSM    C1112515   2.736   4.472  10.961  0.3618  0.2752  0.4250
  119OSM   H11A12516   2.832   4.416  10.955  0.8386  1.2158 -1.2301
  119OSM   H11B12517   2.742   4.554  10.886  0.0510 -0.2403 -0.1711
  119OSM      P12518   2.489   4.455  10.884 -0.1596  0.1648 -0.2315
  119OSM    O1312519   2.386   4.353  10.878 -0.0204  0.4280  0.2605
  119OSM    O1412520   2.469   4.572  10.968  0.4965  0.0952  0.4522
  119OSM    O1112521   2.521   4.497  10.738  0.4317 -0.2664  0.2131
  119OSM    O1212522   2.628   4.386  10.924 -0.0220 -0.0686 -0.2698
  119OSM    C1S12523   2.597   4.418  10.647 -0.3298  0.2075 -0.1868
  119OSM    H1S12524   2.584   4.308  10.655  2.5294 -0.5345 -3.3156
  119OSM    H1T12525   2.703   4.443  10.670 -0.7673  1.9600  0.0576
  119OSM     NF12526   2.668   4.394  10.412  0.2378 -0.7069  0.3411
  119OSM    HNF12527   2.740   4.449  10.369  1.6888 -2.3665  0.5243
  119OSM    C2S12528   2.569   4.452  10.500  0.0662  0.2587  0.8818
  119OSM    H2S12529   2.467   4.413  10.483  0.0444  0.3380  0.8301
  119OSM    C3S12530   2.539   4.615  10.477  0.6905 -0.4897  0.0851
  119OSM    H3S12531   2.629   4.670  10.514  0.4903  2.6322 -3.4377
  119OSM     O312532   2.432   4.663  10.546 -0.6700  0.0572 -0.0046
  119OSM    HO312533   2.427   4.597  10.616  1.0617  0.6222  0.7010
  119OSM    C4S12534   2.543   4.640  10.326  0.0473  0.0822  0.3440
  119OSM    H4S12535   2.645   4.648  10.285  0.3136 -1.3134  0.6704
  119OSM    C5S12536   2.440   4.660  10.243  0.1838 -0.9174 -0.6597
  119OSM    H5S12537   2.341   4.658  10.292  1.0360  1.6475  1.3817
  119OSM    C6S12538   2.456   4.689  10.095 -0.0884  0.5307  0.3066
  119OSM    H6S12539   2.382   4.765  10.062 -1.9133 -1.4352 -0.3271
  119OSM    H6T12540   2.431   4.605  10.027 -3.3895  1.1770  0.5849
  119OSM    C7S12541   2.589   4.753  10.054  0.3351  0.2081  0.1811
  119OSM    H7S12542   2.678   4.689  10.070 -0.6771 -1.5089 -0.6911
  119OSM    H7T12543   2.594   4.837  10.126 -0.6943  0.4011  0.0402
  119OSM    C8S12544   2.588   4.810   9.912  0.4733  0.2116 -0.0881
  119OSM    H8S12545   2.670   4.885   9.907  3.9578 -2.8858  3.2182
  119OSM    H8T12546   2.480   4.830   9.901  0.5080  1.6392  1.7435
  119OSM    C9S12547   2.627   4.721   9.789 -0.3807 -1.1094  0.9698
  119OSM    H9S12548   2.598   4.614   9.800 -0.5339 -0.9980  1.7252
  119OSM    H9T12549   2.737   4.708   9.773 -0.5988 -0.9155 -0.8174
  119OSM   C10S12550   2.579   4.767   9.653 -0.4516 -0.7140 -1.1231
  119OSM   H10S12551   2.593   4.878   9.653 -4.4514 -0.0287 -2.8592
  119OSM   H10T12552   2.470   4.750   9.648 -0.6137  0.3940 -1.7042
  119OSM   C11S12553   2.648   4.723   9.525  0.1792 -0.1672  0.5476
  119OSM   H11S12554   2.651   4.612   9.519 -2.7357 -0.2861 -3.8926
  119OSM   H11T12555   2.745   4.776   9.532  0.3242 -0.1668 -1.0441
  119OSM   C12S12556   2.577   4.759   9.394 -0.1546  0.0508 -0.0312
  119OSM   H12S12557   2.566   4.869   9.385 -1.3266  0.3904  3.7677
  119OSM   H12T12558   2.477   4.711   9.406  0.2941 -1.7308 -2.6322
  119OSM   C13S12559   2.657   4.705   9.276 -0.1274  0.6963  0.1290
  119OSM   H13S12560   2.590   4.695   9.187 -0.0063  0.4676  0.0608
  119OSM   H13T12561   2.697   4.604   9.302 -4.6069 -0.9449  1.5915
  119OSM   C14S12562   2.764   4.805   9.225  0.0257 -0.0860  0.3577
  119OSM   H14S12563   2.834   4.807   9.312  1.3088 -1.2986 -0.5912
  119OSM   H14T12564   2.711   4.898   9.195 -0.0022 -0.2096  0.0217
  119OSM   C15S12565   2.841   4.748   9.104 -0.1978 -0.1005  0.8323
  119OSM   H15S12566   2.774   4.734   9.016  1.9402  0.4325 -0.9890
  119OSM   H15T12567   2.890   4.650   9.122  2.8158  1.0844 -0.1262
  119OSM   C16S12568   2.971   4.827   9.071 -0.8036  0.0176 -0.1123
  119OSM   H16S12569   3.024   4.834   9.169  1.4128  0.5249 -1.2847
  119OSM   H16T12570   2.943   4.927   9.032 -3.5484 -0.3839  0.6720
  119OSM   C17S12571   3.068   4.759   8.980  0.2185  0.1536  0.2644
  119OSM   H17S12572   3.097   4.667   9.035  3.7065 -0.0936 -1.6939
  119OSM   H17T12573   3.161   4.818   8.969 -0.4701  1.4866  1.3677
  119OSM   C18S12574   3.016   4.704   8.842  0.4483 -0.4498 -0.5438
  119OSM   H18S12575   3.098   4.651   8.789 -0.9560 -1.7141 -1.5433
  119OSM   H18T12576   2.985   4.791   8.780  1.0379 -0.5499 -0.9882
  119OSM   H18U12577   2.924   4.645   8.862  1.6294 -2.0127  0.5942
  119OSM    C1F12578   2.673   4.261  10.404 -0.0129  0.0414  0.3673
  119OSM     OF12579   2.583   4.187  10.442 -0.0724  0.3124  0.1847
  119OSM    C2F12580   2.802   4.201  10.355 -0.4250 -0.3891 -0.5253
  119OSM    H2F12581   2.864   4.182  10.446  1.2994  3.2515 -0.7578
  119OSM    H2G12582   2.872   4.270  10.304  3.3492 -1.4163  2.7346
  119OSM    C3F12583   2.785   4.075  10.270  0.1439  0.6511 -0.6613
  119OSM    H3F12584   2.747   4.107  10.171 -2.3129  0.1279  0.0483
  119OSM    H3G12585   2.717   4.000  10.317  1.1889  1.8469  3.1274
  119OSM    C4F12586   2.928   4.010  10.263  0.3314 -0.6463  0.0294
  119OSM    H4F12587   2.983   4.011  10.359 -0.8370  0.6408  0.7398
  119OSM    H4G12588   2.986   4.071  10.191  0.0814  1.3917  1.4615
  119OSM    C5F12589   2.928   3.866  10.199  0.1625  0.9607 -0.7794
  119OSM    H5F12590   2.866   3.793  10.255  2.0637 -0.5557 -0.5300
  119OSM    H5G12591   3.031   3.824  10.200 -0.7071 -1.2856 -0.3588
  119OSM    C6F12592   2.899   3.866  10.048 -0.2105 -0.7024  0.3023
  119OSM    H6F12593   2.959   3.787   9.998 -0.0492 -1.0610  1.0554
  119OSM    H6G12594   2.911   3.969  10.009 -2.8395  0.2154  1.6375
  119OSM    C7F12595   2.751   3.835  10.015 -0.0402  0.0713 -0.5780
  119OSM    H7F12596   2.680   3.890  10.081 -2.0260 -1.6889 -1.1207
  119OSM    H7G12597   2.723   3.728  10.023  1.1010 -0.1387  1.4301
  119OSM    C8F12598   2.714   3.884   9.869 -0.2614 -0.4004 -0.7474
  119OSM    H8F12599   2.707   3.995   9.870  0.4917 -0.3100 -2.4689
  119OSM    H8G12600   2.611   3.846   9.854 -0.6464 -1.0589  2.7755
  119OSM    C9F12601   2.797   3.841   9.751 -0.0615  0.1735 -0.1495
  119OSM    H9F12602   2.871   3.760   9.762  0.2036  0.5180  0.6873
  119OSM   C10F12603   2.774   3.878   9.625 -0.2185  0.8636  1.0773
  119OSM   H10F12604   2.843   3.842   9.546  0.4734  2.5187  0.8872
  119OSM   C11F12605   2.675   3.977   9.575 -0.3106 -0.2299 -0.2433
  119OSM   H11F12606   2.723   4.076   9.564  1.4403 -1.1254 -1.0566
  119OSM   H11G12607   2.604   3.984   9.661 -0.3465 -0.8516 -0.2147
  119OSM   C12F12608   2.591   3.943   9.453  0.5075 -0.1972  0.6588
  119OSM   H12F12609   2.500   4.006   9.448  0.7534  0.1273  0.1992
  119OSM   H12G12610   2.555   3.838   9.451  3.0200 -1.1147 -1.7239
  119OSM   C13F12611   2.669   3.973   9.323  0.5566 -0.6555  0.5841
  119OSM   H13F12612   2.758   3.908   9.337  1.4037  0.8949  2.8263
  119OSM   H13G12613   2.702   4.078   9.336 -0.1195 -0.6072  2.1269
  119OSM   C14F12614   2.608   3.934   9.187  0.3580 -0.1263 -0.0550
  119OSM   H14F12615   2.502   3.969   9.187  0.9096  1.7028 -1.6953
  119OSM   H14G12616   2.600   3.823   9.175  1.7075 -0.2967  0.4838
  119OSM   C15F12617   2.672   3.997   9.069 -0.1686  1.1203  0.7279
  119OSM   H15F12618   2.772   3.952   9.054 -0.5017  0.6179 -0.0126
  119OSM   H15G12619   2.690   4.105   9.093  0.9596  1.3594 -1.0385
  119OSM   C16F12620   2.610   3.965   8.938 -0.2420  0.0615  0.9280
  119OSM   H16F12621   2.643   4.035   8.858 -0.0136  0.1233  1.0785
  119OSM   H16G12622   2.501   3.984   8.948 -1.0791 -0.9650 -3.6725
  119OSM   C17F12623   2.639   3.822   8.887 -0.5716 -0.5300  0.3976
  119OSM   H17F12624   2.646   3.746   8.967  0.2288 -2.7250 -1.6507
  119OSM   H17G12625   2.746   3.833   8.860 -0.1821  0.9167  2.2570
  119OSM   C18F12626   2.552   3.779   8.768 -0.4206  0.3127  0.7327
  119OSM   H18F12627   2.610   3.714   8.698 -2.6290 -0.8935 -0.0706
  119OSM   H18G12628   2.504   3.869   8.724  0.3999  0.2131 -0.4151
  119OSM   H18H12629   2.468   3.715   8.802 -1.6163  1.1782 -0.4854
  120OSM      N12630   1.985   2.530  10.709  0.6621 -0.4542  0.0558
  120OSM    C1512631   1.919   2.496  10.843 -0.3035 -0.4306 -0.0267
  120OSM   H15A12632   1.983   2.432  10.903  4.8336  2.6458 -1.5946
  120OSM   H15B12633   1.825   2.446  10.831  0.0191 -0.6135 -2.0550
  120OSM   H15C12634   1.899   2.585  10.901 -3.2631  0.2832 -1.9538
  120OSM    C1412635   1.874   2.601  10.632 -0.0478 -0.2843  0.2801
  120OSM   H14A12636   1.840   2.691  10.682 -0.0958  0.1378 -0.4884
  120OSM   H14B12637   1.788   2.536  10.634 -0.0145 -0.3160  0.7103
  120OSM   H14C12638   1.919   2.610  10.534 -0.3339 -0.6728  0.1092
  120OSM    C1312639   2.105   2.614  10.729  0.2869 -0.0755 -0.1387
  120OSM   H13A12640   2.084   2.704  10.784  2.3824  0.1883  0.3133
  120OSM   H13B12641   2.156   2.634  10.636 -1.8882  0.5639 -1.2602
  120OSM   H13C12642   2.172   2.560  10.794 -0.0840  0.1671  0.4452
  120OSM    C1212643   2.019   2.400  10.644 -0.2359 -0.0623 -0.8379
  120OSM   H12A12644   1.929   2.353  10.608 -0.1793  0.3539 -1.5315
  120OSM   H12B12645   2.071   2.328  10.706  0.0028  0.4789 -0.4029
  120OSM    C1112646   2.105   2.403  10.516 -0.1079 -0.3282  0.2173
  120OSM   H11A12647   2.078   2.488  10.450 -0.0527 -0.3647  0.1486
  120OSM   H11B12648   2.087   2.303  10.471  0.6760 -0.3106 -0.1474
  120OSM      P12649   2.348   2.475  10.460 -0.2705  0.1653  0.1553
  120OSM    O1312650   2.330   2.618  10.491 -0.1532 -0.1122 -0.6115
  120OSM    O1412651   2.477   2.406  10.471 -0.6073 -0.5865  0.1371
  120OSM    O1112652   2.300   2.455  10.311  0.0499  0.5761  0.0131
  120OSM    O1212653   2.246   2.407  10.559  0.0516 -0.0347  0.1342
  120OSM    C1S12654   2.311   2.325  10.259  0.1320  0.2953  0.2194
  120OSM    H1S12655   2.214   2.279  10.288  0.0535  0.1155 -0.3265
  120OSM    H1T12656   2.392   2.264  10.305 -0.8084  0.5618  2.3456
  120OSM     NF12657   2.324   2.197  10.047  0.6212  0.0103 -0.2069
  120OSM    HNF12658   2.403   2.138  10.056  0.2826 -0.3543  0.4340
  120OSM    C2S12659   2.318   2.332  10.102 -0.0381 -1.1172  0.0404
  120OSM    H2S12660   2.228   2.384  10.061  1.2356  1.2096  0.0063
  120OSM    C3S12661   2.442   2.419  10.058  0.1524 -0.2297 -0.4054
  120OSM    H3S12662   2.531   2.378  10.110 -0.3555 -3.6662 -1.9956
  120OSM     O312663   2.433   2.562  10.083 -0.2618  0.1497  0.4801
  120OSM    HO312664   2.376   2.571  10.160 -0.7772 -1.0035  0.2478
  120OSM    C4S12665   2.469   2.403   9.913  0.0289 -0.3151 -0.5145
  120OSM    H4S12666   2.397   2.449   9.844 -0.8543  1.1778  1.2938
  120OSM    C5S12667   2.583   2.355   9.869  0.7009  0.5228  0.2299
  120OSM    H5S12668   2.662   2.337   9.944 -0.5561  0.7443  1.6600
  120OSM    C6S12669   2.622   2.343   9.726 -0.5747  0.5681 -0.0815
  120OSM    H6S12670   2.590   2.238   9.710 -0.8100  0.6228  0.0332
  120OSM    H6T12671   2.732   2.353   9.712 -0.6259  2.4289  0.4949
  120OSM    C7S12672   2.544   2.430   9.622  0.6474  0.2714 -0.4762
  120OSM    H7S12673   2.528   2.533   9.663 -1.6704  0.5748 -1.9634
  120OSM    H7T12674   2.443   2.388   9.604  0.1876 -0.0187  2.3002
  120OSM    C8S12675   2.625   2.439   9.492  0.1254  0.0299 -0.2078
  120OSM    H8S12676   2.688   2.348   9.483  0.1444  0.0031  0.2021
  120OSM    H8T12677   2.701   2.520   9.500 -0.5056  0.5254  1.1115
  120OSM    C9S12678   2.550   2.456   9.365 -0.9515 -0.3749  0.2229
  120OSM    H9S12679   2.499   2.554   9.373  0.3108  0.4018 -0.7905
  120OSM    H9T12680   2.474   2.376   9.358 -2.5345  1.1433 -0.6000
  120OSM   C10S12681   2.628   2.428   9.232 -0.3323  0.3593 -0.4422
  120OSM   H10S12682   2.704   2.348   9.250  0.8580  1.2095 -1.4342
  120OSM   H10T12683   2.694   2.515   9.211 -2.1525  1.8877 -0.0427
  120OSM   C11S12684   2.552   2.389   9.104 -0.0140 -0.8920  0.8208
  120OSM   H11S12685   2.490   2.303   9.135 -0.4964 -0.6238  0.6221
  120OSM   H11T12686   2.617   2.348   9.024 -3.0729 -2.2003 -1.1729
  120OSM   C12S12687   2.451   2.500   9.054  0.7805 -0.1230  0.2533
  120OSM   H12S12688   2.513   2.583   9.013 -0.3620 -0.0152 -1.3433
  120OSM   H12T12689   2.394   2.539   9.141  0.2086 -0.6457  0.1203
  120OSM   C13S12690   2.342   2.444   8.956  0.4544 -0.0723 -0.2546
  120OSM   H13S12691   2.287   2.377   9.025  0.6220 -0.7084 -0.7347
  120OSM   H13T12692   2.388   2.369   8.888  0.4808 -1.5720  1.3529
  120OSM   C14S12693   2.239   2.546   8.903  0.1793 -0.7236  0.3665
  120OSM   H14S12694   2.289   2.596   8.817 -0.6812  0.1416  0.3499
  120OSM   H14T12695   2.223   2.628   8.976  1.2095  0.1717 -0.3711
  120OSM   C15S12696   2.107   2.487   8.854 -0.2818 -0.1289  0.1864
  120OSM   H15S12697   2.043   2.568   8.814 -0.4381 -1.0760 -1.6195
  120OSM   H15T12698   2.054   2.441   8.940  0.0528 -1.3457 -0.2386
  120OSM   C16S12699   2.126   2.373   8.754 -0.0652  0.2686 -0.0595
  120OSM   H16S12700   2.173   2.297   8.820  2.4767  1.5782 -0.2533
  120OSM   H16T12701   2.202   2.403   8.678 -0.5028  0.4559 -0.4292
  120OSM   C17S12702   1.992   2.322   8.701 -0.1087  0.0071  0.3590
  120OSM   H17S12703   1.928   2.302   8.789  0.4452 -0.9006  0.5652
  120OSM   H17T12704   2.021   2.225   8.656 -1.2081 -0.1495 -0.0396
  120OSM   C18S12705   1.926   2.413   8.596 -0.2624  0.4496 -0.3209
  120OSM   H18S12706   1.950   2.520   8.617 -0.7996  0.6958 -0.9118
  120OSM   H18T12707   1.815   2.404   8.602 -0.2055 -0.8821 -0.8489
  120OSM   H18U12708   1.969   2.387   8.497 -0.3641  0.8071 -0.4626
  120OSM    C1F12709   2.204   2.132  10.044 -0.1441  0.0646  0.0046
  120OSM     OF12710   2.097   2.191  10.043 -0.0959 -0.5557  0.0861
  120OSM    C2F12711   2.213   1.987  10.054 -0.1121  0.7435  0.6048
  120OSM    H2F12712   2.172   1.963  10.155 -0.1977  0.8492  0.5960
  120OSM    H2G12713   2.318   1.949  10.053  0.0910  1.3018 -0.7075
  120OSM    C3F12714   2.123   1.926   9.956 -0.4592 -0.3676  0.4685
  120OSM    H3F12715   2.025   1.972   9.934  0.7475  1.6816 -0.9227
  120OSM    H3G12716   2.091   1.823   9.986  0.8882 -1.0026 -0.2004
  120OSM    C4F12717   2.194   1.913   9.818  0.4150  0.7513 -0.8148
  120OSM    H4F12718   2.296   1.957   9.815  0.1735  1.2788 -1.5759
  120OSM    H4G12719   2.135   1.985   9.758 -2.1010  0.6243  1.3367
  120OSM    C5F12720   2.184   1.782   9.746 -0.1824 -0.1740  0.1408
  120OSM    H5F12721   2.250   1.706   9.792  1.9920  0.7757 -1.2278
  120OSM    H5G12722   2.231   1.799   9.646 -0.2867 -0.7439 -0.0092
  120OSM    C6F12723   2.046   1.719   9.719 -0.2748  0.0772 -0.4553
  120OSM    H6F12724   1.958   1.782   9.695 -0.8186 -1.6373 -3.3757
  120OSM    H6G12725   2.008   1.666   9.809 -1.9412  2.3824  0.2965
  120OSM    C7F12726   2.062   1.610   9.607 -0.4873 -0.0256 -0.1387
  120OSM    H7F12727   2.091   1.506   9.636  1.0313  1.1793  3.0955
  120OSM    H7G12728   2.147   1.649   9.547 -1.1411 -0.5855 -1.4743
  120OSM    C8F12729   1.949   1.591   9.509  0.5012  0.1830  0.6326
  120OSM    H8F12730   1.953   1.688   9.454  2.1276 -1.0491 -1.5651
  120OSM    H8G12731   1.856   1.583   9.568  0.6389 -2.8210  0.5490
  120OSM    C9F12732   1.948   1.480   9.413 -0.2635  0.4754 -0.1508
  120OSM    H9F12733   1.910   1.389   9.462 -0.7461 -0.0261 -1.4159
  120OSM   C10F12734   1.968   1.477   9.282 -0.1172 -0.0374  0.5514
  120OSM   H10F12735   1.948   1.387   9.221 -0.9097  1.8185 -2.1085
  120OSM   C11F12736   1.996   1.600   9.198  0.0019 -0.1635 -0.6704
  120OSM   H11F12737   2.005   1.694   9.256  1.6010 -0.5159 -0.3031
  120OSM   H11G12738   1.903   1.621   9.141 -0.7811 -1.4191  0.1072
  120OSM   C12F12739   2.110   1.584   9.095 -0.1134 -0.2538 -1.2742
  120OSM   H12F12740   2.108   1.477   9.066  0.5176 -1.2475  1.9374
  120OSM   H12G12741   2.213   1.597   9.134 -0.1392  1.5757 -1.7356
  120OSM   C13F12742   2.093   1.670   8.975 -0.3139 -0.4314  0.0253
  120OSM   H13F12743   2.092   1.776   9.009  0.3012 -0.5710  0.4952
  120OSM   H13G12744   1.997   1.652   8.923 -0.5784  0.6792  0.1021
  120OSM   C14F12745   2.214   1.663   8.880 -0.4200  0.1650 -1.0290
  120OSM   H14F12746   2.231   1.559   8.845 -1.9252 -0.1872 -0.7592
  120OSM   H14G12747   2.298   1.695   8.946 -1.8917 -0.9600  1.5422
  120OSM   C15F12748   2.205   1.744   8.749  0.3073 -0.4071 -0.1990
  120OSM   H15F12749   2.110   1.727   8.694 -0.7549 -0.1172  1.4634
  120OSM   H15G12750   2.288   1.715   8.681 -0.6505 -1.1386 -1.0880
  120OSM   C16F12751   2.193   1.897   8.766 -0.4118  0.0369 -0.5100
  120OSM   H16F12752   2.282   1.933   8.821 -0.3911 -0.7503 -0.0076
  120OSM   H16G12753   2.110   1.922   8.836  0.9806 -0.2774  1.3194
  120OSM   C17F12754   2.207   1.968   8.629 -0.6992 -0.0612 -0.9064
  120OSM   H17F12755   2.303   1.931   8.588  0.7106  1.3769  0.9166
  120OSM   H17G12756   2.232   2.074   8.651  1.8187 -0.8919  0.6227
  120OSM   C18F12757   2.097   1.953   8.520 -0.2224  0.4064 -0.3282
  120OSM   H18F12758   2.116   2.013   8.429 -2.3710  0.2952 -0.9047
  120OSM   H18G12759   1.995   1.970   8.563  0.2146  0.0632  0.8982
  120OSM   H18H12760   2.094   1.851   8.476  1.5272 -0.6415  1.7743
  121OSM      N12761   0.467   4.144  10.764 -0.0607  0.4159 -0.4608
  121OSM    C1512762   0.573   4.071  10.843 -0.0586 -0.7106  1.3383
  121OSM   H15A12763   0.612   4.138  10.918  0.9705 -0.3611  0.5162
  121OSM   H15B12764   0.654   4.047  10.776  0.1758  0.6130  1.1312
  121OSM   H15C12765   0.535   3.975  10.874 -1.2905 -1.4038 -1.8818
  121OSM    C1412766   0.425   4.057  10.647 -0.4029  0.2395  0.2999
  121OSM   H14A12767   0.350   4.113  10.593 -0.4964  0.5502  0.7493
  121OSM   H14B12768   0.388   3.958  10.673  0.5935 -0.6838 -1.6022
  121OSM   H14C12769   0.509   4.043  10.581 -1.0378  0.3434 -0.5419
  121OSM    C1312770   0.346   4.142  10.859 -0.1572 -0.7911  0.2423
  121OSM   H13A12771   0.352   4.226  10.927 -1.4478 -1.5248  1.2895
  121OSM   H13B12772   0.353   4.062  10.931 -0.9614 -0.1074  1.1033
  121OSM   H13C12773   0.248   4.137  10.814  0.8990 -1.9681 -2.1596
  121OSM    C1212774   0.521   4.269  10.705 -0.7146  0.4105  0.0754
  121OSM   H12A12775   0.446   4.328  10.654  1.0082  1.3243 -1.5366
  121OSM   H12B12776   0.608   4.244  10.646  0.2778  1.5150  1.0128
  121OSM    C1112777   0.572   4.366  10.810  0.7158 -0.5104 -0.9096
  121OSM   H11A12778   0.507   4.358  10.900  1.3617  2.2167 -0.1000
  121OSM   H11B12779   0.556   4.466  10.764 -0.3082 -0.2837 -0.1130
  121OSM      P12780   0.794   4.418  10.941  0.4861  0.0264 -0.0331
  121OSM    O1312781   0.721   4.443  11.062  0.1798 -0.1812 -1.0286
  121OSM    O1412782   0.928   4.358  10.956 -0.2153  0.2470 -0.1751
  121OSM    O1112783   0.804   4.547  10.866 -0.7167  0.2678  0.4067
  121OSM    O1212784   0.705   4.327  10.844 -0.6702  0.0665  0.0926
  121OSM    C1S12785   0.876   4.562  10.748 -1.1839 -0.1328  0.5137
  121OSM    H1S12786   0.933   4.471  10.724  0.8285  0.8073  1.4944
  121OSM    H1T12787   0.951   4.644  10.745 -1.0432 -0.2938 -0.5639
  121OSM     NF12788   0.865   4.588  10.494 -0.2114 -0.3409  0.2782
  121OSM    HNF12789   0.912   4.666  10.453 -2.3330  0.3969 -0.9261
  121OSM    C2S12790   0.788   4.605  10.620  0.2007  1.0062  0.0625
  121OSM    H2S12791   0.702   4.536  10.606  2.5986 -2.7225  2.1118
  121OSM    C3S12792   0.740   4.754  10.647  0.5543 -0.1943  0.2237
  121OSM    H3S12793   0.824   4.824  10.667 -1.9057  3.2532 -0.5622
  121OSM     O312794   0.659   4.770  10.761 -0.0349  0.6626  0.3309
  121OSM    HO312795   0.678   4.694  10.818 -0.2575 -0.1025 -0.5889
  121OSM    C4S12796   0.677   4.802  10.524 -0.4620 -0.6823  0.4532
  121OSM    H4S12797   0.745   4.860  10.460  3.1910 -2.3395  2.5537
  121OSM    C5S12798   0.546   4.791  10.489  0.3217 -0.5817 -0.2216
  121OSM    H5S12799   0.475   4.774  10.572  0.6385 -0.1525  0.1414
  121OSM    C6S12800   0.478   4.840  10.369  0.9907 -0.1554 -0.2277
  121OSM    H6S12801   0.393   4.908  10.392 -1.2949 -0.6254 -5.8504
  121OSM    H6T12802   0.426   4.748  10.334  0.3035 -0.2114  0.8880
  121OSM    C7S12803   0.564   4.902  10.253 -0.3290  0.1293 -0.5424
  121OSM    H7S12804   0.649   4.832  10.245  1.5337  2.0629  0.9668
  121OSM    H7T12805   0.607   5.001  10.280  1.3413 -0.9498  0.9736
  121OSM    C8S12806   0.489   4.923  10.121 -0.1386  0.5388 -0.0455
  121OSM    H8S12807   0.396   4.982  10.140 -0.0207  0.6255  0.2629
  121OSM    H8T12808   0.452   4.824  10.086  0.5105  0.3578 -0.2318
  121OSM    C9S12809   0.573   4.996  10.019 -0.4475  0.7702  0.3474
  121OSM    H9S12810   0.655   4.930   9.985 -2.4256 -1.0897 -1.0967
  121OSM    H9T12811   0.607   5.095  10.058 -0.1265  0.4523  0.8853
  121OSM   C10S12812   0.488   5.024   9.891  0.1954 -0.1609  0.5263
  121OSM   H10S12813   0.412   5.097   9.926  0.2410  1.2036 -2.0271
  121OSM   H10T12814   0.433   4.931   9.863 -0.9780  0.9176 -0.9013
  121OSM   C11S12815   0.576   5.094   9.786 -0.7297  0.1320  0.1704
  121OSM   H11S12816   0.645   5.017   9.744  2.0499  2.3365  0.3908
  121OSM   H11T12817   0.631   5.183   9.824 -0.2638  0.4738 -1.2540
  121OSM   C12S12818   0.509   5.150   9.657 -0.1518 -0.2816 -0.1086
  121OSM   H12S12819   0.445   5.239   9.675  0.8511  0.2554  0.8668
  121OSM   H12T12820   0.454   5.065   9.610 -0.6438 -0.1514  0.2255
  121OSM   C13S12821   0.619   5.195   9.558 -0.2311 -0.3843  0.7415
  121OSM   H13S12822   0.677   5.112   9.512 -2.3316 -1.0695 -0.8343
  121OSM   H13T12823   0.703   5.240   9.615  3.3191 -2.9569 -2.0220
  121OSM   C14S12824   0.570   5.286   9.438 -0.4756 -0.2169 -0.9522
  121OSM   H14S12825   0.509   5.374   9.468 -0.6472 -0.5023 -0.4336
  121OSM   H14T12826   0.512   5.225   9.366 -0.1510  0.3134 -1.6667
  121OSM   C15S12827   0.691   5.354   9.377 -0.7671 -0.2599 -0.6494
  121OSM   H15S12828   0.755   5.269   9.346 -1.5680 -1.0610 -0.1495
  121OSM   H15T12829   0.740   5.421   9.450  0.5447 -1.9083  0.0279
  121OSM   C16S12830   0.645   5.435   9.255 -0.0928  0.0640  1.1146
  121OSM   H16S12831   0.588   5.522   9.294 -1.7823 -1.2627  1.7255
  121OSM   H16T12832   0.582   5.376   9.184  0.6968  0.2837  0.2110
  121OSM   C17S12833   0.754   5.488   9.172  0.1749 -0.7087 -0.2415
  121OSM   H17S12834   0.835   5.413   9.159  1.7711  1.0815 -1.2305
  121OSM   H17T12835   0.801   5.581   9.211 -0.1900 -0.6013 -0.0573
  121OSM   C18S12836   0.710   5.530   9.030  0.8388 -0.3512  0.3596
  121OSM   H18S12837   0.646   5.450   8.988 -0.1806  0.2433  0.7630
  121OSM   H18T12838   0.808   5.545   8.978  1.9165 -0.2105  2.3240
  121OSM   H18U12839   0.645   5.620   9.031 -0.3079 -1.1570  1.4924
  121OSM    C1F12840   0.913   4.465  10.455  0.5185 -0.0292 -0.3444
  121OSM     OF12841   0.882   4.365  10.517 -0.4337  0.3759  0.0470
  121OSM    C2F12842   1.001   4.459  10.333 -0.3168 -0.2152 -0.6897
  121OSM    H2F12843   1.085   4.532  10.333  0.7247 -1.3539 -1.9422
  121OSM    H2G12844   0.941   4.497  10.248  0.2139  1.1134 -0.4913
  121OSM    C3F12845   1.052   4.319  10.303 -0.4641  0.0725 -0.6095
  121OSM    H3F12846   0.968   4.247  10.297 -1.1569  0.8977 -0.8498
  121OSM    H3G12847   1.116   4.304  10.393  2.0011 -0.0773 -2.2867
  121OSM    C4F12848   1.131   4.307  10.180 -0.5347  0.0627 -0.5146
  121OSM    H4F12849   1.067   4.325  10.091  0.4823 -0.0043 -1.2800
  121OSM    H4G12850   1.160   4.200  10.177 -1.6753 -0.2486 -1.2651
  121OSM    C5F12851   1.253   4.397  10.184  0.7133 -0.2361 -0.3150
  121OSM    H5F12852   1.275   4.453  10.277 -1.2505 -2.6130  1.7151
  121OSM    H5G12853   1.233   4.472  10.105 -1.3371  0.8939  1.1741
  121OSM    C6F12854   1.390   4.325  10.173  0.3138  0.2154  0.5182
  121OSM    H6F12855   1.402   4.259  10.262 -0.0255 -0.0687  0.3533
  121OSM    H6G12856   1.471   4.399  10.187 -0.0645  1.1517 -1.8759
  121OSM    C7F12857   1.412   4.243  10.045 -0.1904  0.7278  0.4033
  121OSM    H7F12858   1.331   4.167  10.037  2.3488 -2.0335 -1.6239
  121OSM    H7G12859   1.513   4.196  10.048 -0.3882  0.3191  0.8089
  121OSM    C8F12860   1.405   4.327   9.915  1.3844 -0.5552 -0.0872
  121OSM    H8F12861   1.496   4.387   9.896  0.9509 -0.4334 -1.9824
  121OSM    H8G12862   1.317   4.393   9.931  0.5600 -2.3650  4.3150
  121OSM    C9F12863   1.382   4.235   9.802  0.5963  0.5131 -0.5191
  121OSM    H9F12864   1.441   4.142   9.792 -0.9615 -0.4294 -1.3061
  121OSM   C10F12865   1.283   4.244   9.709 -0.0125  0.0813  0.5184
  121OSM   H10F12866   1.296   4.180   9.621  0.4700 -0.6209  1.0836
  121OSM   C11F12867   1.183   4.352   9.678  0.1659 -0.2125  0.4740
  121OSM   H11F12868   1.101   4.360   9.753  1.8625  3.3965  2.1707
  121OSM   H11G12869   1.127   4.319   9.588  2.0062  0.1164 -0.8427
  121OSM   C12F12870   1.236   4.495   9.639 -0.2787  0.0116 -0.5711
  121OSM   H12F12871   1.241   4.544   9.738  1.7171  0.2445 -0.7479
  121OSM   H12G12872   1.159   4.559   9.590 -0.6515 -0.9673 -1.3047
  121OSM   C13F12873   1.365   4.509   9.557  0.4310  0.3136  0.4108
  121OSM   H13F12874   1.450   4.446   9.591  0.9949  0.3581 -0.8747
  121OSM   H13G12875   1.391   4.616   9.563  0.8507  0.2077  0.5292
  121OSM   C14F12876   1.332   4.479   9.413 -0.4300 -0.0232  0.0530
  121OSM   H14F12877   1.272   4.565   9.376  0.4764  0.8368  0.5340
  121OSM   H14G12878   1.257   4.398   9.407 -0.1143 -0.3737  0.7307
  121OSM   C15F12879   1.452   4.461   9.325 -0.0497  0.6456  0.2642
  121OSM   H15F12880   1.508   4.376   9.370  0.8175  1.0763  0.0100
  121OSM   H15G12881   1.521   4.549   9.325 -0.8698  1.3036  0.0949
  121OSM   C16F12882   1.411   4.412   9.184 -0.1545  0.2679 -0.1666
  121OSM   H16F12883   1.344   4.481   9.129 -1.5487 -0.5477  0.4451
  121OSM   H16G12884   1.355   4.317   9.201  2.4849 -1.1174  1.4184
  121OSM   C17F12885   1.530   4.371   9.101 -0.1391  0.0279 -0.2551
  121OSM   H17F12886   1.577   4.278   9.140  0.6560  0.1450 -0.8902
  121OSM   H17G12887   1.605   4.452   9.097  0.0796 -0.0327  1.9083
  121OSM   C18F12888   1.478   4.341   8.960  0.3863 -0.5818  0.1396
  121OSM   H18F12889   1.390   4.274   8.968 -0.8838  0.9592 -0.2919
  121OSM   H18G12890   1.556   4.293   8.897  0.2595 -1.5249  0.6777
  121OSM   H18H12891   1.420   4.424   8.915 -0.3273 -1.0123  0.2531
  122OSM      N12892   1.796   3.302  10.877 -0.0044  0.4594  0.0909
  122OSM    C1512893   1.660   3.282  10.938  0.2064 -0.0384 -0.4378
  122OSM   H15A12894   1.663   3.181  10.978  2.6705 -0.4164 -1.3734
  122OSM   H15B12895   1.582   3.294  10.864 -0.1146 -0.8069 -0.2404
  122OSM   H15C12896   1.631   3.354  11.013 -2.4623 -1.0911 -0.3470
  122OSM    C1412897   1.808   3.444  10.841 -0.1430  0.4322  0.1423
  122OSM   H14A12898   1.749   3.464  10.753  0.3688 -0.3401 -0.3849
  122OSM   H14B12899   1.910   3.477  10.828 -0.0234  1.0608  2.1950
  122OSM   H14C12900   1.776   3.512  10.920 -1.7011  0.7279 -0.7049
  122OSM    C1312901   1.906   3.274  10.979  0.1952  0.2518  0.0118
  122OSM   H13A12902   1.890   3.314  11.078 -0.6786 -0.2736  0.0970
  122OSM   H13B12903   2.003   3.303  10.941  1.1419  0.5530  2.4841
  122OSM   H13C12904   1.909   3.169  11.000  0.6594  0.5163  1.3614
  122OSM    C1212905   1.811   3.206  10.762  0.3358 -0.1836  0.1202
  122OSM   H12A12906   1.731   3.227  10.693  1.4178 -0.0061 -1.1231
  122OSM   H12B12907   1.793   3.111  10.809 -0.7911  0.4161  0.9435
  122OSM    C1112908   1.942   3.206  10.683 -0.0836 -0.1497  0.3775
  122OSM   H11A12909   1.964   3.313  10.665 -0.0832 -0.3022 -0.5698
  122OSM   H11B12910   1.924   3.169  10.580  1.4501  2.5505 -0.9630
  122OSM      P12911   2.070   2.981  10.737 -0.1245  0.4464 -0.3558
  122OSM    O1312912   2.116   2.935  10.869  1.0070  0.2844 -0.2562
  122OSM    O1412913   1.948   2.916  10.675 -0.5564 -0.1346  0.3474
  122OSM    O1112914   2.196   2.971  10.642 -0.4063  0.6625 -0.1493
  122OSM    O1212915   2.036   3.131  10.762 -0.3012 -0.4652 -0.0936
  122OSM    C1S12916   2.214   2.886  10.529  0.6653 -0.8234  0.1703
  122OSM    H1S12917   2.139   2.803  10.531  1.9065 -1.9908  0.0485
  122OSM    H1T12918   2.316   2.843  10.536  1.4845  1.3067  3.0659
  122OSM     NF12919   2.177   2.901  10.273 -0.1154  0.4586 -0.5499
  122OSM    HNF12920   2.264   2.904  10.225  0.7604 -2.0806  0.6831
  122OSM    C2S12921   2.181   2.969  10.400 -0.9241  0.1024  0.5721
  122OSM    H2S12922   2.076   3.006  10.406 -0.3520  2.6695 -2.5220
  122OSM    C3S12923   2.264   3.100  10.390  0.7032  0.5927 -0.1948
  122OSM    H3S12924   2.371   3.075  10.370  0.4434  0.2918 -1.2751
  122OSM     O312925   2.254   3.175  10.512 -0.0405  0.1104 -1.0280
  122OSM    HO312926   2.229   3.117  10.584 -2.0546  1.3843 -0.6483
  122OSM    C4S12927   2.211   3.187  10.283  0.0044 -0.0264  0.5959
  122OSM    H4S12928   2.106   3.215  10.298 -0.0854  0.6118 -1.0750
  122OSM    C5S12929   2.274   3.239  10.169 -1.1545 -0.0646  0.7889
  122OSM    H5S12930   2.377   3.208  10.144 -1.0100 -0.9696  2.3602
  122OSM    C6S12931   2.205   3.335  10.076 -0.2293 -0.3204 -0.2479
  122OSM    H6S12932   2.278   3.418  10.081 -1.0533  0.3787  0.7067
  122OSM    H6T12933   2.108   3.369  10.118  1.3410 -0.6181  4.1773
  122OSM    C7S12934   2.197   3.292   9.931  0.0915 -0.1710  0.3468
  122OSM    H7S12935   2.300   3.255   9.909  0.1064  0.7529 -1.3468
  122OSM    H7T12936   2.176   3.385   9.873  1.5500 -0.8188 -1.3343
  122OSM    C8S12937   2.079   3.197   9.904 -0.6027 -0.1690  1.0920
  122OSM    H8S12938   1.994   3.267   9.917 -0.7131 -0.1742  0.4250
  122OSM    H8T12939   2.085   3.105   9.966 -1.4312 -2.0844 -1.5233
  122OSM    C9S12940   2.082   3.147   9.760  0.1012  0.0820  0.5929
  122OSM    H9S12941   2.136   3.050   9.757 -0.6603 -0.3338 -0.2563
  122OSM    H9T12942   2.139   3.205   9.685  1.1114 -1.5791  0.0263
  122OSM   C10S12943   1.946   3.114   9.694  0.2870  0.2319  0.0837
  122OSM   H10S12944   1.880   3.198   9.666  0.5964 -0.0382 -1.5590
  122OSM   H10T12945   1.889   3.045   9.761  1.3879 -0.8426 -0.0441
  122OSM   C11S12946   1.962   3.046   9.552  0.1642  0.0343 -0.0129
  122OSM   H11S12947   2.036   2.964   9.554  2.4567  1.9656 -0.5889
  122OSM   H11T12948   2.002   3.129   9.489 -0.8271 -0.8378 -1.8977
  122OSM   C12S12949   1.821   3.004   9.499  0.0249  0.3808 -0.1274
  122OSM   H12S12950   1.778   3.094   9.451  0.8366  0.5186 -0.6129
  122OSM   H12T12951   1.759   2.964   9.583 -0.7870  0.2287 -0.7910
  122OSM   C13S12952   1.840   2.889   9.394 -0.2672 -0.2491  0.1294
  122OSM   H13S12953   1.914   2.817   9.434  0.0175  0.5580  1.1113
  122OSM   H13T12954   1.889   2.936   9.306 -1.1716  1.0168  0.2748
  122OSM   C14S12955   1.712   2.823   9.342 -0.8009 -0.2397 -0.2838
  122OSM   H14S12956   1.643   2.908   9.321 -0.8076 -0.1096  0.2397
  122OSM   H14T12957   1.650   2.764   9.414 -0.0732 -0.6779 -0.0149
  122OSM   C15S12958   1.724   2.738   9.219 -1.3654 -0.3783  0.7113
  122OSM   H15S12959   1.817   2.677   9.217 -0.3075  1.1332 -1.8994
  122OSM   H15T12960   1.725   2.806   9.131 -0.6111  0.7675  1.5898
  122OSM   C16S12961   1.605   2.641   9.203  0.5550  0.4549  0.5487
  122OSM   H16S12962   1.518   2.705   9.175  0.3258  0.1476  0.5534
  122OSM   H16T12963   1.574   2.589   9.296 -1.9822  1.6085  0.4441
  122OSM   C17S12964   1.633   2.547   9.083 -0.2790  0.2574 -0.3430
  122OSM   H17S12965   1.558   2.464   9.080 -0.8984  0.8096 -0.4950
  122OSM   H17T12966   1.733   2.500   9.098  0.4038  1.4335 -1.1154
  122OSM   C18S12967   1.623   2.612   8.947  0.4064  0.7205  1.0069
  122OSM   H18S12968   1.705   2.685   8.930  0.7684  0.3487  1.1395
  122OSM   H18T12969   1.533   2.675   8.930  0.0576 -0.2512 -1.0133
  122OSM   H18U12970   1.627   2.540   8.863  0.9674  1.4979  0.3519
  122OSM    C1F12971   2.084   2.803  10.246 -0.2540  0.4796 -0.0519
  122OSM     OF12972   1.994   2.770  10.323 -0.2768  0.5080 -0.1332
  122OSM    C2F12973   2.110   2.733  10.116 -0.3965 -0.0353 -0.2684
  122OSM    H2F12974   2.116   2.623  10.135  0.5165  0.1485  0.6433
  122OSM    H2G12975   2.209   2.770  10.081  0.8809 -1.4914  1.5644
  122OSM    C3F12976   1.985   2.766  10.028  0.2995  0.3273  0.0628
  122OSM    H3F12977   1.979   2.877  10.026 -0.3328  0.3483  1.7049
  122OSM    H3G12978   1.895   2.728  10.081  0.6318  0.6905  0.9150
  122OSM    C4F12979   1.994   2.715   9.887 -0.0407  0.5500 -0.0582
  122OSM    H4F12980   2.052   2.620   9.886  0.6210  0.9297 -1.8667
  122OSM    H4G12981   2.069   2.778   9.835  2.7416 -2.1892  0.2815
  122OSM    C5F12982   1.864   2.707   9.808  0.0238 -0.4269 -0.4749
  122OSM    H5F12983   1.885   2.702   9.699 -0.8722 -1.4567 -0.6129
  122OSM    H5G12984   1.810   2.801   9.830 -0.7051 -0.9678  0.1340
  122OSM    C6F12985   1.782   2.584   9.846 -0.2515 -0.9285 -0.0523
  122OSM    H6F12986   1.676   2.608   9.822 -0.2119  0.1484  0.7960
  122OSM    H6G12987   1.798   2.579   9.956  0.1722 -2.0755 -0.1553
  122OSM    C7F12988   1.837   2.454   9.780  0.1723 -1.2674 -0.6233
  122OSM    H7F12989   1.938   2.444   9.825 -0.3256 -0.4418  0.7370
  122OSM    H7G12990   1.868   2.467   9.674  1.6099 -1.0104 -0.2016
  122OSM    C8F12991   1.745   2.338   9.804 -0.6709  0.5687  0.8157
  122OSM    H8F12992   1.647   2.351   9.753 -0.1785 -1.0953 -0.6527
  122OSM    H8G12993   1.711   2.335   9.909 -0.8857  0.9010  0.7561
  122OSM    C9F12994   1.809   2.199   9.775 -0.7464  0.8112  0.6600
  122OSM    H9F12995   1.862   2.159   9.863  1.9734  0.8021 -0.8497
  122OSM   C10F12996   1.811   2.129   9.655  0.2025 -0.5244  0.3868
  122OSM   H10F12997   1.843   2.024   9.647 -0.8755 -0.8894  0.6820
  122OSM   C11F12998   1.738   2.186   9.537  0.0317 -0.3215  1.1405
  122OSM   H11F12999   1.776   2.287   9.509  0.4156 -1.5336 -3.5133
  122OSM   H11G13000   1.629   2.187   9.557  0.0554 -0.1994  1.2670
  122OSM   C12F13001   1.774   2.106   9.408  0.1414 -0.5113 -0.7227
  122OSM   H12F13002   1.727   2.005   9.412  1.1084 -0.9402  1.2110
  122OSM   H12G13003   1.884   2.087   9.401  0.5107  0.8491  0.9056
  122OSM   C13F13004   1.735   2.177   9.282 -0.2248  0.6304  0.2177
  122OSM   H13F13005   1.800   2.265   9.259  3.2462 -0.7579  3.6301
  122OSM   H13G13006   1.634   2.221   9.297  0.2847  0.7544  4.4550
  122OSM   C14F13007   1.736   2.086   9.149 -0.2231 -0.2096 -0.0063
  122OSM   H14F13008   1.655   2.010   9.147 -0.6529  0.2572 -0.3116
  122OSM   H14G13009   1.831   2.028   9.155 -0.4982 -0.7723 -0.8892
  122OSM   C15F13010   1.729   2.165   9.020 -0.1579 -0.2724 -0.9836
  122OSM   H15F13011   1.818   2.229   9.003 -1.9489  2.2951 -1.2424
  122OSM   H15G13012   1.648   2.239   9.037  0.3089  0.2071 -0.8344
  122OSM   C16F13013   1.701   2.085   8.891 -0.3012  0.0036  0.2844
  122OSM   H16F13014   1.705   2.164   8.814  0.9114 -2.4348 -2.3584
  122OSM   H16G13015   1.603   2.033   8.890 -0.2098 -0.1702 -0.6506
  122OSM   C17F13016   1.817   1.986   8.855 -0.5574  0.1877 -0.3673
  122OSM   H17F13017   1.877   1.957   8.944 -0.6531  1.7586  0.2452
  122OSM   H17G13018   1.889   2.049   8.800 -0.0412 -1.2538 -1.3986
  122OSM   C18F13019   1.775   1.873   8.768  0.0214 -0.1776 -0.3702
  122OSM   H18F13020   1.861   1.810   8.738 -0.1480  0.1462 -1.5766
  122OSM   H18G13021   1.723   1.910   8.677 -0.2589 -0.2631 -0.2449
  122OSM   H18H13022   1.694   1.812   8.814  0.5155 -1.0544 -0.6427
  123OSM      N13023   4.364   0.255   5.840  0.4257 -0.7030 -0.0754
  123OSM    C1513024   4.462   0.147   5.813  0.0505 -0.1210  0.1858
  123OSM   H15A13025   4.494   0.092   5.900  0.0032  2.1748  1.7280
  123OSM   H15B13026   4.546   0.182   5.755  0.5595 -0.4267  0.7331
  123OSM   H15C13027   4.412   0.071   5.755  0.5674  0.7894 -1.5179
  123OSM    C1413028   4.449   0.369   5.883 -0.2957  0.2437 -0.0071
  123OSM   H14A13029   4.514   0.384   5.798 -0.2463 -2.4342 -0.5325
  123OSM   H14B13030   4.494   0.345   5.979 -0.3898  2.2923  0.5947
  123OSM   H14C13031   4.389   0.458   5.898 -2.3417 -1.1332  0.4495
  123OSM    C1313032   4.288   0.298   5.712 -0.4013 -0.0976  0.4184
  123OSM   H13A13033   4.359   0.300   5.630  1.4827  1.4628  1.9957
  123OSM   H13B13034   4.242   0.395   5.719 -0.0081  0.0466  1.0739
  123OSM   H13C13035   4.201   0.238   5.690 -0.2118 -0.2341  0.0317
  123OSM    C1213036   4.257   0.221   5.943 -0.0792  0.6407 -0.1386
  123OSM   H12A13037   4.185   0.156   5.894  2.0412 -2.0367  0.0219
  123OSM   H12B13038   4.195   0.308   5.955  0.3126  0.7219  1.4865
  123OSM    C1113039   4.303   0.174   6.084 -0.0380 -0.2678  0.3912
  123OSM   H11A13040   4.225   0.194   6.161 -0.9647  1.0909 -0.8461
  123OSM   H11B13041   4.373   0.256   6.107  0.4150 -0.5042 -0.1269
  123OSM      P13042   4.267  -0.071   6.076 -0.1569  0.2147  0.0628
  123OSM    O1313043   4.146  -0.038   5.995 -0.0227 -0.8341  0.3907
  123OSM    O1413044   4.335  -0.190   6.032  0.1121 -0.3272  0.1501
  123OSM    O1113045   4.214  -0.095   6.227 -0.5204 -0.0682  0.0524
  123OSM    O1213046   4.366   0.047   6.077  0.8659 -0.0823 -0.2932
  123OSM    C1S13047   4.295  -0.048   6.334  0.1346  0.0885 -0.4728
  123OSM    H1S13048   4.302   0.062   6.348 -0.2210 -0.0841  1.3325
  123OSM    H1T13049   4.402  -0.077   6.318  0.7224  2.4688 -1.2306
  123OSM     NF13050   4.302  -0.040   6.575 -0.1174 -0.0667  0.3000
  123OSM    HNF13051   4.376  -0.076   6.632  0.5535  1.5543  0.4964
  123OSM    C2S13052   4.243  -0.113   6.463 -0.0072 -0.5858  0.5233
  123OSM    H2S13053   4.133  -0.097   6.472  0.0390  1.6465 -1.7064
  123OSM    C3S13054   4.257  -0.276   6.474 -0.1101 -0.0262  0.7736
  123OSM    H3S13055   4.367  -0.296   6.470  0.0041  0.7350 -1.0334
  123OSM     O313056   4.193  -0.343   6.364 -0.5390  0.8830  0.2527
  123OSM    HO313057   4.199  -0.274   6.297  3.2005  0.4684 -0.0813
  123OSM    C4S13058   4.187  -0.319   6.598 -0.2000 -0.4491  0.1278
  123OSM    H4S13059   4.078  -0.303   6.594 -0.1290  0.4331  1.3513
  123OSM    C5S13060   4.244  -0.366   6.709 -0.3089  0.0743 -0.6568
  123OSM    H5S13061   4.353  -0.357   6.716 -0.4179  2.2922 -1.1061
  123OSM    C6S13062   4.161  -0.388   6.828  0.0869 -0.0677 -0.6414
  123OSM    H6S13063   4.098  -0.480   6.827 -2.0397  1.2718  0.9452
  123OSM    H6T13064   4.091  -0.305   6.851  0.6585  0.1800  0.2520
  123OSM    C7S13065   4.249  -0.402   6.947  0.0001  0.0682  0.0054
  123OSM    H7S13066   4.288  -0.299   6.962 -1.3263  0.6436 -0.3973
  123OSM    H7T13067   4.338  -0.468   6.944  0.9079  1.2803 -1.1467
  123OSM    C8S13068   4.180  -0.438   7.076  0.3130 -0.5022  0.3332
  123OSM    H8S13069   4.122  -0.532   7.065 -2.4118  1.0695  0.2449
  123OSM    H8T13070   4.097  -0.366   7.093  0.3525  0.0434 -1.5284
  123OSM    C9S13071   4.284  -0.457   7.187 -0.0863  0.9093 -0.0343
  123OSM    H9S13072   4.358  -0.375   7.174  1.4583 -0.6331 -1.4587
  123OSM    H9T13073   4.348  -0.546   7.170 -3.3246 -1.9080  1.2904
  123OSM   C10S13074   4.228  -0.463   7.331  0.0649 -0.1623  0.0039
  123OSM   H10S13075   4.149  -0.541   7.338  0.8730 -1.1172 -0.9238
  123OSM   H10T13076   4.176  -0.367   7.347 -2.3729 -0.8937 -2.6994
  123OSM   C11S13077   4.337  -0.476   7.433 -0.2891  0.2679  0.0395
  123OSM   H11S13078   4.408  -0.395   7.409  0.1368  0.3435  1.4525
  123OSM   H11T13079   4.390  -0.573   7.422  0.3691  0.3704  1.9032
  123OSM   C12S13080   4.300  -0.460   7.574  0.7556  0.1404  0.1281
  123OSM   H12S13081   4.256  -0.557   7.606 -0.4279 -0.3653 -2.7154
  123OSM   H12T13082   4.241  -0.367   7.593  0.5195  0.4068 -1.7459
  123OSM   C13S13083   4.428  -0.433   7.662 -0.0020  0.2019  0.2154
  123OSM   H13S13084   4.470  -0.336   7.626 -1.2558  0.7680  0.2316
  123OSM   H13T13085   4.498  -0.511   7.625  0.2280  1.4747 -2.2582
  123OSM   C14S13086   4.409  -0.428   7.817  0.1062  0.7241  0.5420
  123OSM   H14S13087   4.323  -0.364   7.844 -1.5382 -1.6809  1.3937
  123OSM   H14T13088   4.508  -0.383   7.843  0.8698 -0.0412 -0.8578
  123OSM   C15S13089   4.403  -0.572   7.882  0.3854 -0.4948  0.1793
  123OSM   H15S13090   4.309  -0.619   7.845 -0.0794  0.3526  0.2592
  123OSM   H15T13091   4.398  -0.564   7.992 -1.2783  0.1770  0.0930
  123OSM   C16S13092   4.527  -0.668   7.855  0.7161 -0.2165  0.5619
  123OSM   H16S13093   4.627  -0.625   7.877  0.4642 -0.8452  3.2055
  123OSM   H16T13094   4.519  -0.692   7.746 -1.2005 -1.5849  0.9425
  123OSM   C17S13095   4.520  -0.799   7.926  0.1187  0.5217 -0.1327
  123OSM   H17S13096   4.589  -0.874   7.882  1.2964 -0.2059  2.7463
  123OSM   H17T13097   4.416  -0.837   7.927 -0.0122  0.8126 -1.1850
  123OSM   C18S13098   4.570  -0.787   8.072 -0.5315  0.2666 -0.5809
  123OSM   H18S13099   4.679  -0.767   8.071 -0.4095 -0.3709 -0.3899
  123OSM   H18T13100   4.554  -0.885   8.122  0.1745 -0.7122 -2.1863
  123OSM   H18U13101   4.517  -0.705   8.125  1.2619  1.0054  0.1440
  123OSM    C1F13102   4.279   0.092   6.599  0.2411  0.6491 -0.0620
  123OSM     OF13103   4.193   0.149   6.533 -0.3965  0.2737  0.3526
  123OSM    C2F13104   4.365   0.159   6.704  0.2306  0.2334  0.2512
  123OSM    H2F13105   4.446   0.214   6.651 -0.7840  1.7336  0.1688
  123OSM    H2G13106   4.414   0.079   6.763 -1.2805 -0.8453  0.0886
  123OSM    C3F13107   4.289   0.236   6.822 -0.4088  0.6075 -0.7936
  123OSM    H3F13108   4.217   0.163   6.864  0.0495  1.9026  2.5123
  123OSM    H3G13109   4.236   0.312   6.760  0.4986  1.1991 -0.8567
  123OSM    C4F13110   4.377   0.310   6.922  0.6137 -0.8389  0.1922
  123OSM    H4F13111   4.457   0.367   6.870  0.0934  2.9408  3.0568
  123OSM    H4G13112   4.433   0.245   6.992  2.1329 -0.5414 -0.7026
  123OSM    C5F13113   4.291   0.413   6.998  0.3685 -0.2685  0.3001
  123OSM    H5F13114   4.219   0.444   6.919  3.5941 -1.8466 -3.6693
  123OSM    H5G13115   4.349   0.499   7.038 -2.0940  0.3186  2.8194
  123OSM    C6F13116   4.218   0.347   7.117  0.5293 -0.7372 -0.1359
  123OSM    H6F13117   4.155   0.266   7.075 -2.1486  0.2109  1.7913
  123OSM    H6G13118   4.145   0.425   7.146  0.1094 -0.8159 -0.9540
  123OSM    C7F13119   4.317   0.309   7.230 -0.1396  0.4474 -0.0879
  123OSM    H7F13120   4.369   0.405   7.251 -1.7972  1.1482  0.9880
  123OSM    H7G13121   4.393   0.239   7.190 -1.5873 -0.9024 -0.5781
  123OSM    C8F13122   4.259   0.247   7.361  0.1361 -0.3375  0.4631
  123OSM    H8F13123   4.348   0.236   7.427  0.8320 -0.0601 -0.4168
  123OSM    H8G13124   4.216   0.148   7.334  0.4123  0.3322 -2.7224
  123OSM    C9F13125   4.145   0.330   7.420  0.2487 -0.0682 -0.1961
  123OSM    H9F13126   4.050   0.323   7.364  0.1380 -0.6234  0.0495
  123OSM   C10F13127   4.147   0.405   7.532 -0.1273 -0.2258 -0.4633
  123OSM   H10F13128   4.054   0.458   7.557 -1.3703 -1.9791 -1.2467
  123OSM   C11F13129   4.264   0.426   7.624 -0.2915 -0.3669 -0.4433
  123OSM   H11F13130   4.359   0.390   7.578 -0.4576 -1.6554  0.1785
  123OSM   H11G13131   4.246   0.357   7.710 -0.9083  1.6743  1.1390
  123OSM   C12F13132   4.276   0.568   7.677  0.4162 -0.1271 -0.3565
  123OSM   H12F13133   4.277   0.640   7.592  0.1244 -0.7440 -0.8918
  123OSM   H12G13134   4.376   0.594   7.718 -1.0730  0.7078  3.1111
  123OSM   C13F13135   4.174   0.598   7.787 -0.2303  0.4118  0.0858
  123OSM   H13F13136   4.072   0.580   7.746 -0.3916  0.9990  0.2130
  123OSM   H13G13137   4.167   0.708   7.805 -1.8419  0.3694 -0.0944
  123OSM   C14F13138   4.206   0.549   7.927  0.0356  1.1149 -0.0385
  123OSM   H14F13139   4.223   0.439   7.923 -1.5451  0.7641  1.5896
  123OSM   H14G13140   4.124   0.567   7.999  0.5744  1.8839  0.3996
  123OSM   C15F13141   4.326   0.620   7.996 -0.0329  0.2660  0.5724
  123OSM   H15F13142   4.308   0.729   7.996 -1.3522  0.0643 -0.2705
  123OSM   H15G13143   4.415   0.607   7.930 -0.1162  0.1865  0.4756
  123OSM   C16F13144   4.335   0.579   8.142 -0.6799 -0.4115  0.2891
  123OSM   H16F13145   4.372   0.474   8.151 -0.3393 -0.4288 -1.1021
  123OSM   H16G13146   4.235   0.593   8.188  0.1598 -0.8379  2.3522
  123OSM   C17F13147   4.429   0.663   8.232  0.6361 -0.1781  0.3572
  123OSM   H17F13148   4.426   0.624   8.335  0.0411 -2.5630 -0.4961
  123OSM   H17G13149   4.395   0.769   8.234  2.1196  0.3025  1.5719
  123OSM   C18F13150   4.574   0.664   8.180  0.6213  0.4999 -0.0801
  123OSM   H18F13151   4.605   0.562   8.150  0.8890  1.5537 -3.9815
  123OSM   H18G13152   4.631   0.701   8.268 -1.2698 -3.5763  3.1836
  123OSM   H18H13153   4.583   0.732   8.092 -0.4280  0.7337 -0.0248
  124OSM      N13154   0.629   5.352   6.366  0.3791  0.4707 -0.1479
  124OSM    C1513155   0.609   5.369   6.511  0.1196 -0.5451  1.1512
  124OSM   H15A13156   0.526   5.305   6.537 -1.0051  0.8424  1.0951
  124OSM   H15B13157   0.577   5.468   6.538  0.5541 -0.1938  0.3978
  124OSM   H15C13158   0.698   5.338   6.563  2.9036  3.8711 -0.4827
  124OSM    C1413159   0.623   5.202   6.346 -0.0674  0.3554  0.8967
  124OSM   H14A13160   0.619   5.165   6.244 -1.2154  2.7352 -0.0073
  124OSM   H14B13161   0.535   5.154   6.385  0.1724  0.7675  1.9772
  124OSM   H14C13162   0.708   5.151   6.388  0.2904 -1.4272 -1.7025
  124OSM    C1313163   0.514   5.412   6.289  0.3549 -0.0665 -0.5922
  124OSM   H13A13164   0.495   5.515   6.318 -3.0874 -1.2146  1.9314
  124OSM   H13B13165   0.419   5.372   6.321  1.0528  0.5084  2.6270
  124OSM   H13C13166   0.539   5.392   6.187  2.5940 -1.0619  0.0975
  124OSM    C1213167   0.752   5.414   6.303 -0.5246  0.7484 -0.4413
  124OSM   H12A13168   0.754   5.522   6.313  0.7607  0.7709 -0.7777
  124OSM   H12B13169   0.757   5.384   6.199 -1.0344 -1.3372  0.0982
  124OSM    C1113170   0.889   5.371   6.370 -0.2819 -0.4562 -0.5629
  124OSM   H11A13171   0.898   5.261   6.368 -0.2050 -0.4457 -0.8982
  124OSM   H11B13172   0.882   5.398   6.477 -3.4621  0.0866 -0.8041
  124OSM      P13173   1.144   5.354   6.313  0.1914 -0.1495 -0.1009
  124OSM    O1313174   1.143   5.230   6.226 -0.8104  0.1099 -0.1924
  124OSM    O1413175   1.243   5.463   6.278  0.6746 -0.3144  0.3929
  124OSM    O1113176   1.156   5.310   6.466 -0.0967 -0.0590 -0.4578
  124OSM    O1213177   0.999   5.423   6.299 -0.4038 -0.1530 -0.0003
  124OSM    C1S13178   1.214   5.409   6.559 -0.0901  0.1972 -0.2140
  124OSM    H1S13179   1.147   5.495   6.575 -0.9625 -0.4034 -0.5575
  124OSM    H1T13180   1.299   5.462   6.511 -0.2751  0.7005  0.0191
  124OSM     NF13181   1.278   5.461   6.793  0.1646  0.2897 -0.7266
  124OSM    HNF13182   1.370   5.476   6.828 -1.1607 -1.0189  4.0519
  124OSM    C2S13183   1.253   5.350   6.699 -0.1525  0.6759  0.2340
  124OSM    H2S13184   1.164   5.292   6.733  0.6665 -1.8162 -1.5690
  124OSM    C3S13185   1.370   5.248   6.680 -0.0068 -0.1216  0.2660
  124OSM    H3S13186   1.459   5.295   6.634  0.0496  0.0548  0.5548
  124OSM     O313187   1.326   5.143   6.591 -0.8620 -0.0747 -0.2699
  124OSM    HO313188   1.268   5.198   6.538 -0.1075 -1.1758 -2.3385
  124OSM    C4S13189   1.405   5.188   6.813 -0.4223  0.0921  0.4445
  124OSM    H4S13190   1.498   5.216   6.864  0.3518 -2.5360  0.6338
  124OSM    C5S13191   1.330   5.093   6.880  0.4427  0.4985  0.1881
  124OSM    H5S13192   1.237   5.054   6.838  1.2761 -0.6390 -0.6596
  124OSM    C6S13193   1.373   5.043   7.015 -0.3728 -0.0984 -0.8603
  124OSM    H6S13194   1.321   5.090   7.101 -0.7252 -1.3328 -0.3806
  124OSM    H6T13195   1.481   5.072   7.016 -0.8327  1.8022 -1.7060
  124OSM    C7S13196   1.352   4.894   7.018 -0.5996 -0.3256 -1.1100
  124OSM    H7S13197   1.374   4.837   6.926 -1.5129 -1.7678 -0.4841
  124OSM    H7T13198   1.245   4.874   7.041 -0.1669 -0.7824  0.7260
  124OSM    C8S13199   1.437   4.828   7.126 -0.1247 -0.1146 -0.1270
  124OSM    H8S13200   1.545   4.842   7.105 -0.6948  0.8699 -2.8970
  124OSM    H8T13201   1.415   4.720   7.119 -0.7297 -0.1016  1.2395
  124OSM    C9S13202   1.407   4.874   7.272 -0.2701 -0.1647  0.1969
  124OSM    H9S13203   1.297   4.871   7.285 -0.3535 -0.3163 -0.4872
  124OSM    H9T13204   1.441   4.980   7.283  0.3844 -0.0963 -1.9365
  124OSM   C10S13205   1.474   4.789   7.370 -0.1022 -0.6750 -0.1616
  124OSM   H10S13206   1.585   4.782   7.365  0.2209  2.0864  1.1902
  124OSM   H10T13207   1.439   4.685   7.357 -1.5886 -0.4320  1.4738
  124OSM   C11S13208   1.442   4.833   7.515  0.0488  0.4189  0.4807
  124OSM   H11S13209   1.335   4.815   7.540 -0.0143  2.8209  2.2818
  124OSM   H11T13210   1.464   4.941   7.530  0.5719  0.2534  0.9277
  124OSM   C12S13211   1.530   4.756   7.611  1.1252  0.3835  0.4071
  124OSM   H12S13212   1.638   4.769   7.585  0.4390 -1.8172 -4.8310
  124OSM   H12T13213   1.509   4.648   7.599  2.2684  0.1131  0.7276
  124OSM   C13S13214   1.502   4.802   7.755  0.0259  0.5201  0.2689
  124OSM   H13S13215   1.431   4.731   7.801  0.7683 -0.2818  0.1858
  124OSM   H13T13216   1.453   4.902   7.756 -3.3286 -0.8998 -1.8041
  124OSM   C14S13217   1.621   4.789   7.853 -0.5507 -0.3230  0.2401
  124OSM   H14S13218   1.704   4.845   7.805 -1.9020  1.8363  0.2774
  124OSM   H14T13219   1.655   4.684   7.864 -1.4430 -0.8427 -1.6026
  124OSM   C15S13220   1.589   4.850   7.988 -0.6554 -0.5486  0.5768
  124OSM   H15S13221   1.537   4.946   7.964  1.1841  0.3044 -0.1487
  124OSM   H15T13222   1.667   4.885   8.058 -0.6703 -1.2166  0.9360
  124OSM   C16S13223   1.486   4.774   8.069  0.3336  0.4327 -0.7590
  124OSM   H16S13224   1.524   4.671   8.052  3.0066  1.4701 -1.6271
  124OSM   H16T13225   1.388   4.781   8.017 -0.2892  0.3461  0.3765
  124OSM   C17S13226   1.488   4.800   8.226  0.4201  1.1313  0.0603
  124OSM   H17S13227   1.583   4.767   8.273 -0.0216  1.5214  1.2694
  124OSM   H17T13228   1.415   4.732   8.276  0.6163 -0.3792 -1.6189
  124OSM   C18S13229   1.474   4.947   8.260  0.2601 -0.4435 -0.0550
  124OSM   H18S13230   1.367   4.976   8.248  0.0584 -1.7609 -2.0870
  124OSM   H18T13231   1.522   5.018   8.189  1.6435 -1.0555  0.2475
  124OSM   H18U13232   1.501   4.980   8.362  1.1662 -1.3569  0.0078
  124OSM    C1F13233   1.191   5.555   6.823 -0.2660 -0.6055  1.1137
  124OSM     OF13234   1.072   5.533   6.803 -0.0281  0.0253 -0.2548
  124OSM    C2F13235   1.248   5.691   6.861  0.1879 -0.7327 -0.4092
  124OSM    H2F13236   1.188   5.773   6.816 -4.0045 -2.9529  0.6496
  124OSM    H2G13237   1.350   5.702   6.818  0.7972  0.2740  1.1838
  124OSM    C3F13238   1.248   5.695   7.017 -0.2322 -0.5851  0.6242
  124OSM    H3F13239   1.312   5.780   7.047  1.1655 -0.9053 -1.2834
  124OSM    H3G13240   1.302   5.609   7.062  0.9947  0.3329  0.9701
  124OSM    C4F13241   1.109   5.700   7.079  0.3415 -0.1497 -0.5078
  124OSM    H4F13242   1.057   5.604   7.062 -0.1156 -0.0736  0.3903
  124OSM    H4G13243   1.053   5.783   7.029  0.4081  0.4875  0.4436
  124OSM    C5F13244   1.117   5.738   7.233 -0.0022 -0.8121  0.0636
  124OSM    H5F13245   1.178   5.830   7.230 -2.0802  0.6175  0.0623
  124OSM    H5G13246   1.166   5.654   7.288 -1.7142 -1.5294  0.5746
  124OSM    C6F13247   0.977   5.760   7.290  1.2522  0.1941  0.8069
  124OSM    H6F13248   0.916   5.698   7.220  0.2220  2.0011  0.0333
  124OSM    H6G13249   0.934   5.857   7.260  2.4696  0.7495  0.8078
  124OSM    C7F13250   0.967   5.753   7.437  0.4594  0.3539 -0.7159
  124OSM    H7F13251   0.972   5.648   7.472  0.1376 -0.1543 -2.1338
  124OSM    H7G13252   0.870   5.795   7.473  0.4670 -0.7237  0.6693
  124OSM    C8F13253   1.079   5.833   7.512 -0.1304 -0.1672  0.2781
  124OSM    H8F13254   1.095   5.924   7.451 -0.6931 -0.5459 -0.4526
  124OSM    H8G13255   1.176   5.779   7.515  0.1665  0.3213 -0.3084
  124OSM    C9F13256   1.033   5.887   7.641  0.3723  0.5150  0.2428
  124OSM    H9F13257   1.012   5.995   7.644 -1.8991  0.3964 -3.6530
  124OSM   C10F13258   1.031   5.810   7.755 -0.0462 -1.2083  0.4827
  124OSM   H10F13259   1.004   5.853   7.853 -0.2099 -2.2274  0.8960
  124OSM   C11F13260   1.064   5.668   7.769  0.2178 -0.2727  0.1205
  124OSM   H11F13261   1.131   5.632   7.688  0.3427 -2.2975  1.0599
  124OSM   H11G13262   0.972   5.606   7.771  0.9035 -1.3405 -0.3454
  124OSM   C12F13263   1.137   5.639   7.899 -0.0626 -0.5857  0.4083
  124OSM   H12F13264   1.131   5.529   7.913  2.0283 -1.0266 -1.5644
  124OSM   H12G13265   1.092   5.696   7.983  2.7532  1.3155  0.7614
  124OSM   C13F13266   1.285   5.678   7.886 -0.0549  0.4560  0.1610
  124OSM   H13F13267   1.304   5.782   7.852  2.2388  0.5258  1.4597
  124OSM   H13G13268   1.329   5.617   7.804 -1.9743 -1.8066  0.6943
  124OSM   C14F13269   1.365   5.644   8.012  0.7088 -0.4178 -0.4205
  124OSM   H14F13270   1.474   5.632   7.992  0.4737 -0.3856 -1.8369
  124OSM   H14G13271   1.333   5.546   8.054  1.3323 -0.5291 -0.1958
  124OSM   C15F13272   1.360   5.751   8.115  0.0791 -0.1415 -0.1751
  124OSM   H15F13273   1.257   5.792   8.123  0.4172  0.3378  2.5532
  124OSM   H15G13274   1.417   5.843   8.089  0.8918 -0.1478  1.4688
  124OSM   C16F13275   1.399   5.699   8.249 -0.1412  0.4811 -0.1059
  124OSM   H16F13276   1.505   5.669   8.240  0.1275  0.8554  1.6050
  124OSM   H16G13277   1.336   5.613   8.282 -0.0728  1.7355  3.7279
  124OSM   C17F13278   1.414   5.795   8.359 -0.1148 -0.1872 -0.0597
  124OSM   H17F13279   1.492   5.869   8.330 -0.0764 -0.8813 -1.8797
  124OSM   H17G13280   1.443   5.735   8.447 -0.0633 -1.9103 -1.2140
  124OSM   C18F13281   1.290   5.870   8.408 -0.2075  0.3791  0.1171
  124OSM   H18F13282   1.220   5.792   8.445 -0.2948 -0.3286 -1.4205
  124OSM   H18G13283   1.253   5.917   8.314  3.9491  1.4215 -1.2266
  124OSM   H18H13284   1.313   5.943   8.488 -1.2385  2.3754 -1.3067
  125OSM      N13285   0.528   6.760   5.889  0.1084  0.2252 -0.1877
  125OSM    C1513286   0.634   6.853   5.845 -0.0654  0.4939 -0.0948
  125OSM   H15A13287   0.674   6.907   5.929 -0.6119  1.2056 -0.2779
  125OSM   H15B13288   0.585   6.912   5.768  0.9285 -0.0195 -1.1372
  125OSM   H15C13289   0.722   6.803   5.808  1.0870  1.1645  1.6069
  125OSM    C1413290   0.403   6.835   5.933 -0.1474 -0.4318  0.7584
  125OSM   H14A13291   0.347   6.880   5.853  0.4731 -1.6786 -0.4326
  125OSM   H14B13292   0.416   6.910   6.010  0.9816  1.1088 -0.8561
  125OSM   H14C13293   0.344   6.769   5.995  0.0466  0.1800  1.6021
  125OSM    C1313294   0.492   6.675   5.773 -0.1280 -0.0613  0.0098
  125OSM   H13A13295   0.402   6.617   5.789 -1.7715  2.1884 -0.5490
  125OSM   H13B13296   0.581   6.615   5.765  0.4397  0.1134  3.3735
  125OSM   H13C13297   0.475   6.739   5.688 -0.8077  0.8469  0.8021
  125OSM    C1213298   0.578   6.672   6.002 -0.1781 -0.2220  0.2567
  125OSM   H12A13299   0.673   6.628   5.976 -0.1387  0.4212 -0.7300
  125OSM   H12B13300   0.507   6.591   6.010 -2.9141  2.0230  0.1213
  125OSM    C1113301   0.574   6.733   6.145 -0.1453  0.4425 -0.1150
  125OSM   H11A13302   0.584   6.648   6.216  0.5651  2.4462  2.2997
  125OSM   H11B13303   0.468   6.763   6.160 -0.5429 -1.6370  1.6486
  125OSM      P13304   0.822   6.812   6.192 -0.2385 -0.4431 -0.1506
  125OSM    O1313305   0.858   6.683   6.140 -0.1887 -0.6909 -0.2489
  125OSM    O1413306   0.889   6.924   6.130 -0.0913 -0.2778  0.0139
  125OSM    O1113307   0.829   6.817   6.347  0.4949  0.7591 -0.2268
  125OSM    O1213308   0.666   6.838   6.171  0.7328  0.6535 -0.4249
  125OSM    C1S13309   0.792   6.697   6.417  0.7071 -0.0781  0.5317
  125OSM    H1S13310   0.859   6.610   6.398  2.3861  1.1775  0.5001
  125OSM    H1T13311   0.689   6.663   6.394  0.6421  0.2535  0.3233
  125OSM     NF13312   0.786   6.635   6.653  0.2458 -1.0558  0.2636
  125OSM    HNF13313   0.721   6.650   6.727  1.3601 -0.6277  1.1862
  125OSM    C2S13314   0.798   6.743   6.562  0.4195  0.3921 -0.0217
  125OSM    H2S13315   0.900   6.787   6.572  1.2389 -1.7806  2.7038
  125OSM    C3S13316   0.689   6.858   6.588  0.1364  0.8128 -0.4419
  125OSM    H3S13317   0.601   6.796   6.562 -0.1674  1.4967 -1.0954
  125OSM     O313318   0.678   6.966   6.499  0.2930 -0.4626  0.3340
  125OSM    HO313319   0.721   6.939   6.418  1.2716 -1.4623  1.1551
  125OSM    C4S13320   0.682   6.913   6.729 -0.4438 -0.2231 -0.0458
  125OSM    H4S13321   0.777   6.948   6.774 -1.0732  1.4996  0.0243
  125OSM    C5S13322   0.575   6.923   6.813 -0.1067  0.0452 -0.3650
  125OSM    H5S13323   0.481   6.874   6.785 -0.5423  0.4866  0.3079
  125OSM    C6S13324   0.581   6.972   6.953 -0.3412  0.5403 -0.1073
  125OSM    H6S13325   0.488   7.030   6.971  0.1964  1.3547  0.1002
  125OSM    H6T13326   0.666   7.039   6.978 -0.2184  0.3393  0.0128
  125OSM    C7S13327   0.595   6.863   7.060  0.3526  0.1255  0.1946
  125OSM    H7S13328   0.667   6.783   7.030 -1.8028 -0.6955 -3.2947
  125OSM    H7T13329   0.502   6.802   7.061  1.0838 -1.1431 -1.9610
  125OSM    C8S13330   0.608   6.933   7.195 -0.1861  0.1027  0.1527
  125OSM    H8S13331   0.521   6.999   7.216 -0.7062 -0.7061  0.6288
  125OSM    H8T13332   0.701   6.994   7.201  0.6064 -1.0376 -0.1736
  125OSM    C9S13333   0.611   6.842   7.319 -0.7770  0.4179  0.6112
  125OSM    H9S13334   0.698   6.774   7.310 -1.4554 -0.3017 -0.7909
  125OSM    H9T13335   0.529   6.769   7.305 -0.4987  0.6305 -3.1679
  125OSM   C10S13336   0.601   6.906   7.456  0.1156 -0.2090 -0.2775
  125OSM   H10S13337   0.503   6.957   7.464 -0.1025 -0.7058  0.3745
  125OSM   H10T13338   0.675   6.989   7.454 -1.5991  1.4005 -3.0998
  125OSM   C11S13339   0.619   6.806   7.572 -0.6444 -0.2268 -0.1832
  125OSM   H11S13340   0.686   6.722   7.543 -1.7225 -1.2083  0.0788
  125OSM   H11T13341   0.521   6.754   7.576  0.5171 -2.4321  1.1453
  125OSM   C12S13342   0.660   6.872   7.707  0.0323  0.0189  0.0567
  125OSM   H12S13343   0.593   6.957   7.731 -0.8838 -0.8570  0.6984
  125OSM   H12T13344   0.761   6.918   7.708 -0.0478  0.2146  1.8197
  125OSM   C13S13345   0.666   6.771   7.831  0.3520 -0.3773  0.1368
  125OSM   H13S13346   0.761   6.713   7.824  0.8634  0.0727  2.5604
  125OSM   H13T13347   0.577   6.705   7.823 -1.0143  0.9751  2.8616
  125OSM   C14S13348   0.654   6.857   7.962  0.1456 -0.2282  0.2337
  125OSM   H14S13349   0.556   6.909   7.967 -1.0391 -2.3628  0.8013
  125OSM   H14T13350   0.739   6.928   7.958 -1.0536  1.2706  0.5231
  125OSM   C15S13351   0.662   6.771   8.091  0.1656 -0.1935  0.0710
  125OSM   H15S13352   0.681   6.838   8.179 -1.4309  0.7429 -0.2512
  125OSM   H15T13353   0.744   6.697   8.081  1.3068  1.1536 -1.0224
  125OSM   C16S13354   0.529   6.698   8.110 -0.3190 -0.1484  0.4886
  125OSM   H16S13355   0.517   6.621   8.031  0.1567  1.0727 -0.8044
  125OSM   H16T13356   0.453   6.777   8.093 -1.8749 -1.6733 -0.0239
  125OSM   C17S13357   0.520   6.636   8.244  0.5414 -0.0437  0.2101
  125OSM   H17S13358   0.416   6.601   8.254  0.2604  0.3784 -1.0155
  125OSM   H17T13359   0.555   6.709   8.320  4.9956 -0.7704 -0.8634
  125OSM   C18S13360   0.607   6.517   8.277  0.2116 -0.2687 -0.4022
  125OSM   H18S13361   0.616   6.451   8.188  0.3278  0.1393 -0.6962
  125OSM   H18T13362   0.554   6.472   8.364  0.3241  1.6788  0.7206
  125OSM   H18U13363   0.710   6.553   8.299 -0.2960  0.4414  0.8995
  125OSM    C1F13364   0.863   6.524   6.657 -0.0774 -0.2132  0.1270
  125OSM     OF13365   0.966   6.513   6.589  0.7259  0.5954 -0.2506
  125OSM    C2F13366   0.826   6.400   6.745 -0.1509 -0.0866 -0.4829
  125OSM    H2F13367   0.752   6.338   6.690 -0.3997 -0.8341  0.6684
  125OSM    H2G13368   0.765   6.440   6.829 -0.0302  1.5440 -1.1278
  125OSM    C3F13369   0.953   6.324   6.792  0.4291  0.5739  0.0901
  125OSM    H3F13370   1.031   6.396   6.825  0.9223 -0.1188  0.4423
  125OSM    H3G13371   0.999   6.269   6.708  1.1112  1.8809 -0.4303
  125OSM    C4F13372   0.934   6.229   6.918  0.3542  0.1376  0.0358
  125OSM    H4F13373   0.856   6.158   6.883  2.4471 -1.8292 -0.9269
  125OSM    H4G13374   0.899   6.286   7.008  1.5145 -0.1300  0.6729
  125OSM    C5F13375   1.060   6.153   6.958  0.0873  0.0301 -0.4070
  125OSM    H5F13376   1.109   6.096   6.876 -0.2856 -2.4386  1.0008
  125OSM    H5G13377   1.034   6.082   7.038  0.4030  1.4362  0.9873
  125OSM    C6F13378   1.173   6.225   7.031  0.1494  0.2878  0.3207
  125OSM    H6F13379   1.139   6.284   7.119 -2.3429  0.2661 -0.5578
  125OSM    H6G13380   1.222   6.307   6.973  0.1497  1.3994  1.8202
  125OSM    C7F13381   1.278   6.116   7.062  0.7366 -0.4358 -0.7949
  125OSM    H7F13382   1.299   6.064   6.966 -1.8197  0.2955 -1.8170
  125OSM    H7G13383   1.238   6.047   7.139  0.5071  1.0883  0.5089
  125OSM    C8F13384   1.417   6.175   7.119 -0.0399 -0.1339 -0.5944
  125OSM    H8F13385   1.474   6.219   7.034  1.2213  0.7572  0.6622
  125OSM    H8G13386   1.474   6.085   7.149  2.1059  0.9837 -1.1008
  125OSM    C9F13387   1.404   6.278   7.232 -1.4012  0.8773  0.3203
  125OSM    H9F13388   1.424   6.381   7.198  0.4267  0.0368 -1.3563
  125OSM   C10F13389   1.368   6.260   7.357 -0.0342 -0.4650  0.8017
  125OSM   H10F13390   1.393   6.334   7.435  1.0520  0.6340 -0.5273
  125OSM   C11F13391   1.338   6.128   7.423  0.2266  0.5016  0.1442
  125OSM   H11F13392   1.341   6.042   7.352 -1.4443  0.8768 -0.4197
  125OSM   H11G13393   1.239   6.134   7.474  1.2777  1.6405  2.1731
  125OSM   C12F13394   1.440   6.091   7.541  0.6358 -1.0018  0.3764
  125OSM   H12F13395   1.542   6.064   7.506  0.5708  0.0170 -0.6494
  125OSM   H12G13396   1.401   6.000   7.592 -1.4084  0.0655  0.8374
  125OSM   C13F13397   1.453   6.184   7.664  0.1484 -0.2564 -0.1103
  125OSM   H13F13398   1.353   6.218   7.698  0.4084  1.5179 -0.9985
  125OSM   H13G13399   1.507   6.277   7.634  2.1974 -1.0667  0.9259
  125OSM   C14F13400   1.511   6.111   7.784  0.1892  0.1973 -0.1410
  125OSM   H14F13401   1.620   6.097   7.767  0.0842 -0.5230 -0.2703
  125OSM   H14G13402   1.462   6.013   7.804  0.6056 -0.1532 -0.7784
  125OSM   C15F13403   1.504   6.186   7.915  0.5617 -0.0590  0.1063
  125OSM   H15F13404   1.399   6.205   7.944  0.8148 -0.8633  1.6500
  125OSM   H15G13405   1.554   6.285   7.901  0.7963 -0.2053 -0.0941
  125OSM   C16F13406   1.586   6.112   8.034 -0.2202 -0.3801 -0.2316
  125OSM   H16F13407   1.692   6.104   8.000  0.2731  2.4869  0.3522
  125OSM   H16G13408   1.538   6.012   8.036 -0.4558 -0.2589  0.2137
  125OSM   C17F13409   1.580   6.187   8.163 -0.5354 -0.3193 -0.3331
  125OSM   H17F13410   1.642   6.135   8.239 -0.7566 -0.1498 -0.0359
  125OSM   H17G13411   1.474   6.187   8.196  0.3231  0.7822  2.7879
  125OSM   C18F13412   1.644   6.326   8.168 -0.4137 -0.4947  0.2856
  125OSM   H18F13413   1.754   6.318   8.156 -0.3074  0.5220  0.5290
  125OSM   H18G13414   1.605   6.379   8.257  1.1530  2.9948 -0.9070
  125OSM   H18H13415   1.613   6.377   8.074  0.8151  0.6127  0.4524
  126OSM      N13416   5.025   0.182   6.364  0.3231  0.3675 -0.0885
  126OSM    C1513417   5.093   0.057   6.313  0.1944 -0.2924 -0.0176
  126OSM   H15A13418   5.098  -0.019   6.389 -0.7929 -0.9185 -0.5640
  126OSM   H15B13419   5.196   0.083   6.292  0.2116  0.0433  0.4647
  126OSM   H15C13420   5.048   0.026   6.220 -2.9931  1.6954  0.7215
  126OSM    C1413421   5.102   0.214   6.490  0.6893 -0.1958  0.1147
  126OSM   H14A13422   5.113   0.122   6.544  1.4899 -0.9655 -1.3108
  126OSM   H14B13423   5.048   0.283   6.553 -0.2832  0.6047 -1.5056
  126OSM   H14C13424   5.200   0.258   6.477  0.0724  1.2892  0.1991
  126OSM    C1313425   5.037   0.290   6.267  0.5180  0.5715  0.0359
  126OSM   H13A13426   4.985   0.242   6.186  0.0587  0.1303  0.5828
  126OSM   H13B13427   5.140   0.319   6.250  0.4979 -0.2131 -1.5485
  126OSM   H13C13428   4.986   0.374   6.311 -1.3485 -1.3397  1.7754
  126OSM    C1213429   4.872   0.148   6.405 -0.3557 -0.7257  0.2845
  126OSM   H12A13430   4.814   0.122   6.317 -0.3501 -2.1128  0.6602
  126OSM   H12B13431   4.839   0.245   6.437 -0.4894  0.1935 -2.3847
  126OSM    C1113432   4.848   0.033   6.509  0.2823  0.0238 -0.2081
  126OSM   H11A13433   4.741   0.033   6.539  1.2149  1.1301  3.7507
  126OSM   H11B13434   4.901   0.059   6.604  1.2315 -0.7490 -0.5040
  126OSM      P13435   4.781  -0.179   6.384 -0.0377 -0.0487 -0.6826
  126OSM    O1313436   4.695  -0.082   6.317 -1.0969 -0.0230 -0.3893
  126OSM    O1413437   4.859  -0.266   6.297  1.0071  0.2370  0.1281
  126OSM    O1113438   4.705  -0.267   6.481  0.4874  0.1464 -0.1183
  126OSM    O1213439   4.888  -0.103   6.478 -0.3878  0.0220 -0.3827
  126OSM    C1S13440   4.770  -0.336   6.591  0.0781 -0.2701 -0.6647
  126OSM    H1S13441   4.880  -0.334   6.576 -0.2205  0.6590 -3.0844
  126OSM    H1T13442   4.721  -0.436   6.595 -0.1220 -0.1964 -1.2192
  126OSM     NF13443   4.826  -0.350   6.836  0.3921 -0.8158  0.4883
  126OSM    HNF13444   4.758  -0.396   6.893  0.1665  0.4529  1.2872
  126OSM    C2S13445   4.766  -0.262   6.732 -0.1078  0.0874  0.2177
  126OSM    H2S13446   4.815  -0.164   6.713 -1.7528  0.7322 -0.9208
  126OSM    C3S13447   4.617  -0.235   6.770  0.2303  0.1130 -0.6290
  126OSM    H3S13448   4.560  -0.330   6.767 -1.2482  0.8532 -5.2276
  126OSM     O313449   4.539  -0.165   6.677  0.4232 -0.4167  0.2137
  126OSM    HO313450   4.582  -0.176   6.592 -0.3370  2.1543 -0.5891
  126OSM    C4S13451   4.613  -0.162   6.903 -0.2629 -0.4842 -0.0682
  126OSM    H4S13452   4.685  -0.080   6.913 -0.1071 -0.7647  1.2885
  126OSM    C5S13453   4.552  -0.202   7.020  0.1948 -0.8308 -0.5116
  126OSM    H5S13454   4.496  -0.297   7.021 -3.2921  1.0003 -2.1688
  126OSM    C6S13455   4.545  -0.122   7.146  0.2493 -0.3094  0.9943
  126OSM    H6S13456   4.435  -0.111   7.161  0.0785 -0.7357  0.1072
  126OSM    H6T13457   4.589  -0.020   7.141 -0.3359  0.0457  2.4701
  126OSM    C7S13458   4.602  -0.201   7.267  0.3975 -0.6351  0.7688
  126OSM    H7S13459   4.711  -0.216   7.250 -0.1790 -1.3480 -3.0283
  126OSM    H7T13460   4.545  -0.295   7.279  0.8455 -0.6736  3.2052
  126OSM    C8S13461   4.593  -0.110   7.397  0.1492  0.4003  0.3403
  126OSM    H8S13462   4.654  -0.021   7.369  1.7077 -0.8899 -0.5944
  126OSM    H8T13463   4.639  -0.169   7.479  1.0219  0.0447 -0.3848
  126OSM    C9S13464   4.453  -0.061   7.451  0.7561  0.1602  1.1571
  126OSM    H9S13465   4.390  -0.148   7.422  1.2661  1.0009 -3.1824
  126OSM    H9T13466   4.418   0.018   7.380 -0.4290  1.3721  2.9994
  126OSM   C10S13467   4.444  -0.024   7.592 -0.1340 -0.5630 -0.5790
  126OSM   H10S13468   4.524   0.052   7.608 -0.7786  0.2139 -0.9827
  126OSM   H10T13469   4.470  -0.119   7.643 -0.0085 -0.0481  0.3356
  126OSM   C11S13470   4.311   0.021   7.655 -0.2857  0.0753 -0.4541
  126OSM   H11S13471   4.255  -0.069   7.688 -1.7741  1.7861  2.0625
  126OSM   H11T13472   4.245   0.081   7.588 -1.2859  0.0824  0.5012
  126OSM   C12S13473   4.343   0.098   7.785 -0.5748  0.3650 -0.3844
  126OSM   H12S13474   4.404   0.190   7.771  0.7718 -0.3430  0.5690
  126OSM   H12T13475   4.409   0.031   7.844  2.1106  1.3406 -2.1113
  126OSM   C13S13476   4.224   0.110   7.876 -0.0462 -0.0915  0.0051
  126OSM   H13S13477   4.156   0.022   7.876 -2.8976  1.9710 -0.2417
  126OSM   H13T13478   4.165   0.197   7.838 -0.6967 -1.2521 -1.7747
  126OSM   C14S13479   4.257   0.150   8.022  0.3277  0.1336 -0.9934
  126OSM   H14S13480   4.311   0.246   8.034  1.8467 -0.8089  0.2301
  126OSM   H14T13481   4.322   0.073   8.070  0.8857  1.5717  0.6510
  126OSM   C15S13482   4.126   0.157   8.098  0.1610  0.0923 -0.0321
  126OSM   H15S13483   4.069   0.065   8.073  1.3331 -0.3704 -1.0894
  126OSM   H15T13484   4.068   0.241   8.054 -0.0896 -0.4141 -0.6777
  126OSM   C16S13485   4.136   0.172   8.245  0.2731  0.2771 -0.0426
  126OSM   H16S13486   4.027   0.179   8.265 -0.6758 -3.9402 -2.6550
  126OSM   H16T13487   4.182   0.266   8.284  1.7041 -0.6678  0.6320
  126OSM   C17S13488   4.205   0.061   8.325 -0.2470 -0.0517  0.0920
  126OSM   H17S13489   4.314   0.065   8.310 -0.4223  0.3602 -1.1448
  126OSM   H17T13490   4.179  -0.038   8.282  0.6660 -0.3545  0.2239
  126OSM   C18S13491   4.187   0.064   8.477  0.0974  0.0701  0.6875
  126OSM   H18S13492   4.201  -0.042   8.508  0.9184  0.1926  0.7454
  126OSM   H18T13493   4.092   0.106   8.517 -0.2665  1.1834 -1.2118
  126OSM   H18U13494   4.267   0.120   8.529 -1.5568  2.6337  0.6547
  126OSM    C1F13495   4.958  -0.363   6.844 -0.9223  0.3390  0.6155
  126OSM     OF13496   5.031  -0.275   6.794 -0.1242  0.1656  0.1169
  126OSM    C2F13497   5.013  -0.486   6.905  0.1673  0.4495  0.7151
  126OSM    H2F13498   5.118  -0.461   6.930  0.8074 -0.1437 -1.2054
  126OSM    H2G13499   5.003  -0.573   6.836 -2.6795  1.7301 -0.6609
  126OSM    C3F13500   4.947  -0.520   7.040  0.2832  0.4941  0.7181
  126OSM    H3F13501   5.020  -0.596   7.075 -1.7958 -2.6076 -1.2291
  126OSM    H3G13502   4.852  -0.574   7.023  1.4421 -1.5172  0.3448
  126OSM    C4F13503   4.938  -0.411   7.143  0.1666  0.4499  0.0530
  126OSM    H4F13504   4.883  -0.321   7.108 -1.1066  0.3364  1.6689
  126OSM    H4G13505   5.044  -0.385   7.163  1.2901 -2.0416 -2.0529
  126OSM    C5F13506   4.870  -0.478   7.264 -0.6323 -0.0057  0.3863
  126OSM    H5F13507   4.909  -0.581   7.279 -3.4341 -1.0297  1.1800
  126OSM    H5G13508   4.765  -0.474   7.229  0.3363  1.3357 -2.7137
  126OSM    C6F13509   4.907  -0.393   7.386  0.0886  0.7831  0.1596
  126OSM    H6F13510   4.911  -0.287   7.356 -1.3208  0.2723 -2.1340
  126OSM    H6G13511   5.011  -0.422   7.412 -0.4890 -0.6919  0.9658
  126OSM    C7F13512   4.817  -0.423   7.504  0.2733  0.0234 -0.0021
  126OSM    H7F13513   4.819  -0.530   7.535  0.4072 -0.6015 -2.0475
  126OSM    H7G13514   4.712  -0.398   7.480  0.2077  0.2689  0.5081
  126OSM    C8F13515   4.840  -0.340   7.631 -0.0037 -0.2266 -0.1319
  126OSM    H8F13516   4.762  -0.371   7.704 -1.0412 -1.4114 -1.6750
  126OSM    H8G13517   4.828  -0.233   7.606 -1.7480 -0.7663 -1.8163
  126OSM    C9F13518   4.971  -0.371   7.691 -0.3458 -0.4996 -0.3982
  126OSM    H9F13519   5.051  -0.326   7.631 -1.5342 -0.3085 -1.9158
  126OSM   C10F13520   4.997  -0.431   7.810 -0.5654  0.0169  0.3892
  126OSM   H10F13521   5.100  -0.455   7.841  0.2834 -0.7769 -2.7040
  126OSM   C11F13522   4.900  -0.476   7.912  0.7872 -0.0228 -0.2505
  126OSM   H11F13523   4.931  -0.557   7.980 -0.3612  0.2080  0.5795
  126OSM   H11G13524   4.827  -0.531   7.849  1.0655 -2.3546  1.3647
  126OSM   C12F13525   4.827  -0.370   7.997 -0.2425 -0.3098  0.1453
  126OSM   H12F13526   4.779  -0.301   7.924 -1.9533  0.5194  1.9562
  126OSM   H12G13527   4.910  -0.315   8.046  1.0484 -0.1069 -2.1363
  126OSM   C13F13528   4.736  -0.427   8.097 -0.1726 -0.3575  0.3891
  126OSM   H13F13529   4.801  -0.487   8.164 -0.6159 -0.4704  0.7234
  126OSM   H13G13530   4.657  -0.489   8.049  0.2083 -1.4009  1.0743
  126OSM   C14F13531   4.666  -0.312   8.174  0.1840  0.0869  0.0422
  126OSM   H14F13532   4.610  -0.248   8.102 -0.6164  0.5481  1.0516
  126OSM   H14G13533   4.754  -0.252   8.207  1.3272 -0.4207 -1.8812
  126OSM   C15F13534   4.583  -0.366   8.295 -0.0232 -0.1264 -0.1869
  126OSM   H15F13535   4.498  -0.423   8.251 -1.2402  0.2666  1.5486
  126OSM   H15G13536   4.542  -0.276   8.345 -0.4408  0.1532 -1.0102
  126OSM   C16F13537   4.664  -0.453   8.392 -0.4825  0.0191 -0.8813
  126OSM   H16F13538   4.713  -0.538   8.341  0.8347  1.5490 -2.3021
  126OSM   H16G13539   4.587  -0.495   8.460 -1.0627  0.9019 -0.9714
  126OSM   C17F13540   4.769  -0.373   8.465 -1.5814 -0.3254  0.2206
  126OSM   H17F13541   4.721  -0.274   8.480 -0.7113  0.3447 -1.1980
  126OSM   H17G13542   4.873  -0.363   8.426 -1.1434  0.2445  1.4935
  126OSM   C18F13543   4.789  -0.417   8.607  0.2839  0.1869  0.1007
  126OSM   H18F13544   4.693  -0.424   8.662 -0.3409 -1.4133 -1.1151
  126OSM   H18G13545   4.865  -0.357   8.663 -0.8123 -0.1282  2.0102
  126OSM   H18H13546   4.823  -0.523   8.601  0.3682  0.2751 -1.1393
  127OSM      N13547   0.576   3.847   6.062  0.5827 -0.1820  0.8429
  127OSM    C1513548   0.514   3.721   6.005  0.2719 -0.2483  0.1402
  127OSM   H15A13549   0.586   3.674   5.941  0.4970 -1.8866  1.5186
  127OSM   H15B13550   0.426   3.744   5.947  1.9612  1.6815 -1.8017
  127OSM   H15C13551   0.489   3.654   6.087 -0.1264 -0.2065  0.0550
  127OSM    C1413552   0.709   3.815   6.122  0.0285 -0.4268  0.8011
  127OSM   H14A13553   0.774   3.749   6.066  1.1930  1.5102 -0.2351
  127OSM   H14B13554   0.697   3.745   6.204 -0.7922  0.8260  1.7998
  127OSM   H14C13555   0.761   3.899   6.165  2.8638 -2.2563  1.2433
  127OSM    C1313556   0.616   3.948   5.954 -0.9822 -0.1305  0.5877
  127OSM   H13A13557   0.693   3.898   5.897 -1.1758 -3.3733  2.8713
  127OSM   H13B13558   0.670   4.035   5.989 -3.1944  1.9544 -0.8137
  127OSM   H13C13559   0.544   3.988   5.884  1.5386  3.2527 -0.3383
  127OSM    C1213560   0.484   3.928   6.155  0.4542 -0.0364 -0.0510
  127OSM   H12A13561   0.393   3.939   6.099 -1.3698  1.7915  3.0112
  127OSM   H12B13562   0.525   4.025   6.182 -1.3863  0.3670  1.4908
  127OSM    C1113563   0.447   3.862   6.291 -0.9401 -0.5397 -0.8263
  127OSM   H11A13564   0.387   3.930   6.354  1.3365  0.2626  0.5903
  127OSM   H11B13565   0.540   3.843   6.348 -0.8201  0.9222 -0.5148
  127OSM      P13566   0.223   3.752   6.209  0.3358  0.4751 -0.1928
  127OSM    O1313567   0.214   3.845   6.091  0.3931  0.0166  0.2729
  127OSM    O1413568   0.170   3.613   6.190  0.1872 -0.1135  0.2894
  127OSM    O1113569   0.147   3.819   6.326 -0.9129  0.1335  0.0271
  127OSM    O1213570   0.374   3.739   6.261 -0.4408  0.1040  0.9125
  127OSM    C1S13571   0.136   3.782   6.460 -0.3833  0.1474 -0.2264
  127OSM    H1S13572   0.230   3.808   6.513  0.7285 -1.6095 -1.2286
  127OSM    H1T13573   0.127   3.671   6.462  1.4499 -0.0087  1.1587
  127OSM     NF13574   0.016   3.807   6.664  0.6238  0.1835  0.1296
  127OSM    HNF13575  -0.026   3.717   6.669  2.3921 -0.7702 -0.9845
  127OSM    C2S13576   0.017   3.854   6.526  0.0537 -1.0182  0.2504
  127OSM    H2S13577   0.038   3.963   6.519 -0.4098 -0.9444 -0.0533
  127OSM    C3S13578  -0.120   3.833   6.455  0.9158  0.3027 -0.6713
  127OSM    H3S13579  -0.137   3.723   6.455  0.3513  0.3757 -2.1325
  127OSM     O313580  -0.132   3.875   6.323 -0.0248 -0.4374  0.1136
  127OSM    HO313581  -0.042   3.903   6.303 -0.5850  0.5714 -1.1476
  127OSM    C4S13582  -0.234   3.903   6.532 -0.1016 -0.1154  0.4090
  127OSM    H4S13583  -0.268   4.001   6.494  0.2116 -0.7205 -1.5420
  127OSM    C5S13584  -0.303   3.849   6.640 -0.8479 -0.0816 -1.1186
  127OSM    H5S13585  -0.274   3.758   6.696 -1.6637  1.9736  3.0270
  127OSM    C6S13586  -0.419   3.921   6.695  0.1402 -0.3274  0.4944
  127OSM    H6S13587  -0.511   3.875   6.653 -0.1969  1.1209 -0.4306
  127OSM    H6T13588  -0.428   4.013   6.633 -0.8215 -1.1587 -0.6685
  127OSM    C7S13589  -0.420   3.939   6.847  0.2708  0.3112  0.6914
  127OSM    H7S13590  -0.425   3.837   6.891  1.6717  0.4263  1.1515
  127OSM    H7T13591  -0.512   3.995   6.876  0.3170  1.0635 -0.5236
  127OSM    C8S13592  -0.304   4.008   6.914  1.0601 -0.7647 -0.0482
  127OSM    H8S13593  -0.306   4.117   6.890  0.5460 -0.4368  1.3434
  127OSM    H8T13594  -0.204   3.993   6.868  1.0610  2.3159 -1.3255
  127OSM    C9S13595  -0.304   3.985   7.068  0.1295  0.0411 -0.1149
  127OSM    H9S13596  -0.275   3.881   7.093  1.9665  1.0077  2.2045
  127OSM    H9T13597  -0.392   4.011   7.131  1.7995  1.1211  1.9296
  127OSM   C10S13598  -0.197   4.073   7.134 -0.4323  0.3326  1.0490
  127OSM   H10S13599  -0.221   4.177   7.105 -0.8120  0.6582  2.4623
  127OSM   H10T13600  -0.104   4.038   7.084 -0.6692  1.0023  0.1152
  127OSM   C11S13601  -0.187   4.052   7.284  0.6032 -0.1559 -0.4796
  127OSM   H11S13602  -0.181   3.945   7.314 -3.1420 -0.2969  0.3568
  127OSM   H11T13603  -0.281   4.096   7.326  0.3340 -0.9067 -0.2895
  127OSM   C12S13604  -0.072   4.125   7.352  0.1593 -0.3900  0.4300
  127OSM   H12S13605  -0.078   4.224   7.302 -0.0962  0.0937  1.3836
  127OSM   H12T13606   0.021   4.076   7.315 -0.3812 -0.0265 -1.5043
  127OSM   C13S13607  -0.082   4.133   7.507  0.0941  0.1091  0.5234
  127OSM   H13S13608  -0.106   4.035   7.552 -0.2426  0.7658  1.8040
  127OSM   H13T13609  -0.180   4.177   7.535 -1.2258 -1.8137 -0.8163
  127OSM   C14S13610   0.048   4.200   7.561 -0.0052  0.1439 -0.1248
  127OSM   H14S13611   0.035   4.310   7.573  0.7547  0.0997  1.4239
  127OSM   H14T13612   0.123   4.200   7.479  0.4391  2.3015  0.2157
  127OSM   C15S13613   0.086   4.134   7.693  0.5969 -0.3079 -0.5727
  127OSM   H15S13614   0.120   4.030   7.677 -0.1942 -1.1814  2.6966
  127OSM   H15T13615   0.002   4.124   7.765 -0.2187  1.4372 -1.2300
  127OSM   C16S13616   0.193   4.216   7.762 -0.1100  0.4588 -0.4504
  127OSM   H16S13617   0.160   4.322   7.758 -1.8696  0.0432  1.3963
  127OSM   H16T13618   0.287   4.216   7.703 -0.7413  0.4988 -1.4754
  127OSM   C17S13619   0.221   4.151   7.896 -0.2656  0.2585  0.0527
  127OSM   H17S13620   0.270   4.054   7.873 -1.2441  0.0522 -1.3165
  127OSM   H17T13621   0.123   4.129   7.945  0.8973 -1.4893  1.7447
  127OSM   C18S13622   0.292   4.234   7.995  0.2022 -0.7428 -0.1347
  127OSM   H18S13623   0.241   4.333   8.002 -0.6355 -0.7338 -4.0180
  127OSM   H18T13624   0.390   4.261   7.952  1.8816 -1.6046  2.9148
  127OSM   H18U13625   0.309   4.180   8.091 -1.1238  0.8885  1.0751
  127OSM    C1F13626   0.102   3.844   6.755  0.1629  0.1897  0.1965
  127OSM     OF13627   0.142   3.959   6.760  0.1165  0.8392  0.3097
  127OSM    C2F13628   0.139   3.748   6.863 -0.1922 -0.1009 -0.5785
  127OSM    H2F13629   0.242   3.706   6.854  1.0021  2.9073 -2.7601
  127OSM    H2G13630   0.068   3.663   6.850 -0.7725  0.0900  1.0634
  127OSM    C3F13631   0.104   3.792   7.008 -0.5844  0.0982  0.2724
  127OSM    H3F13632  -0.006   3.802   7.022 -0.8342 -0.7619 -0.8801
  127OSM    H3G13633   0.155   3.887   7.036  0.7835 -0.1655 -1.2030
  127OSM    C4F13634   0.157   3.705   7.128  0.2211 -0.2125 -0.4244
  127OSM    H4F13635   0.266   3.708   7.107 -0.1684  0.3911 -2.5868
  127OSM    H4G13636   0.127   3.598   7.126 -0.2587 -0.1150  0.9738
  127OSM    C5F13637   0.124   3.766   7.263 -0.3833 -0.0612 -0.4384
  127OSM    H5F13638   0.021   3.806   7.264 -0.2506  0.2795 -0.1554
  127OSM    H5G13639   0.200   3.846   7.272  1.9892 -2.3145  1.1090
  127OSM    C6F13640   0.142   3.672   7.385 -0.2544 -0.0262  0.4500
  127OSM    H6F13641   0.243   3.627   7.384 -0.7054 -1.1207 -1.2627
  127OSM    H6G13642   0.063   3.594   7.374 -1.6886  1.1543  1.9182
  127OSM    C7F13643   0.116   3.738   7.519 -0.5576  0.9148  0.0427
  127OSM    H7F13644   0.020   3.793   7.524  0.1048  2.3498 -1.7988
  127OSM    H7G13645   0.192   3.816   7.543 -0.7914  1.8523 -2.0443
  127OSM    C8F13646   0.110   3.632   7.636  0.0222 -0.2866  0.3951
  127OSM    H8F13647   0.207   3.578   7.642  0.9870  1.3875  0.7507
  127OSM    H8G13648   0.024   3.567   7.612 -0.6212  1.1870 -1.5414
  127OSM    C9F13649   0.086   3.711   7.763 -0.0824  0.0478  0.8717
  127OSM    H9F13650  -0.009   3.767   7.765  0.1063  0.3826  0.6578
  127OSM   C10F13651   0.167   3.739   7.860  0.5380  0.6320  0.1258
  127OSM   H10F13652   0.130   3.793   7.948  1.1189  2.1348 -0.5173
  127OSM   C11F13653   0.302   3.682   7.880  0.1149 -0.2541 -0.0795
  127OSM   H11F13654   0.346   3.700   7.780 -0.5906 -4.1558 -1.2603
  127OSM   H11G13655   0.298   3.571   7.885 -2.2484 -0.3013 -1.5070
  127OSM   C12F13656   0.379   3.753   8.000 -0.3761  0.0113 -0.2723
  127OSM   H12F13657   0.358   3.860   7.984 -1.3196  0.0060  0.8064
  127OSM   H12G13658   0.488   3.743   7.978 -0.4783  1.9206 -1.8682
  127OSM   C13F13659   0.337   3.710   8.139 -0.2613  0.1357 -0.4977
  127OSM   H13F13660   0.231   3.682   8.126  0.0723 -1.0335 -0.8405
  127OSM   H13G13661   0.356   3.795   8.208 -0.5146 -0.3533  0.1813
  127OSM   C14F13662   0.432   3.594   8.191 -0.2904 -0.1053  0.5172
  127OSM   H14F13663   0.539   3.622   8.193  0.1490 -1.6974  1.2620
  127OSM   H14G13664   0.426   3.505   8.124  1.4030  1.1583 -1.4248
  127OSM   C15F13665   0.394   3.555   8.331 -0.6160  0.8746 -0.1719
  127OSM   H15F13666   0.402   3.641   8.401  0.4292  0.7030 -0.0679
  127OSM   H15G13667   0.469   3.479   8.363 -0.8597  0.0210 -1.5518
  127OSM   C16F13668   0.253   3.485   8.345 -0.0674 -0.3012  0.1816
  127OSM   H16F13669   0.240   3.398   8.277 -0.2085 -0.3674  0.2944
  127OSM   H16G13670   0.171   3.552   8.309 -0.6722 -1.5355 -0.7981
  127OSM   C17F13671   0.242   3.432   8.483 -0.4968  0.2729  0.3502
  127OSM   H17F13672   0.326   3.377   8.531  0.8438  0.6705 -1.4627
  127OSM   H17G13673   0.157   3.361   8.486 -2.0469  2.0543  0.6446
  127OSM   C18F13674   0.200   3.536   8.580 -0.3232 -0.6248 -0.5265
  127OSM   H18F13675   0.265   3.625   8.582  1.4231 -1.8285 -0.9218
  127OSM   H18G13676   0.211   3.487   8.679  2.6894  0.7593 -0.0852
  127OSM   H18H13677   0.098   3.580   8.575  0.3601  1.4890  2.0356
  128OSM      N13678   1.599   0.359   6.335 -0.8565  0.4055 -0.0948
  128OSM    C1513679   1.480   0.431   6.389 -0.3004  0.1691 -0.1066
  128OSM   H15A13680   1.436   0.364   6.462  1.0754 -2.1385 -1.2880
  128OSM   H15B13681   1.400   0.450   6.319 -2.0903 -1.5961  1.3330
  128OSM   H15C13682   1.502   0.527   6.433 -2.9210 -0.0855  2.0736
  128OSM    C1413683   1.671   0.284   6.437 -0.4025 -0.5154 -0.3411
  128OSM   H14A13684   1.690   0.354   6.518 -0.2271  0.7885 -1.4643
  128OSM   H14B13685   1.770   0.260   6.399 -0.3431  1.3099 -1.4535
  128OSM   H14C13686   1.632   0.190   6.471  1.5045 -1.0665  0.4871
  128OSM    C1313687   1.560   0.261   6.235 -0.2321  0.0908  0.1576
  128OSM   H13A13688   1.515   0.306   6.148 -1.7426 -0.4203  0.6481
  128OSM   H13B13689   1.487   0.198   6.284 -0.1814  0.1400  0.2965
  128OSM   H13C13690   1.641   0.191   6.219 -0.1743 -0.0021  0.8250
  128OSM    C1213691   1.693   0.460   6.275  1.0412 -0.5109  0.5549
  128OSM   H12A13692   1.644   0.521   6.200  0.7596 -0.3446  0.8772
  128OSM   H12B13693   1.779   0.408   6.235  0.6743 -0.9816  0.3749
  128OSM    C1113694   1.753   0.575   6.347 -0.2434  0.0813 -0.7578
  128OSM   H11A13695   1.814   0.541   6.434  0.6119 -2.9438 -2.3995
  128OSM   H11B13696   1.666   0.632   6.386 -0.7470 -0.4326 -1.0989
  128OSM      P13697   1.987   0.625   6.248 -0.0367 -0.0410  0.2134
  128OSM    O1313698   2.025   0.482   6.255 -0.0682 -0.1576  0.6512
  128OSM    O1413699   2.033   0.698   6.126  0.4625 -0.6043  0.5482
  128OSM    O1113700   2.043   0.696   6.379  0.2999 -0.4501 -0.3264
  128OSM    O1213701   1.838   0.641   6.255  0.0606  0.0401  0.1827
  128OSM    C1S13702   1.972   0.774   6.477 -0.5308 -0.6844  0.0590
  128OSM    H1S13703   1.865   0.788   6.450 -0.7852  0.2060  1.4139
  128OSM    H1T13704   2.020   0.874   6.476 -0.6970 -0.5183  2.5989
  128OSM     NF13705   1.914   0.831   6.713  0.1867 -0.0165 -0.0974
  128OSM    HNF13706   1.966   0.906   6.753 -1.5495  1.6866 -0.8738
  128OSM    C2S13707   1.989   0.737   6.625 -0.3601  0.2773  0.4128
  128OSM    H2S13708   1.955   0.632   6.637  1.3638 -0.0815  3.0457
  128OSM    C3S13709   2.141   0.730   6.661 -0.2300 -0.2301 -0.4912
  128OSM    H3S13710   2.176   0.836   6.656  0.6265 -0.2043  3.1733
  128OSM     O313711   2.232   0.659   6.572  0.2136 -0.5568 -0.3337
  128OSM    HO313712   2.181   0.642   6.492 -0.1755 -0.4212 -0.1151
  128OSM    C4S13713   2.166   0.676   6.800  0.0232 -0.0119  1.3496
  128OSM    H4S13714   2.168   0.755   6.876  1.3077  1.4475 -0.1283
  128OSM    C5S13715   2.183   0.543   6.830 -0.8094 -0.4542 -0.0829
  128OSM    H5S13716   2.174   0.460   6.758 -2.5775 -0.4820  0.1398
  128OSM    C6S13717   2.200   0.498   6.973  0.5424 -0.3868  0.2968
  128OSM    H6S13718   2.305   0.476   7.002 -0.1049  0.7555  4.0064
  128OSM    H6T13719   2.134   0.409   6.983  1.9845 -1.5612 -0.3276
  128OSM    C7S13720   2.157   0.600   7.077  0.0526  0.5929 -0.2632
  128OSM    H7S13721   2.054   0.635   7.053  0.1608  0.1831 -1.3653
  128OSM    H7T13722   2.213   0.695   7.074 -0.0509  0.7035  0.8549
  128OSM    C8S13723   2.164   0.531   7.220  0.2420 -0.2312 -0.1241
  128OSM    H8S13724   2.268   0.500   7.243  0.3962 -0.6780 -1.4044
  128OSM    H8T13725   2.110   0.436   7.200 -0.4719  0.9030 -4.5137
  128OSM    C9S13726   2.099   0.614   7.336 -0.4581 -0.2035 -0.1225
  128OSM    H9S13727   1.994   0.630   7.304 -0.3172  0.7956 -0.1346
  128OSM    H9T13728   2.146   0.713   7.355 -3.0154  1.3174 -1.2359
  128OSM   C10S13729   2.107   0.523   7.467  0.4996 -0.3480 -0.3962
  128OSM   H10S13730   2.216   0.502   7.471  1.2576  2.6022 -2.2146
  128OSM   H10T13731   2.051   0.431   7.441  0.8164  0.0224 -2.5150
  128OSM   C11S13732   2.055   0.586   7.597  0.2600  0.4614  1.0286
  128OSM   H11S13733   1.951   0.625   7.595 -0.5334 -1.5468  0.1517
  128OSM   H11T13734   2.124   0.672   7.613 -0.8343  1.1239  2.5137
  128OSM   C12S13735   2.062   0.490   7.721  0.9836 -0.1447 -0.5085
  128OSM   H12S13736   2.169   0.460   7.731  1.5294  1.6949 -0.2765
  128OSM   H12T13737   2.004   0.399   7.697  2.3456 -1.7146  1.7285
  128OSM   C13S13738   2.020   0.558   7.845  0.0313  0.1479  0.4611
  128OSM   H13S13739   1.909   0.563   7.843 -0.1122 -1.7203  1.5720
  128OSM   H13T13740   2.065   0.657   7.866  0.5172  0.3937 -1.5913
  128OSM   C14S13741   2.046   0.467   7.963 -0.1671  0.6087  0.1542
  128OSM   H14S13742   2.153   0.477   7.993  0.3949  1.7630 -2.0233
  128OSM   H14T13743   2.029   0.364   7.926 -0.8864  1.1106 -0.9750
  128OSM   C15S13744   1.948   0.506   8.079 -0.3146  0.7123  0.1636
  128OSM   H15S13745   1.846   0.469   8.054  0.2364 -1.1774  0.5673
  128OSM   H15T13746   1.948   0.616   8.095  1.2309  0.5793  1.3438
  128OSM   C16S13747   1.985   0.440   8.206  0.7266  0.3672 -0.3444
  128OSM   H16S13748   1.937   0.489   8.294  1.2818  0.7199 -0.2322
  128OSM   H16T13749   2.095   0.438   8.220  1.3832 -2.1082 -4.3099
  128OSM   C17S13750   1.946   0.290   8.208  0.5480 -0.5004 -0.4866
  128OSM   H17S13751   1.996   0.242   8.121  3.9123  1.1979  0.3543
  128OSM   H17T13752   1.836   0.280   8.193  0.0475  1.3196  1.4740
  128OSM   C18S13753   1.979   0.226   8.344  0.2431 -0.2304  0.4800
  128OSM   H18S13754   1.925   0.282   8.423 -0.7720  1.6900 -1.4776
  128OSM   H18T13755   2.089   0.227   8.361  0.3818 -1.0062 -0.3091
  128OSM   H18U13756   1.942   0.121   8.340  1.6379 -0.6937 -2.1755
  128OSM    C1F13757   1.785   0.841   6.714  0.6330  0.1790 -0.4594
  128OSM     OF13758   1.715   0.753   6.668 -0.2116  0.3929  0.2862
  128OSM    C2F13759   1.720   0.970   6.761 -0.0630 -0.7776  0.4190
  128OSM    H2F13760   1.657   1.007   6.677  0.2568 -0.4840  0.3050
  128OSM    H2G13761   1.805   1.038   6.784  0.9389 -1.8499 -0.0666
  128OSM    C3F13762   1.633   0.953   6.890  0.0249  0.4851  0.0261
  128OSM    H3F13763   1.695   0.907   6.969 -0.5654  0.5357  0.5230
  128OSM    H3G13764   1.548   0.889   6.861  0.2982 -0.4451  1.2299
  128OSM    C4F13765   1.568   1.075   6.947 -0.0925 -0.2152 -0.5984
  128OSM    H4F13766   1.507   1.133   6.875 -0.9035  0.3708  0.5264
  128OSM    H4G13767   1.650   1.149   6.960 -1.7100  1.5428  0.0539
  128OSM    C5F13768   1.487   1.062   7.073  0.4083  0.9192  0.0774
  128OSM    H5F13769   1.380   1.035   7.061  0.3000  0.0944  2.4272
  128OSM    H5G13770   1.486   1.162   7.123 -1.4765  1.0547 -0.1460
  128OSM    C6F13771   1.539   0.961   7.173  0.1984 -0.4421 -0.6764
  128OSM    H6F13772   1.649   0.949   7.184  0.3785  0.4275 -1.4315
  128OSM    H6G13773   1.486   0.867   7.147 -0.9423 -0.8111  2.4656
  128OSM    C7F13774   1.468   0.974   7.315  0.4935  0.1545  0.1738
  128OSM    H7F13775   1.361   1.001   7.300  0.2583 -0.0655  1.3535
  128OSM    H7G13776   1.514   1.055   7.374 -0.3908  0.8310 -0.0422
  128OSM    C8F13777   1.482   0.846   7.394  0.4718 -0.2441 -1.0388
  128OSM    H8F13778   1.445   0.764   7.330  1.5035 -0.9326 -0.7804
  128OSM    H8G13779   1.406   0.850   7.475 -0.7013 -1.1912 -2.0569
  128OSM    C9F13780   1.635   0.837   7.425  0.2294  0.3685 -0.7972
  128OSM    H9F13781   1.713   0.834   7.348  1.1462  0.8756  0.0880
  128OSM   C10F13782   1.682   0.864   7.547  0.4882  0.0855 -0.3461
  128OSM   H10F13783   1.789   0.856   7.573  1.0332  0.8172 -2.2523
  128OSM   C11F13784   1.587   0.881   7.665 -0.1083  0.0980  0.6889
  128OSM   H11F13785   1.529   0.788   7.682  2.4346 -1.6802  0.3353
  128OSM   H11G13786   1.510   0.959   7.650  0.2679  0.2298 -0.6817
  128OSM   C12F13787   1.672   0.903   7.798 -0.2485 -0.3710  1.1800
  128OSM   H12F13788   1.731   0.997   7.794  1.9607 -1.6740  1.3485
  128OSM   H12G13789   1.731   0.811   7.817 -0.4616 -0.3496  1.9848
  128OSM   C13F13790   1.588   0.925   7.925 -0.5104 -0.0318  0.6689
  128OSM   H13F13791   1.516   1.006   7.902  0.6074  1.4677  2.2244
  128OSM   H13G13792   1.648   0.965   8.009 -2.6704 -0.1147  2.3408
  128OSM   C14F13793   1.508   0.810   7.984  0.0364  0.2220  0.0103
  128OSM   H14F13794   1.435   0.771   7.910  1.3345  1.2073 -1.8738
  128OSM   H14G13795   1.462   0.833   8.083  1.4443 -4.3104  1.9682
  128OSM   C15F13796   1.593   0.685   8.017  0.7575 -0.1452  0.2883
  128OSM   H15F13797   1.676   0.708   8.087  1.6274  0.0016 -0.7599
  128OSM   H15G13798   1.649   0.654   7.926  0.9851  0.6467  0.1539
  128OSM   C16F13799   1.516   0.558   8.060  0.2477  0.1862 -0.7003
  128OSM   H16F13800   1.586   0.474   8.040  0.5720  0.3321 -0.2004
  128OSM   H16G13801   1.420   0.559   8.005 -0.0960 -1.5352 -0.1670
  128OSM   C17F13802   1.477   0.563   8.209  0.0410  0.7155 -0.0346
  128OSM   H17F13803   1.408   0.649   8.220  0.1541  0.8456 -0.3284
  128OSM   H17G13804   1.566   0.583   8.273 -1.6854  1.9564  2.0876
  128OSM   C18F13805   1.394   0.444   8.254  0.6469 -0.1424 -0.0848
  128OSM   H18F13806   1.297   0.440   8.201  0.2967  0.3796  0.4933
  128OSM   H18G13807   1.362   0.459   8.360 -1.1189  0.0964 -0.6208
  128OSM   H18H13808   1.451   0.351   8.231 -0.2746 -0.5898 -0.6285
  129OSM      N13809   6.627   4.630   6.223 -0.2251 -0.2027 -0.6990
  129OSM    C1513810   6.650   4.549   6.104  0.1170  0.4276  0.1013
  129OSM   H15A13811   6.751   4.560   6.068 -0.2907  0.5134 -1.0694
  129OSM   H15B13812   6.582   4.570   6.023 -0.6571  0.5464  0.7725
  129OSM   H15C13813   6.644   4.444   6.126 -1.8887 -0.0466 -2.3075
  129OSM    C1413814   6.644   4.771   6.180 -0.0256 -1.0898 -0.3695
  129OSM   H14A13815   6.573   4.793   6.101 -0.9175 -0.4796  0.5680
  129OSM   H14B13816   6.744   4.800   6.154 -0.4279  0.8185  0.0722
  129OSM   H14C13817   6.617   4.843   6.255 -1.0990 -1.4815 -0.3561
  129OSM    C1313818   6.495   4.610   6.289 -0.1300 -0.1316  0.3815
  129OSM   H13A13819   6.408   4.633   6.230 -0.7701 -2.7969  0.1559
  129OSM   H13B13820   6.494   4.683   6.369 -0.8345  2.3126 -1.7346
  129OSM   H13C13821   6.484   4.518   6.344  1.5920 -0.8343 -0.3840
  129OSM    C1213822   6.741   4.600   6.319  0.1946  0.3724 -0.1082
  129OSM   H12A13823   6.722   4.507   6.370 -0.9167  0.0696 -1.0245
  129OSM   H12B13824   6.738   4.668   6.402 -0.3688 -0.8734  0.9324
  129OSM    C1113825   6.885   4.585   6.270 -0.3401 -0.1586 -0.4664
  129OSM   H11A13826   6.960   4.576   6.351  0.6994 -0.6369 -1.4578
  129OSM   H11B13827   6.921   4.673   6.213  2.5744 -0.7019  0.3972
  129OSM      P13828   6.887   4.322   6.217 -0.1413 -0.6096 -0.0361
  129OSM    O1313829   6.746   4.277   6.187 -0.0301  0.0978  0.3796
  129OSM    O1413830   7.000   4.260   6.140 -0.1147 -0.8194 -0.3120
  129OSM    O1113831   6.913   4.321   6.380 -0.5464 -0.6346  0.5162
  129OSM    O1213832   6.904   4.477   6.184  0.0942  0.1610  0.5365
  129OSM    C1S13833   7.030   4.249   6.418 -0.1431  0.1378  0.0812
  129OSM    H1S13834   7.118   4.288   6.362 -0.2479  0.3828  0.0823
  129OSM    H1T13835   7.027   4.142   6.390 -1.3948  0.0945  0.3398
  129OSM     NF13836   7.113   4.142   6.620 -0.0291  0.5386 -0.9232
  129OSM    HNF13837   7.057   4.072   6.664  0.0513  0.2619 -1.2545
  129OSM    C2S13838   7.051   4.264   6.575 -0.3122 -0.3706  0.7378
  129OSM    H2S13839   7.119   4.349   6.598 -1.9858  0.4107  3.1856
  129OSM    C3S13840   6.919   4.294   6.649  0.1334 -0.1607  0.5800
  129OSM    H3S13841   6.849   4.214   6.615 -0.1921  1.1465 -2.1031
  129OSM     O313842   6.855   4.419   6.604 -0.8774  0.6668 -0.1401
  129OSM    HO313843   6.871   4.408   6.510 -2.0422 -0.8338 -0.1996
  129OSM    C4S13844   6.936   4.308   6.798  0.5085  0.1361  0.0749
  129OSM    H4S13845   7.034   4.346   6.830 -0.2724  0.8335  1.7653
  129OSM    C5S13846   6.837   4.294   6.893  0.5696 -0.5658  1.0228
  129OSM    H5S13847   6.731   4.292   6.864  1.0361 -3.0709 -0.8114
  129OSM    C6S13848   6.853   4.309   7.036  0.4016  0.0107  1.0024
  129OSM    H6S13849   6.895   4.215   7.077  1.6130 -0.0467 -0.2870
  129OSM    H6T13850   6.753   4.324   7.080 -0.3750  1.3848 -1.0587
  129OSM    C7S13851   6.938   4.430   7.065 -0.8950  0.3474 -0.7203
  129OSM    H7S13852   6.892   4.518   7.016  1.3477  1.9626 -0.0549
  129OSM    H7T13853   7.042   4.418   7.027 -0.7023 -1.0950  0.1773
  129OSM    C8S13854   6.955   4.463   7.215  0.4784 -0.1484 -1.0726
  129OSM    H8S13855   7.028   4.389   7.253  0.5598 -0.1061 -1.1465
  129OSM    H8T13856   6.854   4.454   7.260  0.1437  0.7642 -1.5971
  129OSM    C9S13857   7.009   4.606   7.246  0.1536 -0.7774 -0.0054
  129OSM    H9S13858   6.942   4.685   7.206  0.7421 -0.9212 -1.3084
  129OSM    H9T13859   7.097   4.651   7.196 -1.0337  3.4015  1.2478
  129OSM   C10S13860   7.013   4.632   7.397 -0.0643 -0.8436 -0.1225
  129OSM   H10S13861   7.099   4.697   7.423 -2.2983  2.6828 -0.8062
  129OSM   H10T13862   7.040   4.532   7.437  0.0032 -1.0695 -0.7321
  129OSM   C11S13863   6.886   4.683   7.477  0.4275 -0.9147  0.1323
  129OSM   H11S13864   6.802   4.623   7.437  0.1174  0.7000 -1.7826
  129OSM   H11T13865   6.863   4.789   7.455 -0.2272 -1.3762 -1.5948
  129OSM   C12S13866   6.885   4.655   7.625 -0.3827  0.3152  0.5265
  129OSM   H12S13867   6.885   4.545   7.638 -1.2441  0.2602  0.1446
  129OSM   H12T13868   6.787   4.684   7.668 -0.4638  1.0915 -0.1616
  129OSM   C13S13869   7.001   4.731   7.699 -0.3619  0.2952  0.6846
  129OSM   H13S13870   6.990   4.841   7.698 -1.0761  0.2243  0.3523
  129OSM   H13T13871   7.098   4.699   7.655  0.4232  1.1651  1.7173
  129OSM   C14S13872   7.016   4.690   7.849  0.6063 -0.0749  0.7262
  129OSM   H14S13873   7.102   4.742   7.896 -0.2148  0.5945  1.5286
  129OSM   H14T13874   7.050   4.585   7.853  1.6715  0.1583 -1.0450
  129OSM   C15S13875   6.892   4.723   7.931  0.9302 -0.0648  0.7749
  129OSM   H15S13876   6.805   4.674   7.882  0.6712  1.7154 -0.6278
  129OSM   H15T13877   6.871   4.832   7.927  0.1084 -0.2521 -0.7010
  129OSM   C16S13878   6.916   4.689   8.078  1.1374  0.5670  0.3941
  129OSM   H16S13879   6.996   4.757   8.114  0.3226  0.5794  2.2892
  129OSM   H16T13880   6.950   4.583   8.073 -0.9755 -0.1031 -2.9875
  129OSM   C17S13881   6.806   4.685   8.185 -0.5647  0.5283  0.1251
  129OSM   H17S13882   6.778   4.791   8.202 -2.3210  0.6158 -2.6807
  129OSM   H17T13883   6.840   4.629   8.275 -0.7450  1.0963  0.5541
  129OSM   C18S13884   6.676   4.619   8.134 -0.2566  0.1741  0.1248
  129OSM   H18S13885   6.678   4.508   8.139  1.2230  0.0472 -2.2178
  129OSM   H18T13886   6.656   4.660   8.033 -1.4268  0.0834  0.3069
  129OSM   H18U13887   6.599   4.647   8.210 -1.7943 -3.0643 -0.0700
  129OSM    C1F13888   7.242   4.115   6.611 -0.0219 -0.5912  0.3796
  129OSM     OF13889   7.317   4.197   6.564 -0.6530  0.1142 -0.3833
  129OSM    C2F13890   7.278   3.973   6.649 -0.0948 -0.9990  0.2768
  129OSM    H2F13891   7.262   3.909   6.559 -0.1381  1.5112 -1.5968
  129OSM    H2G13892   7.206   3.941   6.727 -1.5300 -2.7496 -1.6552
  129OSM    C3F13893   7.428   3.964   6.701  0.6965 -0.3294 -0.6193
  129OSM    H3F13894   7.442   4.015   6.799  1.7989 -2.3777  0.3418
  129OSM    H3G13895   7.489   4.004   6.618  0.3887  0.9065 -0.2772
  129OSM    C4F13896   7.466   3.817   6.720  0.3766 -0.2436  0.5600
  129OSM    H4F13897   7.575   3.823   6.738  0.1186  1.6699  1.7591
  129OSM    H4G13898   7.453   3.766   6.622  0.5198  1.4823 -0.3888
  129OSM    C5F13899   7.395   3.742   6.827 -0.2452 -0.3131 -0.4342
  129OSM    H5F13900   7.285   3.750   6.812 -0.3053 -1.6818 -0.9377
  129OSM    H5G13901   7.425   3.794   6.920  1.5753 -1.1085 -0.5286
  129OSM    C6F13902   7.433   3.595   6.837 -0.2059  0.0815  0.0686
  129OSM    H6F13903   7.542   3.590   6.857 -0.3504  1.7972  1.5091
  129OSM    H6G13904   7.429   3.550   6.736 -2.5528  2.1190 -0.8408
  129OSM    C7F13905   7.350   3.503   6.928  0.6270  0.3426  0.2284
  129OSM    H7F13906   7.367   3.394   6.919 -2.8897 -0.3878  0.9849
  129OSM    H7G13907   7.243   3.513   6.900  1.1927 -0.6320 -2.6228
  129OSM    C8F13908   7.370   3.530   7.080  0.5043  0.2867 -0.0159
  129OSM    H8F13909   7.306   3.470   7.148 -1.0135  0.0972 -1.5732
  129OSM    H8G13910   7.345   3.636   7.102  1.2692  0.9265 -2.0359
  129OSM    C9F13911   7.517   3.515   7.129 -0.0639 -0.4559  0.0101
  129OSM    H9F13912   7.596   3.580   7.090  1.0882 -0.1110  2.7239
  129OSM   C10F13913   7.566   3.427   7.217 -0.8239  0.3839  0.5390
  129OSM   H10F13914   7.668   3.447   7.254 -1.3602  1.3050  1.6132
  129OSM   C11F13915   7.490   3.326   7.294  0.5504 -0.2437  0.5691
  129OSM   H11F13916   7.558   3.256   7.347  1.8655 -1.4487 -2.4995
  129OSM   H11G13917   7.434   3.263   7.222  0.2920 -0.1212  0.6595
  129OSM   C12F13918   7.399   3.390   7.411  0.8634  0.8904  1.0406
  129OSM   H12F13919   7.330   3.471   7.377  0.6051 -0.3129 -1.5384
  129OSM   H12G13920   7.471   3.436   7.482  1.0146  0.1379  1.3895
  129OSM   C13F13921   7.324   3.288   7.493 -0.3766 -0.5054  0.3636
  129OSM   H13F13922   7.400   3.211   7.517 -0.7129 -1.7532 -2.2057
  129OSM   H13G13923   7.246   3.237   7.432 -0.1593 -2.2057  1.4438
  129OSM   C14F13924   7.265   3.351   7.616 -0.3390  1.0799  0.0148
  129OSM   H14F13925   7.190   3.429   7.592 -0.9341  0.5678  0.1685
  129OSM   H14G13926   7.350   3.390   7.675 -0.4946 -0.6945  1.5327
  129OSM   C15F13927   7.212   3.234   7.696 -0.5269 -0.4155 -0.0977
  129OSM   H15F13928   7.297   3.162   7.704 -0.8953 -0.9276 -0.7187
  129OSM   H15G13929   7.139   3.181   7.632 -0.1830 -1.3020  0.2253
  129OSM   C16F13930   7.147   3.274   7.833 -0.1814  0.1145  0.5420
  129OSM   H16F13931   7.066   3.350   7.825 -1.1680 -1.1135 -2.2384
  129OSM   H16G13932   7.233   3.310   7.894  2.1614 -1.4779 -1.6288
  129OSM   C17F13933   7.095   3.159   7.912  0.0484  0.4944  0.1077
  129OSM   H17F13934   7.171   3.078   7.916 -0.9604 -0.5535 -1.2887
  129OSM   H17G13935   7.010   3.117   7.854  0.1859  0.6115 -0.1798
  129OSM   C18F13936   7.048   3.184   8.051  0.1306  0.6991  0.1900
  129OSM   H18F13937   7.128   3.188   8.128  1.0424 -1.1689 -0.5965
  129OSM   H18G13938   6.982   3.098   8.075  1.2994  0.1465  1.5660
  129OSM   H18H13939   6.989   3.277   8.061 -2.7248 -0.5558 -2.9396
  130OSM      N13940   2.080   6.571   6.211 -0.0612  0.3076  0.7366
  130OSM    C1513941   1.934   6.608   6.219 -0.5627 -0.2536  0.5917
  130OSM   H15A13942   1.883   6.520   6.183  1.3493 -2.5445  3.0361
  130OSM   H15B13943   1.911   6.692   6.155 -0.0680  2.4210  3.6822
  130OSM   H15C13944   1.888   6.614   6.316 -2.5634 -1.3244 -0.2397
  130OSM    C1413945   2.156   6.685   6.279  0.1536  0.1889  0.0869
  130OSM   H14A13946   2.126   6.666   6.381 -0.5812 -0.9160 -0.3189
  130OSM   H14B13947   2.130   6.778   6.230 -0.5387 -1.1826 -2.3468
  130OSM   H14C13948   2.262   6.671   6.270  0.2246 -0.2238  1.4029
  130OSM    C1313949   2.094   6.447   6.298  0.2561 -0.2890  0.1815
  130OSM   H13A13950   2.048   6.361   6.253  0.1517  0.6971 -1.7109
  130OSM   H13B13951   2.046   6.464   6.394 -0.7202  0.8077 -0.4659
  130OSM   H13C13952   2.198   6.424   6.315  1.1871  2.0867 -1.7193
  130OSM    C1213953   2.110   6.554   6.067 -1.1711  0.1783 -0.3126
  130OSM   H12A13954   2.085   6.640   6.007  1.5739  0.8848 -0.5761
  130OSM   H12B13955   2.058   6.473   6.017 -0.3528 -0.7279  0.2651
  130OSM    C1113956   2.261   6.525   6.019  0.2283  0.6728  0.1995
  130OSM   H11A13957   2.326   6.605   6.058  0.9271 -0.2836  1.0639
  130OSM   H11B13958   2.277   6.535   5.910 -0.1912 -0.7998 -0.0275
  130OSM      P13959   2.431   6.340   6.096  0.0627 -0.3749 -0.4862
  130OSM    O1313960   2.423   6.234   6.206  0.0415 -0.4688  0.3565
  130OSM    O1413961   2.499   6.297   5.972  0.0446 -0.0726 -0.0908
  130OSM    O1113962   2.512   6.464   6.159  0.2061  0.1866  0.1441
  130OSM    O1213963   2.294   6.395   6.063 -0.2990 -0.3690  0.0901
  130OSM    C1S13964   2.487   6.529   6.287  0.6906 -0.5573  0.1650
  130OSM    H1S13965   2.377   6.539   6.297  0.8687  0.9142  0.8807
  130OSM    H1T13966   2.521   6.634   6.295  2.2514 -1.0989  0.9396
  130OSM     NF13967   2.491   6.529   6.531  0.0873  0.2028  0.3572
  130OSM    HNF13968   2.551   6.603   6.561 -0.4940  1.1313 -0.6648
  130OSM    C2S13969   2.540   6.456   6.417 -0.0168  0.8886 -0.4438
  130OSM    H2S13970   2.492   6.356   6.411 -1.9323  1.6050  1.5627
  130OSM    C3S13971   2.694   6.442   6.401 -0.0911 -0.1044  0.1394
  130OSM    H3S13972   2.730   6.547   6.393  2.8450 -0.5095  4.5897
  130OSM     O313973   2.741   6.369   6.289  0.0796 -0.2516 -0.0542
  130OSM    HO313974   2.669   6.362   6.226  1.2335 -1.0931 -1.3357
  130OSM    C4S13975   2.756   6.375   6.518  0.5987 -0.2484  0.4094
  130OSM    H4S13976   2.721   6.273   6.538 -0.3760  0.1271  0.6337
  130OSM    C5S13977   2.856   6.436   6.590 -0.1825  0.8909  0.3559
  130OSM    H5S13978   2.903   6.530   6.557 -1.3717  0.7972 -1.7954
  130OSM    C6S13979   2.924   6.368   6.707 -0.0357  0.0241  0.2518
  130OSM    H6S13980   2.878   6.395   6.804  0.2648 -2.9778  1.3557
  130OSM    H6T13981   3.022   6.419   6.704  0.1561 -0.2231  1.8341
  130OSM    C7S13982   2.941   6.217   6.704  0.6845  0.1283  0.0131
  130OSM    H7S13983   2.977   6.164   6.614 -2.9808  0.2640 -1.6993
  130OSM    H7T13984   2.844   6.169   6.729 -0.0958  1.7642  0.3297
  130OSM    C8S13985   3.025   6.156   6.825 -0.5221  0.3672 -0.4935
  130OSM    H8S13986   3.126   6.202   6.821 -1.2399  1.9664 -2.6160
  130OSM    H8T13987   3.036   6.049   6.800 -0.3067  0.1638  0.4713
  130OSM    C9S13988   2.957   6.175   6.961  0.3319  0.3978  0.3632
  130OSM    H9S13989   2.870   6.107   6.972  0.9137 -0.1959  1.5659
  130OSM    H9T13990   2.926   6.281   6.976  0.7962  0.7555 -1.1014
  130OSM   C10S13991   3.048   6.141   7.081  0.1882  0.1704  0.4656
  130OSM   H10S13992   3.149   6.184   7.068 -0.5182  1.3798 -1.4274
  130OSM   H10T13993   3.059   6.030   7.078 -1.3628 -0.0299 -3.4365
  130OSM   C11S13994   2.983   6.178   7.215 -0.6075 -0.9509  0.7074
  130OSM   H11S13995   2.885   6.127   7.229 -1.7991  0.8783 -0.5397
  130OSM   H11T13996   2.966   6.288   7.211  0.6045 -0.7555  0.5014
  130OSM   C12S13997   3.073   6.144   7.338 -0.5788  0.7033 -0.3717
  130OSM   H12S13998   3.176   6.178   7.315  0.0873 -0.4650  0.7527
  130OSM   H12T13999   3.075   6.033   7.332 -0.0718  0.7932 -3.8531
  130OSM   C13S14000   3.039   6.186   7.481 -0.1064 -0.4132  0.3661
  130OSM   H13S14001   2.935   6.157   7.505 -0.1770 -0.4374  0.0322
  130OSM   H13T14002   3.051   6.295   7.499  1.8866 -0.3691 -0.8850
  130OSM   C14S14003   3.125   6.118   7.595 -0.5404  0.2511  0.9879
  130OSM   H14S14004   3.235   6.106   7.583 -1.0223 -2.7865 -1.3675
  130OSM   H14T14005   3.078   6.019   7.610 -0.4180 -0.4912 -2.6126
  130OSM   C15S14006   3.126   6.198   7.726  0.4958 -0.6331  0.5884
  130OSM   H15S14007   3.020   6.228   7.741  0.3812  1.3230 -3.0231
  130OSM   H15T14008   3.190   6.286   7.705  3.2357 -2.7706 -0.7091
  130OSM   C16S14009   3.180   6.104   7.838  0.2664  0.2168  0.7044
  130OSM   H16S14010   3.273   6.055   7.801 -0.7271 -1.8923  0.8193
  130OSM   H16T14011   3.110   6.025   7.873 -2.0474  1.2732 -1.2845
  130OSM   C17S14012   3.217   6.183   7.963 -0.7376 -0.8407  0.1699
  130OSM   H17S14013   3.125   6.229   8.005 -0.4625 -2.3238  2.5681
  130OSM   H17T14014   3.290   6.266   7.947  1.2410 -1.5461  4.1448
  130OSM   C18S14015   3.279   6.092   8.070 -0.0972  0.1476  1.0025
  130OSM   H18S14016   3.345   6.016   8.023 -0.7281 -0.3812  0.9409
  130OSM   H18T14017   3.196   6.034   8.117 -0.9007  0.4397 -0.0190
  130OSM   H18U14018   3.334   6.156   8.142  1.0060 -0.5742  0.8174
  130OSM    C1F14019   2.361   6.530   6.571 -0.8435  0.9919  0.1286
  130OSM     OF14020   2.282   6.439   6.538  0.3686  0.1544  0.3329
  130OSM    C2F14021   2.327   6.634   6.662  0.4935 -0.5631  0.3005
  130OSM    H2F14022   2.293   6.592   6.759  1.2586 -1.6236  0.1142
  130OSM    H2G14023   2.244   6.698   6.623  0.4164 -0.1622  1.0881
  130OSM    C3F14024   2.428   6.742   6.696 -0.0813 -0.3156 -0.5805
  130OSM    H3F14025   2.454   6.808   6.611  0.2261  1.5500  0.9136
  130OSM    H3G14026   2.518   6.703   6.748 -0.2143 -1.5594 -1.2396
  130OSM    C4F14027   2.362   6.850   6.794  0.0409  0.1939 -0.4484
  130OSM    H4F14028   2.319   6.805   6.886 -3.5758  1.0063 -1.5970
  130OSM    H4G14029   2.273   6.871   6.731 -0.1023 -0.7889 -0.5891
  130OSM    C5F14030   2.441   6.978   6.813  0.2162  0.1161  0.8690
  130OSM    H5F14031   2.363   7.055   6.831  2.4584  2.9580 -0.6420
  130OSM    H5G14032   2.494   7.000   6.717 -1.2751 -2.3266 -0.6225
  130OSM    C6F14033   2.545   6.964   6.933  0.1858 -0.1371 -0.3590
  130OSM    H6F14034   2.624   6.887   6.918  1.5629  0.8582  1.3702
  130OSM    H6G14035   2.484   6.928   7.018 -0.2478  1.3079 -0.0376
  130OSM    C7F14036   2.605   7.096   6.966  0.1537  0.1935 -0.3402
  130OSM    H7F14037   2.525   7.168   6.937 -0.6243 -0.4062  0.2648
  130OSM    H7G14038   2.692   7.112   6.899 -0.0359 -0.4786 -0.7628
  130OSM    C8F14039   2.639   7.117   7.116 -0.1245 -0.1407  0.1099
  130OSM    H8F14040   2.709   7.203   7.121  2.4541 -2.1719  0.4239
  130OSM    H8G14041   2.705   7.034   7.147 -1.2078 -0.6877  1.0121
  130OSM    C9F14042   2.515   7.138   7.198  0.1342  0.1271 -0.1455
  130OSM    H9F14043   2.461   7.228   7.163  2.7141  2.0361  0.4724
  130OSM   C10F14044   2.478   7.066   7.308 -0.2515 -0.2968 -0.5965
  130OSM   H10F14045   2.388   7.091   7.365 -0.8521  1.5446 -2.2376
  130OSM   C11F14046   2.556   6.948   7.366  0.0958  0.8349  0.6483
  130OSM   H11F14047   2.653   6.922   7.318  0.2976  0.3566  1.2961
  130OSM   H11G14048   2.507   6.849   7.351  1.9421  0.1259 -1.1492
  130OSM   C12F14049   2.570   6.963   7.515  0.2270  0.4947  0.6241
  130OSM   H12F14050   2.479   6.924   7.566  1.6597 -2.9222  0.8272
  130OSM   H12G14051   2.594   7.068   7.545  1.2516  0.3294  0.4139
  130OSM   C13F14052   2.675   6.879   7.579 -0.0621 -0.5400  0.5577
  130OSM   H13F14053   2.777   6.915   7.551  0.0199 -1.3217 -0.1915
  130OSM   H13G14054   2.662   6.777   7.537 -1.8273 -0.2489  0.3186
  130OSM   C14F14055   2.662   6.872   7.729  0.1237 -0.6337 -0.0257
  130OSM   H14F14056   2.714   6.784   7.771 -0.7185 -1.7558 -1.2572
  130OSM   H14G14057   2.562   6.839   7.765  0.5438 -1.4968  0.3654
  130OSM   C15F14058   2.702   7.005   7.793 -0.2151 -0.1700 -0.1371
  130OSM   H15F14059   2.643   7.089   7.750 -0.7770  0.3054  1.5026
  130OSM   H15G14060   2.807   7.021   7.761  0.4751 -0.9419  1.6541
  130OSM   C16F14061   2.692   6.977   7.939 -0.2006 -1.2632 -0.3518
  130OSM   H16F14062   2.755   6.890   7.970  2.7464  0.5823 -0.7433
  130OSM   H16G14063   2.588   6.949   7.964  0.0023  0.0624  2.2900
  130OSM   C17F14064   2.722   7.105   8.026  0.0048 -0.3220  0.8163
  130OSM   H17F14065   2.679   7.190   7.968  4.3779  0.2657 -1.9841
  130OSM   H17G14066   2.832   7.112   8.015 -0.0828 -0.2056 -0.1559
  130OSM   C18F14067   2.660   7.098   8.161 -0.4406 -0.0992 -0.9176
  130OSM   H18F14068   2.660   7.200   8.205  0.0583 -0.2312 -0.5956
  130OSM   H18G14069   2.717   7.029   8.228  0.5226  2.7422  1.4538
  130OSM   H18H14070   2.552   7.074   8.161 -1.1563  2.5488  1.4555
  131OSM      N14071   0.063   1.785   5.612 -1.1369  0.1389  0.6540
  131OSM    C1514072   0.086   1.658   5.540  0.6721  0.2988  0.2506
  131OSM   H15A14073   0.098   1.682   5.436  1.9196  2.6603  0.8699
  131OSM   H15B14074   0.005   1.587   5.544  1.2792 -0.3919  0.6107
  131OSM   H15C14075   0.177   1.614   5.579 -0.1039  0.3648  2.2969
  131OSM    C1414076   0.172   1.886   5.571  0.1542  0.6547 -0.1324
  131OSM   H14A14077   0.145   1.981   5.614  1.9454  1.3899 -0.5455
  131OSM   H14B14078   0.175   1.897   5.464  2.1587 -1.4072 -0.3818
  131OSM   H14C14079   0.273   1.855   5.596 -0.5856 -0.7722  1.2943
  131OSM    C1314080  -0.066   1.844   5.558 -0.6921  0.1543  0.2872
  131OSM   H13A14081  -0.141   1.771   5.583  1.9361 -3.6895 -1.9619
  131OSM   H13B14082  -0.050   1.845   5.451  1.5501 -0.8954  0.5334
  131OSM   H13C14083  -0.093   1.941   5.598 -1.2733  0.3454 -0.5576
  131OSM    C1214084   0.072   1.772   5.758  0.3910 -0.1800 -0.1018
  131OSM   H12A14085   0.063   1.873   5.794  1.9407  0.7466 -2.0896
  131OSM   H12B14086   0.172   1.747   5.789 -0.0514 -2.0572 -0.0852
  131OSM    C1114087  -0.034   1.697   5.823  0.3828  0.1508  1.0234
  131OSM   H11A14088  -0.131   1.735   5.784  0.1128 -1.6158 -0.1655
  131OSM   H11B14089  -0.027   1.704   5.933  0.0540 -0.9165  1.1234
  131OSM      P14090   0.065   1.454   5.851 -0.0905 -0.2528 -0.1191
  131OSM    O1314091   0.070   1.348   5.750 -0.3603  0.0253 -0.0829
  131OSM    O1414092   0.186   1.525   5.897 -0.1354  0.1662 -0.4331
  131OSM    O1114093  -0.007   1.396   5.970  0.2541  0.1837 -0.2443
  131OSM    O1214094  -0.035   1.561   5.788  0.4540  0.6157  0.0073
  131OSM    C1S14095  -0.148   1.412   6.001 -0.5167  0.2811  0.0813
  131OSM    H1S14096  -0.201   1.323   5.961 -0.5641  0.0573  0.6360
  131OSM    H1T14097  -0.188   1.503   5.952  0.5854  0.1904 -1.0325
  131OSM     NF14098  -0.325   1.443   6.177 -0.4405 -1.0090  0.4427
  131OSM    HNF14099  -0.363   1.529   6.212  1.1630  0.2330 -0.7290
  131OSM    C2S14100  -0.180   1.431   6.154  0.2998 -0.5295  0.1017
  131OSM    H2S14101  -0.144   1.341   6.209  0.0235 -0.4363  0.4370
  131OSM    C3S14102  -0.098   1.556   6.202 -0.1891 -0.4081 -0.4915
  131OSM    H3S14103  -0.144   1.654   6.178  0.2321  0.4687  1.9906
  131OSM     O314104   0.038   1.572   6.164 -0.2120  0.8678  0.4233
  131OSM    HO314105   0.030   1.533   6.077  2.5279  0.0059  0.4403
  131OSM    C4S14106  -0.098   1.557   6.357  0.3934  0.2570  0.3815
  131OSM    H4S14107  -0.028   1.482   6.398  1.6580  1.4570  0.4791
  131OSM    C5S14108  -0.160   1.648   6.433 -0.0702 -0.0756  0.5901
  131OSM    H5S14109  -0.217   1.730   6.387  1.3400  0.7000  0.1737
  131OSM    C6S14110  -0.153   1.660   6.583 -0.1585 -0.4080  0.3617
  131OSM    H6S14111  -0.083   1.745   6.591  0.0327 -0.4622 -0.6668
  131OSM    H6T14112  -0.103   1.575   6.634  2.2300  0.2437 -0.7756
  131OSM    C7S14113  -0.290   1.679   6.624  0.7422  0.7111 -0.4451
  131OSM    H7S14114  -0.335   1.581   6.653  1.9146 -0.0077 -0.9709
  131OSM    H7T14115  -0.369   1.708   6.551  1.4674  1.0091 -1.1207
  131OSM    C8S14116  -0.307   1.785   6.737  0.4854  0.4053  0.1437
  131OSM    H8S14117  -0.411   1.801   6.772  0.6978 -3.0739  2.9937
  131OSM    H8T14118  -0.280   1.878   6.684  0.6762  0.1454 -0.2182
  131OSM    C9S14119  -0.220   1.768   6.866 -0.1688  0.2176 -0.1711
  131OSM    H9S14120  -0.211   1.868   6.915 -0.8699 -0.0914  0.5995
  131OSM    H9T14121  -0.116   1.743   6.837 -1.0474 -1.1184 -2.4597
  131OSM   C10S14122  -0.258   1.664   6.977 -0.2748 -0.7190  0.2134
  131OSM   H10S14123  -0.238   1.568   6.926  0.4275 -0.0263 -0.8393
  131OSM   H10T14124  -0.367   1.672   6.997 -0.0842 -1.0536  1.5078
  131OSM   C11S14125  -0.161   1.665   7.098 -0.3273 -0.1960  0.5820
  131OSM   H11S14126  -0.177   1.762   7.149  1.7619  0.0031  0.9435
  131OSM   H11T14127  -0.060   1.641   7.059 -0.4319  0.2407  0.0292
  131OSM   C12S14128  -0.184   1.547   7.202 -0.7024 -0.2481 -0.3210
  131OSM   H12S14129  -0.135   1.457   7.160  0.7853 -1.5834  3.7746
  131OSM   H12T14130  -0.291   1.521   7.215 -0.6244 -1.6243 -2.0589
  131OSM   C13S14131  -0.123   1.566   7.337  0.0397 -0.5431 -0.2501
  131OSM   H13S14132  -0.017   1.598   7.326  1.3561 -3.6271  2.0940
  131OSM   H13T14133  -0.116   1.468   7.387  2.5860 -1.1038 -1.5266
  131OSM   C14S14134  -0.190   1.672   7.423  0.4701 -0.5042 -0.5488
  131OSM   H14S14135  -0.301   1.661   7.430  0.6259 -1.2802  1.8485
  131OSM   H14T14136  -0.165   1.775   7.389 -1.5746  0.5374  0.8724
  131OSM   C15S14137  -0.128   1.667   7.565 -0.4793 -0.3808 -0.3537
  131OSM   H15S14138  -0.017   1.668   7.563 -0.3999  2.2749  1.1712
  131OSM   H15T14139  -0.162   1.573   7.614 -1.1994  0.0936  0.0754
  131OSM   C16S14140  -0.176   1.791   7.643  0.3280  0.0854 -0.3659
  131OSM   H16S14141  -0.286   1.787   7.633 -0.1156 -0.8799  3.2527
  131OSM   H16T14142  -0.137   1.885   7.598 -2.2483  1.1302 -0.5357
  131OSM   C17S14143  -0.141   1.786   7.787  0.1984 -0.3689  0.0995
  131OSM   H17S14144  -0.170   1.685   7.824 -1.5526 -0.3390 -1.0795
  131OSM   H17T14145  -0.209   1.855   7.842 -0.2571 -0.8016  0.0874
  131OSM   C18S14146   0.006   1.818   7.829  0.7473  0.7147 -0.1886
  131OSM   H18S14147   0.031   1.793   7.934 -1.0276  0.0069  0.0968
  131OSM   H18T14148   0.026   1.927   7.817 -0.8248  0.9967 -0.5156
  131OSM   H18U14149   0.079   1.766   7.764 -1.1417 -3.5085  0.7211
  131OSM    C1F14150  -0.399   1.328   6.174 -0.1528 -0.1029 -0.4466
  131OSM     OF14151  -0.349   1.221   6.134  0.4629  0.1138  0.4689
  131OSM    C2F14152  -0.543   1.345   6.208 -0.1966 -0.2966 -0.7056
  131OSM    H2F14153  -0.592   1.348   6.108  0.6394 -1.8817 -1.2039
  131OSM    H2G14154  -0.561   1.439   6.264  1.9903 -0.0306 -0.3838
  131OSM    C3F14155  -0.590   1.213   6.282 -0.6022 -0.7236  0.0182
  131OSM    H3F14156  -0.549   1.124   6.230  1.8676  0.2256  0.2469
  131OSM    H3G14157  -0.700   1.221   6.266 -0.2922  0.3995 -1.9121
  131OSM    C4F14158  -0.555   1.227   6.432  0.3374  0.3771 -0.3052
  131OSM    H4F14159  -0.601   1.147   6.493  3.0310 -1.1471 -0.1001
  131OSM    H4G14160  -0.597   1.324   6.468 -0.0542 -0.6872  2.3009
  131OSM    C5F14161  -0.408   1.220   6.468 -0.2564 -0.7366 -0.5381
  131OSM    H5F14162  -0.354   1.312   6.439 -1.1970  0.0865  0.2666
  131OSM    H5G14163  -0.366   1.134   6.410 -0.5976 -2.2713  1.3924
  131OSM    C6F14164  -0.385   1.199   6.620  0.1982  0.2539  0.6966
  131OSM    H6F14165  -0.462   1.260   6.671  0.1642  0.5686  0.2716
  131OSM    H6G14166  -0.284   1.242   6.640  1.0742 -1.5669  0.4488
  131OSM    C7F14167  -0.389   1.051   6.673 -0.1969  0.2815 -0.1052
  131OSM    H7F14168  -0.338   1.054   6.771  2.2148 -0.5246 -1.2476
  131OSM    H7G14169  -0.337   0.980   6.605 -1.0298 -1.7147  1.2455
  131OSM    C8F14170  -0.529   0.993   6.708  0.5380 -0.1923  0.4346
  131OSM    H8F14171  -0.580   0.967   6.612 -3.8704  1.0246  2.2041
  131OSM    H8G14172  -0.594   1.068   6.757  2.7551  1.3926  1.0962
  131OSM    C9F14173  -0.503   0.864   6.777  0.5775  0.5657 -0.6014
  131OSM    H9F14174  -0.420   0.815   6.724  2.3694  2.2744  0.4515
  131OSM   C10F14175  -0.555   0.799   6.880 -0.9451  1.0294 -0.0798
  131OSM   H10F14176  -0.511   0.704   6.913 -0.3342  1.4285  0.2758
  131OSM   C11F14177  -0.662   0.848   6.968  0.1675  0.1337 -1.3390
  131OSM   H11F14178  -0.748   0.781   6.947  0.3007 -0.9003  1.0177
  131OSM   H11G14179  -0.695   0.952   6.948  0.0567  0.9857  2.4671
  131OSM   C12F14180  -0.621   0.842   7.115  1.1109  0.0372  0.0319
  131OSM   H12F14181  -0.539   0.915   7.131  0.4464  0.6957  0.4761
  131OSM   H12G14182  -0.578   0.743   7.139  0.2709 -0.0327  1.3432
  131OSM   C13F14183  -0.735   0.879   7.216  0.3445  0.4942  0.3106
  131OSM   H13F14184  -0.818   0.806   7.209 -0.4928  1.3723  0.7962
  131OSM   H13G14185  -0.776   0.978   7.190  1.0145  0.6535 -0.1612
  131OSM   C14F14186  -0.681   0.870   7.357 -0.6744  0.0019  0.0491
  131OSM   H14F14187  -0.602   0.947   7.362 -1.7286  1.0452  2.0073
  131OSM   H14G14188  -0.641   0.767   7.373 -0.3432  0.0177 -0.6805
  131OSM   C15F14189  -0.783   0.896   7.464  0.5311 -0.1923 -0.5743
  131OSM   H15F14190  -0.849   0.807   7.472  1.2330 -0.6533  0.1881
  131OSM   H15G14191  -0.844   0.986   7.440 -0.5093 -0.4011  1.1250
  131OSM   C16F14192  -0.718   0.929   7.604 -0.4467  0.2665 -0.4344
  131OSM   H16F14193  -0.635   1.001   7.584 -1.1209  0.3892 -3.2201
  131OSM   H16G14194  -0.688   0.828   7.639 -0.7387  0.1344 -0.5615
  131OSM   C17F14195  -0.815   0.984   7.708  0.3025  0.1747  0.4873
  131OSM   H17F14196  -0.901   0.918   7.730 -0.4943  1.2360  0.5997
  131OSM   H17G14197  -0.868   1.073   7.668 -1.5061 -0.2920  1.7179
  131OSM   C18F14198  -0.751   1.011   7.839 -0.4232  0.1166 -0.0583
  131OSM   H18F14199  -0.674   0.933   7.858 -0.3000 -0.2133 -1.8150
  131OSM   H18G14200  -0.822   1.010   7.924 -0.2299 -2.3133  0.1694
  131OSM   H18H14201  -0.695   1.106   7.829 -1.2158  0.4159 -1.9166
  132OSM      N14202   2.090   3.570   6.001  0.5748 -0.2531 -0.1293
  132OSM    C1514203   1.995   3.533   6.114  0.5008 -0.4520  0.0276
  132OSM   H15A14204   2.048   3.526   6.208  0.9558  2.2346  0.0574
  132OSM   H15B14205   1.963   3.431   6.096 -1.5727  0.0798  0.4278
  132OSM   H15C14206   1.908   3.597   6.116 -0.8048 -2.1615  0.1328
  132OSM    C1414207   2.191   3.462   6.005 -0.3151 -0.5614  0.7267
  132OSM   H14A14208   2.272   3.496   5.941  0.3806 -2.9381  0.2569
  132OSM   H14B14209   2.164   3.365   5.966  0.1108 -0.7020  0.7675
  132OSM   H14C14210   2.227   3.456   6.106 -1.2589 -1.2231  1.0269
  132OSM    C1314211   2.020   3.577   5.870  0.2269 -0.1150  0.1691
  132OSM   H13A14212   1.977   3.676   5.866  2.1439  0.8267  1.4040
  132OSM   H13B14213   1.957   3.496   5.838  0.0650 -0.8494  2.2331
  132OSM   H13C14214   2.096   3.583   5.793 -1.6390 -0.6958 -1.8153
  132OSM    C1214215   2.153   3.702   6.033 -0.0756 -0.0184  0.1475
  132OSM   H12A14216   2.207   3.748   5.952  0.0108  0.3498  0.4144
  132OSM   H12B14217   2.227   3.692   6.110 -1.1895  0.1463  1.2785
  132OSM    C1114218   2.054   3.816   6.083 -0.0181  0.0274  0.0779
  132OSM   H11A14219   2.114   3.908   6.101 -0.0667  0.0298  0.2321
  132OSM   H11B14220   2.012   3.766   6.173  0.1024 -0.6228 -0.2208
  132OSM      P14221   1.810   3.898   6.031 -0.1257  0.5172  0.1063
  132OSM    O1314222   1.765   4.012   5.945  0.2265  0.0608  0.2999
  132OSM    O1414223   1.724   3.780   6.041 -0.4027 -0.4772 -0.0535
  132OSM    O1114224   1.837   3.962   6.178 -0.5579  0.2021 -0.2703
  132OSM    O1214225   1.954   3.850   5.986 -0.5150  0.8924  0.4340
  132OSM    C1S14226   1.775   3.925   6.296 -0.9981 -0.5129  0.1174
  132OSM    H1S14227   1.818   3.828   6.332  2.5354  1.6381  2.3687
  132OSM    H1T14228   1.665   3.918   6.283 -0.8052  0.0717 -2.2360
  132OSM     NF14229   1.708   3.989   6.525 -0.1335  0.1772 -0.9379
  132OSM    HNF14230   1.636   4.052   6.555  1.8327  2.5173 -0.7862
  132OSM    C2S14231   1.792   4.029   6.415  0.3495 -0.3733  0.0582
  132OSM    H2S14232   1.901   4.027   6.435  0.5597  2.0779 -0.5049
  132OSM    C3S14233   1.762   4.176   6.373  0.1014 -0.2009 -0.0191
  132OSM    H3S14234   1.652   4.192   6.367  0.5382  3.5150 -1.0484
  132OSM     O314235   1.797   4.213   6.242  0.2170 -0.0944  0.4395
  132OSM    HO314236   1.815   4.134   6.190 -0.1873  1.8626 -2.9503
  132OSM    C4S14237   1.815   4.272   6.468 -0.3880 -0.4875 -0.5053
  132OSM    H4S14238   1.919   4.254   6.500 -0.8138 -0.9261  0.7138
  132OSM    C5S14239   1.750   4.375   6.525 -1.0428  0.8586  1.0112
  132OSM    H5S14240   1.641   4.375   6.512 -0.9713  0.3943  0.3481
  132OSM    C6S14241   1.806   4.467   6.627 -0.2919  0.1477 -0.1981
  132OSM    H6S14242   1.769   4.569   6.602  2.4590  1.2509 -0.1407
  132OSM    H6T14243   1.917   4.458   6.628 -0.2903  0.1215  1.1762
  132OSM    C7S14244   1.752   4.425   6.763  0.3294  0.4009 -0.2911
  132OSM    H7S14245   1.797   4.496   6.836  1.0420 -0.5330  0.1963
  132OSM    H7T14246   1.781   4.320   6.784 -0.7958  0.4060  1.3826
  132OSM    C8S14247   1.600   4.434   6.774  0.5745  0.3002  0.0294
  132OSM    H8S14248   1.561   4.364   6.697  0.1279  0.4386  0.1306
  132OSM    H8T14249   1.552   4.531   6.751 -0.2770 -0.3609 -1.0892
  132OSM    C9S14250   1.552   4.387   6.911 -0.1069 -0.0799 -0.1175
  132OSM    H9S14251   1.564   4.277   6.914 -1.5804 -0.2345  0.6181
  132OSM    H9T14252   1.448   4.416   6.937  0.0275 -0.6316  1.1176
  132OSM   C10S14253   1.634   4.436   7.032  0.0778  0.1679  0.2387
  132OSM   H10S14254   1.682   4.534   7.011  0.4993 -0.2154 -0.6361
  132OSM   H10T14255   1.724   4.370   7.039  0.7428  0.9151 -0.8257
  132OSM   C11S14256   1.559   4.418   7.170  0.4586 -0.7308  0.4331
  132OSM   H11S14257   1.466   4.359   7.155  1.6332 -2.2449 -1.2778
  132OSM   H11T14258   1.530   4.524   7.188  2.0177  0.1535 -1.8394
  132OSM   C12S14259   1.642   4.357   7.281 -0.0119  1.1639  0.4510
  132OSM   H12S14260   1.735   4.412   7.306 -0.8404  2.2142  1.3001
  132OSM   H12T14261   1.654   4.250   7.254 -3.9058  0.1073  2.1259
  132OSM   C13S14262   1.569   4.349   7.411  0.0904  0.2026 -0.0579
  132OSM   H13S14263   1.480   4.285   7.395  0.1467  0.3200 -0.8913
  132OSM   H13T14264   1.529   4.451   7.427 -0.6518  0.4336 -2.8423
  132OSM   C14S14265   1.661   4.303   7.521 -0.2799  0.4736  0.3219
  132OSM   H14S14266   1.737   4.381   7.539 -1.6157  1.2709  2.9864
  132OSM   H14T14267   1.700   4.203   7.493 -2.6724 -0.8752  1.4749
  132OSM   C15S14268   1.596   4.281   7.663 -0.6168  0.2971  0.2586
  132OSM   H15S14269   1.666   4.226   7.730  0.9429 -0.0877 -1.5964
  132OSM   H15T14270   1.506   4.216   7.662  1.1175 -2.2643  0.7062
  132OSM   C16S14271   1.546   4.411   7.725 -0.4671 -0.7746  0.1842
  132OSM   H16S14272   1.451   4.433   7.672 -0.8388  0.2036  1.2107
  132OSM   H16T14273   1.616   4.497   7.713  1.7146 -2.7103 -1.7045
  132OSM   C17S14274   1.514   4.397   7.873 -0.4134 -0.3822  0.0705
  132OSM   H17S14275   1.450   4.308   7.885  0.5521 -1.0487  0.4324
  132OSM   H17T14276   1.461   4.488   7.909 -1.7106 -1.1991  0.2559
  132OSM   C18S14277   1.639   4.395   7.953  0.4686  0.2128 -0.4768
  132OSM   H18S14278   1.721   4.326   7.922  2.5031  2.2533  0.0481
  132OSM   H18T14279   1.610   4.383   8.060  1.1559  2.5253  0.0293
  132OSM   H18U14280   1.684   4.496   7.946 -3.1324  2.0458  0.2990
  132OSM    C1F14281   1.730   3.876   6.597 -0.0906 -0.0023 -0.6289
  132OSM     OF14282   1.833   3.810   6.573  0.6048 -0.5092 -0.8790
  132OSM    C2F14283   1.633   3.837   6.703 -0.9289  0.2882 -0.6696
  132OSM    H2F14284   1.647   3.729   6.727  0.3962  0.9697  2.0280
  132OSM    H2G14285   1.530   3.854   6.665 -1.0906  1.3709  0.2101
  132OSM    C3F14286   1.650   3.923   6.825 -0.8813 -0.8024 -0.1683
  132OSM    H3F14287   1.627   4.030   6.806  1.3668 -0.6888 -2.8035
  132OSM    H3G14288   1.756   3.914   6.857 -0.7793  0.9796  0.0682
  132OSM    C4F14289   1.549   3.891   6.936  0.4373  0.0289  0.2233
  132OSM    H4F14290   1.535   3.782   6.948  1.3152  0.0288  1.5054
  132OSM    H4G14291   1.453   3.933   6.898  1.0976  0.3936 -1.0930
  132OSM    C5F14292   1.580   3.958   7.071 -0.5587 -0.1983  0.5418
  132OSM    H5F14293   1.628   4.059   7.066  0.9687 -0.8245  1.7412
  132OSM    H5G14294   1.669   3.904   7.111 -2.0663 -2.8451  0.5155
  132OSM    C6F14295   1.470   3.947   7.169  1.0316 -0.2705 -0.5704
  132OSM    H6F14296   1.422   3.847   7.165  1.7944 -0.6848  0.1504
  132OSM    H6G14297   1.386   4.015   7.144 -0.7934 -1.6857  1.3642
  132OSM    C7F14298   1.512   3.967   7.316  0.3537  0.3698  0.0799
  132OSM    H7F14299   1.560   4.065   7.332  0.5778  0.6580 -2.0578
  132OSM    H7G14300   1.599   3.899   7.324 -0.9164 -1.3794 -0.2695
  132OSM    C8F14301   1.411   3.927   7.423 -0.1154 -0.2937  0.1560
  132OSM    H8F14302   1.463   3.946   7.519  1.3538  1.0398 -0.8607
  132OSM    H8G14303   1.393   3.817   7.419  1.3795 -0.5189 -0.9006
  132OSM    C9F14304   1.291   4.016   7.415 -0.3837  0.2016 -0.4222
  132OSM    H9F14305   1.264   4.044   7.312 -0.2838 -0.3443 -0.5985
  132OSM   C10F14306   1.223   4.067   7.511 -0.2002  0.4235  0.2997
  132OSM   H10F14307   1.144   4.136   7.476 -0.5324 -0.9308 -1.8393
  132OSM   C11F14308   1.253   4.057   7.653 -0.4015 -0.0027  0.0220
  132OSM   H11F14309   1.245   4.160   7.694  2.4967  0.1686  0.3489
  132OSM   H11G14310   1.357   4.027   7.680  0.0131  0.9644 -0.4468
  132OSM   C12F14311   1.155   3.960   7.728 -0.8125 -0.2931  0.3183
  132OSM   H12F14312   1.130   3.860   7.688 -2.2278 -0.3489  1.2542
  132OSM   H12G14313   1.059   4.017   7.728 -0.6393  0.0100  1.1003
  132OSM   C13F14314   1.189   3.939   7.872 -0.2056 -0.0488 -0.3067
  132OSM   H13F14315   1.180   4.042   7.912  1.7134 -0.0591  0.2575
  132OSM   H13G14316   1.295   3.905   7.873  0.5767  2.1723 -1.4025
  132OSM   C14F14317   1.106   3.835   7.949 -0.1176  0.3424 -0.4058
  132OSM   H14F14318   1.000   3.845   7.917 -0.6867  2.4360  1.9123
  132OSM   H14G14319   1.122   3.852   8.057 -1.4314  1.2556 -0.3286
  132OSM   C15F14320   1.153   3.693   7.923 -0.2949  0.0434  0.6371
  132OSM   H15F14321   1.259   3.693   7.888 -0.9020  0.8098 -1.3680
  132OSM   H15G14322   1.096   3.642   7.843  2.2286  0.2623 -1.4604
  132OSM   C16F14323   1.151   3.599   8.039 -0.6383 -0.8200 -1.2232
  132OSM   H16F14324   1.177   3.499   7.997  0.6181 -0.4414 -1.3969
  132OSM   H16G14325   1.048   3.589   8.078 -1.0518  2.7266 -1.1006
  132OSM   C17F14326   1.241   3.631   8.166 -0.2462  0.1721 -0.1437
  132OSM   H17F14327   1.250   3.739   8.190  3.8533  0.3505 -1.5194
  132OSM   H17G14328   1.347   3.605   8.142  0.6756 -1.2737  4.5475
  132OSM   C18F14329   1.197   3.553   8.289  0.5616  0.2188  0.0447
  132OSM   H18F14330   1.209   3.446   8.261 -0.4547  0.5744 -1.9105
  132OSM   H18G14331   1.094   3.574   8.323  0.3344 -0.1358 -0.4174
  132OSM   H18H14332   1.266   3.579   8.372  1.6879  1.2013 -1.1595
  133OSM      N14333   2.158   4.463   6.049  0.5267 -0.8434 -0.2188
  133OSM    C1514334   2.159   4.578   6.154 -0.4978  0.5030  0.4650
  133OSM   H15A14335   2.056   4.601   6.176 -0.6240  0.2389  0.1455
  133OSM   H15B14336   2.197   4.670   6.112  1.8333  0.6734  2.6769
  133OSM   H15C14337   2.223   4.555   6.238  2.2816  0.7363 -1.4656
  133OSM    C1414338   2.059   4.493   5.942  0.3882  0.0197  0.1344
  133OSM   H14A14339   2.078   4.592   5.902 -0.4761  0.3145  0.4243
  133OSM   H14B14340   1.958   4.494   5.980  0.7004 -2.5891  1.2319
  133OSM   H14C14341   2.062   4.409   5.874  2.0804 -0.7596  1.1250
  133OSM    C1314342   2.293   4.457   5.988 -0.1322 -0.1822 -0.6473
  133OSM   H13A14343   2.359   4.465   6.073 -0.4157 -0.5678 -0.3914
  133OSM   H13B14344   2.309   4.545   5.927 -2.5957 -0.5014 -1.8758
  133OSM   H13C14345   2.294   4.368   5.927 -0.1552 -0.8593  0.3225
  133OSM    C1214346   2.118   4.332   6.117  0.4085  0.5120  0.3557
  133OSM   H12A14347   2.019   4.338   6.160 -0.0402  0.3235 -0.6261
  133OSM   H12B14348   2.178   4.325   6.206 -1.0158 -3.3122  1.1922
  133OSM    C1114349   2.113   4.200   6.027  0.2963 -0.0973 -0.2923
  133OSM   H11A14350   2.035   4.219   5.950  0.0563  0.9488  0.1916
  133OSM   H11B14351   2.088   4.116   6.095  0.0068 -0.7252 -1.1597
  133OSM      P14352   2.360   4.105   6.053  0.2536  0.0147  0.1048
  133OSM    O1314353   2.358   3.962   6.018  0.4405 -0.0204  0.9589
  133OSM    O1414354   2.484   4.179   6.028 -0.1658  0.1790 -0.0874
  133OSM    O1114355   2.324   4.113   6.211 -0.1832 -0.4214  0.6481
  133OSM    O1214356   2.237   4.171   5.972 -0.2997 -0.0775  0.2662
  133OSM    C1S14357   2.345   4.004   6.288  0.6081  0.0054  0.2041
  133OSM    H1S14358   2.452   3.976   6.279 -0.0371 -2.0917 -1.8349
  133OSM    H1T14359   2.282   3.918   6.257  2.4446 -1.3032 -0.1013
  133OSM     NF14360   2.338   3.907   6.510  0.2663 -0.6506 -0.2084
  133OSM    HNF14361   2.268   3.838   6.526  0.6445 -0.8111  0.8012
  133OSM    C2S14362   2.314   4.035   6.439 -0.8750  0.1503  0.0441
  133OSM    H2S14363   2.393   4.106   6.470 -2.0903  2.1259 -1.1659
  133OSM    C3S14364   2.174   4.096   6.464 -0.1498 -0.8534  0.3426
  133OSM    H3S14365   2.095   4.029   6.423 -0.9660  0.1806  0.1683
  133OSM     O314366   2.157   4.228   6.416  0.5764 -0.0681  0.0124
  133OSM    HO314367   2.244   4.253   6.386  1.0154 -2.1498 -0.5781
  133OSM    C4S14368   2.153   4.109   6.611  0.6100 -0.0084 -0.4770
  133OSM    H4S14369   2.240   4.154   6.661  0.3680  0.8453 -0.8064
  133OSM    C5S14370   2.048   4.058   6.694 -0.9743 -0.0633 -0.3475
  133OSM    H5S14371   1.965   4.012   6.637 -1.3750 -0.9988  0.9589
  133OSM    C6S14372   2.030   4.055   6.842  0.3922 -0.1524 -0.3214
  133OSM    H6S14373   2.086   3.968   6.884  1.0406  0.1492 -0.5550
  133OSM    H6T14374   1.925   4.048   6.877  0.7486  0.9627  1.0549
  133OSM    C7S14375   2.097   4.171   6.924 -0.3550  0.8130 -0.3999
  133OSM    H7S14376   2.096   4.264   6.863  3.2570 -0.4975 -2.8643
  133OSM    H7T14377   2.204   4.148   6.943 -0.2392  0.6597 -1.1809
  133OSM    C8S14378   2.015   4.182   7.055 -0.2883  0.7996 -0.2343
  133OSM    H8S14379   1.910   4.200   7.024 -0.5474 -0.7990 -0.4227
  133OSM    H8T14380   2.061   4.267   7.110  2.5356  0.2496 -1.5494
  133OSM    C9S14381   2.031   4.048   7.126  0.0597 -0.7462 -1.0661
  133OSM    H9S14382   2.139   4.036   7.151  0.5763  1.5262 -1.9739
  133OSM    H9T14383   2.000   3.958   7.070  0.2974  0.2413 -2.8647
  133OSM   C10S14384   1.961   4.038   7.267  0.4261 -0.0817  0.5523
  133OSM   H10S14385   1.964   3.938   7.314 -1.2081 -0.1163  0.6433
  133OSM   H10T14386   1.854   4.054   7.243  0.5126  1.6112  1.1520
  133OSM   C11S14387   2.018   4.143   7.366  0.0852  0.3846  0.7747
  133OSM   H11S14388   1.975   4.245   7.360  1.6012  1.0044 -0.2302
  133OSM   H11T14389   2.128   4.152   7.350  0.1160  0.0201  0.7621
  133OSM   C12S14390   1.987   4.105   7.516 -0.2978 -0.5514 -0.2883
  133OSM   H12S14391   2.034   4.005   7.521  0.7728 -0.1435 -1.4401
  133OSM   H12T14392   1.877   4.108   7.531 -0.6856 -0.2041 -2.6880
  133OSM   C13S14393   2.035   4.204   7.623  0.1341 -0.4193 -0.2542
  133OSM   H13S14394   1.990   4.305   7.615  1.2465  0.0322 -0.9041
  133OSM   H13T14395   2.145   4.218   7.630  0.1725 -0.6987 -0.2912
  133OSM   C14S14396   2.009   4.155   7.767 -0.6434  0.1123 -0.0455
  133OSM   H14S14397   2.064   4.059   7.780 -0.8792 -0.1811 -1.1274
  133OSM   H14T14398   1.907   4.111   7.766 -0.2766 -0.8128 -1.8448
  133OSM   C15S14399   2.030   4.259   7.880  0.1627 -0.2894 -0.2628
  133OSM   H15S14400   1.950   4.335   7.866 -0.4669  0.3678  5.0393
  133OSM   H15T14401   2.122   4.322   7.880  0.1367 -0.2430  0.9499
  133OSM   C16S14402   2.004   4.197   8.023 -0.1194  0.0356  0.0826
  133OSM   H16S14403   2.078   4.114   8.022 -1.8729 -1.5937 -0.0682
  133OSM   H16T14404   1.902   4.153   8.023  0.5777 -1.6720 -0.4037
  133OSM   C17S14405   2.023   4.281   8.153 -0.7991 -0.6675 -0.3695
  133OSM   H17S14406   1.943   4.358   8.149 -0.7284 -0.6303 -1.3610
  133OSM   H17T14407   2.123   4.331   8.148 -1.8768  1.7965  0.7325
  133OSM   C18S14408   2.024   4.200   8.281 -0.0219 -0.5870 -0.3357
  133OSM   H18S14409   2.119   4.142   8.286 -1.1658 -3.1064 -4.0277
  133OSM   H18T14410   1.941   4.128   8.270  0.2527 -0.6666 -2.1803
  133OSM   H18U14411   2.009   4.272   8.365 -0.4491 -1.6032  0.4761
  133OSM    C1F14412   2.457   3.857   6.532 -0.4313 -0.1022  0.2756
  133OSM     OF14413   2.557   3.915   6.485  0.4329 -0.4476  0.2167
  133OSM    C2F14414   2.473   3.729   6.610  0.1745  0.4139  0.2924
  133OSM    H2F14415   2.556   3.730   6.684  0.3410  1.2696  0.1006
  133OSM    H2G14416   2.496   3.652   6.532 -0.7045  0.6865 -0.2556
  133OSM    C3F14417   2.340   3.679   6.676  0.7555  0.4314  0.3432
  133OSM    H3F14418   2.367   3.578   6.711  1.7552  1.6149  3.2645
  133OSM    H3G14419   2.257   3.670   6.602  1.4491 -0.8875 -0.3018
  133OSM    C4F14420   2.300   3.752   6.804 -0.1591  0.4309 -0.3938
  133OSM    H4F14421   2.237   3.840   6.778 -4.7647 -2.4821 -0.3005
  133OSM    H4G14422   2.393   3.769   6.862  1.3914 -2.4185 -1.8160
  133OSM    C5F14423   2.201   3.668   6.886 -0.6239  0.4371  0.2246
  133OSM    H5F14424   2.144   3.597   6.822  0.4565 -1.1008  0.9168
  133OSM    H5G14425   2.119   3.725   6.934 -0.3279  0.6830  0.4404
  133OSM    C6F14426   2.269   3.575   6.992  0.3384 -0.5528  0.2200
  133OSM    H6F14427   2.351   3.535   6.927  0.2076  0.0341 -0.3109
  133OSM    H6G14428   2.209   3.487   7.023 -0.4828  0.9739  3.2998
  133OSM    C7F14429   2.309   3.654   7.116  0.1649 -0.2997 -0.3439
  133OSM    H7F14430   2.229   3.720   7.157 -1.2912 -1.4583 -1.2411
  133OSM    H7G14431   2.396   3.714   7.081 -0.3527  1.1143  0.7101
  133OSM    C8F14432   2.365   3.556   7.223 -0.2667 -0.6073  0.9274
  133OSM    H8F14433   2.428   3.624   7.285 -2.4137  0.7140  1.7749
  133OSM    H8G14434   2.441   3.491   7.175 -1.5710 -1.0072 -0.7006
  133OSM    C9F14435   2.254   3.488   7.298  0.9924 -0.0739 -0.2342
  133OSM    H9F14436   2.218   3.397   7.248 -0.1363 -0.3897  1.0667
  133OSM   C10F14437   2.189   3.530   7.418 -0.1261 -0.7632  0.9760
  133OSM   H10F14438   2.102   3.481   7.464 -1.5422  0.5888 -0.1789
  133OSM   C11F14439   2.223   3.654   7.494  0.8462  0.1001  0.2438
  133OSM   H11F14440   2.122   3.690   7.520  1.6398  1.6566  1.3384
  133OSM   H11G14441   2.275   3.730   7.431 -0.3068 -0.5090 -1.4985
  133OSM   C12F14442   2.300   3.615   7.626  0.7347  0.8374 -0.0609
  133OSM   H12F14443   2.236   3.540   7.678  1.4595 -0.5834 -1.1809
  133OSM   H12G14444   2.311   3.710   7.683 -1.1210 -0.3604  2.5177
  133OSM   C13F14445   2.439   3.541   7.622 -0.2871  0.0901 -0.0254
  133OSM   H13F14446   2.505   3.620   7.579  1.0244 -1.7662 -1.5809
  133OSM   H13G14447   2.439   3.449   7.560 -0.2676 -0.4571  0.7656
  133OSM   C14F14448   2.495   3.507   7.764  0.3311 -0.6095  0.5707
  133OSM   H14F14449   2.594   3.457   7.754  1.1163  0.5379  2.2088
  133OSM   H14G14450   2.437   3.420   7.801  1.3925 -1.1901  0.9037
  133OSM   C15F14451   2.499   3.623   7.870 -0.1850 -0.0950 -0.0314
  133OSM   H15F14452   2.395   3.640   7.905 -1.1112 -2.0508 -1.6268
  133OSM   H15G14453   2.533   3.721   7.830  2.3138 -0.7235  0.3641
  133OSM   C16F14454   2.576   3.599   8.003 -0.2842  0.0038  0.0285
  133OSM   H16F14455   2.560   3.679   8.078 -1.5321 -1.4531  1.3844
  133OSM   H16G14456   2.683   3.594   7.975  0.1361 -0.9112  1.6938
  133OSM   C17F14457   2.556   3.459   8.072  0.4533 -0.1535  0.4061
  133OSM   H17F14458   2.587   3.383   7.998  1.5474  0.6631 -0.0039
  133OSM   H17G14459   2.448   3.433   8.077  0.7563 -1.6548 -0.5235
  133OSM   C18F14460   2.603   3.452   8.218  0.0550  0.3117  0.3451
  133OSM   H18F14461   2.710   3.420   8.219 -0.2874 -0.8855 -0.1889
  133OSM   H18G14462   2.555   3.367   8.271 -1.5566  1.1721  0.3162
  133OSM   H18H14463   2.575   3.537   8.283 -1.6080 -0.7568  1.0910
  134OSM      N14464   3.908   6.432   6.088  0.0113  0.0659 -0.3181
  134OSM    C1514465   3.835   6.535   6.018 -0.4792  0.5722 -0.2718
  134OSM   H15A14466   3.733   6.541   6.054 -1.2065 -1.4103 -1.7655
  134OSM   H15B14467   3.814   6.500   5.918  1.1831 -0.9058 -0.1632
  134OSM   H15C14468   3.887   6.629   6.022 -0.5454  0.6342  3.9806
  134OSM    C1414469   4.042   6.409   6.015  0.4384 -0.1124 -0.2064
  134OSM   H14A14470   4.095   6.494   5.974 -2.0072  0.1399 -3.2202
  134OSM   H14B14471   4.025   6.347   5.928 -2.0208 -0.3176  0.3416
  134OSM   H14C14472   4.116   6.360   6.077  4.0087  2.5734 -1.9405
  134OSM    C1314473   3.943   6.485   6.219 -0.4015 -0.0180 -0.4540
  134OSM   H13A14474   3.853   6.485   6.279 -0.2731 -1.3108 -0.2333
  134OSM   H13B14475   3.987   6.583   6.208 -0.2054 -0.0171  0.3027
  134OSM   H13C14476   4.023   6.426   6.261  0.4940  0.9296 -0.7914
  134OSM    C1214477   3.831   6.305   6.115 -0.0995 -0.0113  0.1505
  134OSM   H12A14478   3.889   6.225   6.158  0.2195  0.6590  0.9852
  134OSM   H12B14479   3.809   6.256   6.021  0.8371 -1.3873  0.6225
  134OSM    C1114480   3.695   6.302   6.194 -0.3091 -0.2438  0.5113
  134OSM   H11A14481   3.712   6.307   6.304  0.8126  1.7298  0.2975
  134OSM   H11B14482   3.648   6.204   6.173 -1.3566  0.2096  0.6740
  134OSM      P14483   3.551   6.512   6.241  0.0673  0.3862 -0.1308
  134OSM    O1314484   3.530   6.636   6.171  0.0668  0.3293 -0.1638
  134OSM    O1414485   3.430   6.452   6.299 -0.5210 -0.4414  0.4307
  134OSM    O1114486   3.659   6.537   6.352  0.6063  0.0260 -0.3705
  134OSM    O1214487   3.611   6.400   6.143  0.6781 -0.6658 -0.2317
  134OSM    C1S14488   3.650   6.645   6.442 -0.8354  0.6414 -0.4657
  134OSM    H1S14489   3.550   6.692   6.434 -1.0384  0.3370  0.1852
  134OSM    H1T14490   3.733   6.714   6.416  0.8376 -1.2575 -0.5142
  134OSM     NF14491   3.650   6.716   6.672 -0.2217 -0.8321  0.1564
  134OSM    HNF14492   3.734   6.745   6.718 -1.4891  0.4540  1.7619
  134OSM    C2S14493   3.660   6.601   6.589 -0.2968  0.8169 -0.1194
  134OSM    H2S14494   3.568   6.543   6.610  0.1595 -1.2611 -3.1876
  134OSM    C3S14495   3.791   6.526   6.612 -0.8005 -0.7008  0.4913
  134OSM    H3S14496   3.874   6.600   6.612 -0.4390 -1.0524  2.2670
  134OSM     O314497   3.821   6.434   6.518 -0.3459  0.1508  0.4422
  134OSM    HO314498   3.762   6.445   6.443  0.3235 -3.3046 -0.7894
  134OSM    C4S14499   3.798   6.453   6.751  1.0077 -0.2092 -0.2367
  134OSM    H4S14500   3.844   6.511   6.833 -0.9246 -1.0125  1.5093
  134OSM    C5S14501   3.739   6.336   6.779  0.4361  0.0756  0.6445
  134OSM    H5S14502   3.686   6.278   6.702 -0.5805  0.0395  1.3469
  134OSM    C6S14503   3.734   6.271   6.914  0.6081 -0.3633  0.4812
  134OSM    H6S14504   3.805   6.186   6.910  1.4143  0.1628  2.3121
  134OSM    H6T14505   3.631   6.233   6.931  0.7144 -1.2200 -0.7337
  134OSM    C7S14506   3.765   6.361   7.043  0.4407  0.7566 -0.7380
  134OSM    H7S14507   3.679   6.425   7.070  0.5314  0.5534  0.0741
  134OSM    H7T14508   3.856   6.421   7.022  0.0477  1.7652  0.3216
  134OSM    C8S14509   3.797   6.264   7.161 -0.2971  0.1631 -0.5896
  134OSM    H8S14510   3.874   6.190   7.128  0.7266  0.9377  0.0016
  134OSM    H8T14511   3.705   6.210   7.188 -0.3180  0.6262  0.2948
  134OSM    C9S14512   3.858   6.336   7.282  0.2438  0.0893  0.0901
  134OSM    H9S14513   3.795   6.422   7.313  2.0063  2.1197 -1.6205
  134OSM    H9T14514   3.948   6.390   7.245 -0.0218  0.9965  0.7155
  134OSM   C10S14515   3.890   6.245   7.396  0.4961  0.0852  0.6551
  134OSM   H10S14516   3.965   6.170   7.363  0.7955  0.3320  0.7646
  134OSM   H10T14517   3.797   6.187   7.407  0.3905  0.4176  1.5888
  134OSM   C11S14518   3.919   6.319   7.525 -0.8063  0.3871 -0.4725
  134OSM   H11S14519   3.843   6.396   7.547  0.2603  1.2430  0.3343
  134OSM   H11T14520   4.011   6.373   7.494 -0.7621  0.2244 -0.6315
  134OSM   C12S14521   3.945   6.218   7.643 -0.6487 -0.4726 -0.1894
  134OSM   H12S14522   4.037   6.164   7.612 -1.0878 -1.5338  0.3385
  134OSM   H12T14523   3.862   6.146   7.659 -0.4335 -0.6342  0.1946
  134OSM   C13S14524   3.968   6.302   7.774 -0.1872 -0.5187 -0.5377
  134OSM   H13S14525   3.876   6.362   7.791 -0.4349 -0.8719 -0.6113
  134OSM   H13T14526   4.053   6.372   7.757  2.0177 -2.4887  1.5388
  134OSM   C14S14527   3.989   6.209   7.894  0.2519 -0.3011  0.6652
  134OSM   H14S14528   4.061   6.129   7.866 -1.0875 -1.7041  1.0608
  134OSM   H14T14529   3.893   6.153   7.900 -1.2082  1.4541 -3.0364
  134OSM   C15S14530   4.036   6.288   8.010  0.2596 -0.6049  0.4818
  134OSM   H15S14531   3.973   6.378   8.021  1.4357  0.5245 -1.4696
  134OSM   H15T14532   4.139   6.331   8.003 -0.5208  1.5080  1.1666
  134OSM   C16S14533   4.035   6.213   8.143  0.2284  0.1810 -0.7877
  134OSM   H16S14534   3.937   6.161   8.153 -0.0513  0.3616 -2.3500
  134OSM   H16T14535   4.030   6.288   8.225  0.2637 -2.4256  1.7784
  134OSM   C17S14536   4.150   6.121   8.166 -0.5020  0.4770  0.2331
  134OSM   H17S14537   4.243   6.181   8.166  0.5978 -0.8185 -4.4913
  134OSM   H17T14538   4.154   6.046   8.083 -0.8514  0.8243 -0.1058
  134OSM   C18S14539   4.138   6.029   8.281  0.2227 -0.6852 -0.4505
  134OSM   H18S14540   4.135   6.074   8.383 -1.6317 -0.6024 -0.5095
  134OSM   H18T14541   4.229   5.966   8.284  0.4363 -0.4011 -0.8533
  134OSM   H18U14542   4.051   5.961   8.269 -1.5027  1.3774 -0.3145
  134OSM    C1F14543   3.539   6.785   6.685  0.0052 -0.3111 -0.3447
  134OSM     OF14544   3.433   6.730   6.649 -0.4082 -0.2302  0.6308
  134OSM    C2F14545   3.551   6.933   6.702  1.3617 -0.5843 -0.3635
  134OSM    H2F14546   3.550   6.972   6.598  1.2097  2.4309  0.6824
  134OSM    H2G14547   3.653   6.963   6.735  0.5693  1.8755  0.0495
  134OSM    C3F14548   3.442   6.991   6.796 -1.1426  0.4665  0.0610
  134OSM    H3F14549   3.347   6.992   6.739 -1.3703 -0.6153  0.3974
  134OSM    H3G14550   3.466   7.098   6.812  0.8433  0.1116 -0.2838
  134OSM    C4F14551   3.416   6.925   6.938  0.5187 -0.1699  0.9102
  134OSM    H4F14552   3.505   6.947   7.001  1.4248 -1.0075 -0.0257
  134OSM    H4G14553   3.414   6.814   6.925  1.1225 -0.2825  1.7094
  134OSM    C5F14554   3.288   6.979   7.007 -0.1594  0.2529 -0.3462
  134OSM    H5F14555   3.204   6.933   6.952 -0.6071 -0.4876  0.9196
  134OSM    H5G14556   3.279   7.090   7.007  2.5537  0.5691  1.4576
  134OSM    C6F14557   3.278   6.913   7.147 -0.2681 -0.0470  0.2891
  134OSM    H6F14558   3.379   6.906   7.193 -0.0612 -0.5555 -0.2164
  134OSM    H6G14559   3.232   6.812   7.131 -1.0211  0.2135  0.7557
  134OSM    C7F14560   3.183   6.990   7.245  0.3143 -0.0573 -0.0248
  134OSM    H7F14561   3.085   7.000   7.193  0.0205  3.2383  0.8916
  134OSM    H7G14562   3.219   7.094   7.255 -0.7489  0.1896  1.7258
  134OSM    C8F14563   3.165   6.925   7.381 -0.0789 -0.0423  0.3376
  134OSM    H8F14564   3.146   6.816   7.374 -1.1052 -0.0287  2.1018
  134OSM    H8G14565   3.083   6.962   7.447  0.4435 -0.3099  1.1455
  134OSM    C9F14566   3.301   6.926   7.453  0.0554  0.2512  0.8682
  134OSM    H9F14567   3.368   6.841   7.431 -0.7773 -0.3840  0.7119
  134OSM   C10F14568   3.326   7.002   7.558  0.5888 -0.0456 -0.2956
  134OSM   H10F14569   3.427   6.996   7.602  1.3697 -1.0290 -2.0988
  134OSM   C11F14570   3.235   7.109   7.611 -0.1360  0.3340 -1.3919
  134OSM   H11F14571   3.142   7.139   7.556  0.5394  2.6355 -1.3681
  134OSM   H11G14572   3.292   7.201   7.587  1.2478 -0.2280 -0.3575
  134OSM   C12F14573   3.210   7.100   7.760 -0.4728  0.2833 -0.6308
  134OSM   H12F14574   3.168   7.197   7.793  0.2893  0.4876 -0.2572
  134OSM   H12G14575   3.308   7.110   7.811  0.3447  0.7990 -2.2252
  134OSM   C13F14576   3.129   6.986   7.813  0.2037  0.1880 -0.5989
  134OSM   H13F14577   3.191   6.902   7.775 -0.2668  0.0961 -1.1832
  134OSM   H13G14578   3.035   6.971   7.755 -0.2598  0.5166  0.0541
  134OSM   C14F14579   3.109   6.991   7.964 -0.6259 -0.0360  0.1451
  134OSM   H14F14580   3.031   6.924   8.005 -0.7814  1.7885  3.1486
  134OSM   H14G14581   3.068   7.085   8.005  1.1781  0.5020  0.8286
  134OSM   C15F14582   3.239   6.990   8.043 -0.5303  0.3320  0.3564
  134OSM   H15F14583   3.295   7.082   8.016 -1.0326  0.5661  0.1173
  134OSM   H15G14584   3.288   6.902   7.997  0.5876  1.8681 -1.5577
  134OSM   C16F14585   3.231   6.993   8.189 -0.2536 -0.5295 -0.7963
  134OSM   H16F14586   3.171   6.903   8.214 -1.3869  0.0598 -1.3350
  134OSM   H16G14587   3.167   7.077   8.221 -2.7552 -3.1545  1.7514
  134OSM   C17F14588   3.374   6.992   8.256  0.1859 -0.4421 -0.2194
  134OSM   H17F14589   3.420   7.075   8.198  3.5060 -1.9872 -0.0276
  134OSM   H17G14590   3.428   6.900   8.225  1.5191  0.4565 -0.6539
  134OSM   C18F14591   3.390   6.998   8.412 -0.8064  0.4057 -0.5391
  134OSM   H18F14592   3.347   6.907   8.459  1.3771 -0.4775 -0.1645
  134OSM   H18G14593   3.346   7.092   8.453 -0.0478 -0.1059  1.5562
  134OSM   H18H14594   3.499   7.003   8.434 -0.8860  0.7256 -0.2169
  135OSM      N14595   2.815   6.578   5.964  0.0890  0.1534 -0.2770
  135OSM    C1514596   2.695   6.529   5.882  0.0841 -0.6855  0.6451
  135OSM   H15A14597   2.716   6.522   5.776  0.4776  0.6468  0.6167
  135OSM   H15B14598   2.626   6.612   5.878 -1.2511 -1.7738 -0.3814
  135OSM   H15C14599   2.635   6.453   5.932  1.4401 -2.3379 -0.1372
  135OSM    C1414600   2.919   6.471   5.964 -0.3906  0.2599 -0.5612
  135OSM   H14A14601   3.004   6.487   6.029  0.8911  0.9663 -2.3289
  135OSM   H14B14602   2.952   6.461   5.862  1.9337  0.8803  0.0714
  135OSM   H14C14603   2.878   6.378   5.999  1.5990 -1.2297 -1.9921
  135OSM    C1314604   2.872   6.692   5.899 -0.0221  0.3943  0.1357
  135OSM   H13A14605   2.917   6.750   5.977  1.6512 -1.5487  0.6909
  135OSM   H13B14606   2.793   6.747   5.849  0.7932 -0.3473 -2.0565
  135OSM   H13C14607   2.937   6.663   5.818 -0.4881 -0.7919  0.1603
  135OSM    C1214608   2.770   6.610   6.104 -0.5676  0.5650 -0.1271
  135OSM   H12A14609   2.761   6.512   6.149  2.1930  0.0146 -0.6183
  135OSM   H12B14610   2.675   6.662   6.098 -0.1942  1.1979 -5.1895
  135OSM    C1114611   2.853   6.710   6.194 -0.6059 -0.8937  0.6200
  135OSM   H11A14612   2.953   6.664   6.185 -0.0416  0.6150 -1.5852
  135OSM   H11B14613   2.831   6.708   6.303 -0.3913 -2.0811  0.6544
  135OSM      P14614   2.734   6.931   6.177  0.0355  0.1053 -0.3058
  135OSM    O1314615   2.768   7.072   6.145  0.3880  0.1457 -0.2615
  135OSM    O1414616   2.608   6.879   6.117 -0.6372  0.1977  0.0592
  135OSM    O1114617   2.726   6.916   6.342  0.1287 -0.0196 -0.3518
  135OSM    O1214618   2.859   6.843   6.140 -0.2995  0.0349  0.4092
  135OSM    C1S14619   2.837   6.972   6.408  0.2389 -0.1256  0.2366
  135OSM    H1S14620   2.828   7.083   6.400  2.9444  0.1896  0.6532
  135OSM    H1T14621   2.932   6.937   6.364  1.3680  1.1364  1.5481
  135OSM     NF14622   2.954   7.012   6.610  0.2442  0.6701 -0.3490
  135OSM    HNF14623   3.034   6.953   6.620 -0.6472 -0.6028 -0.5108
  135OSM    C2S14624   2.839   6.941   6.562 -0.1989 -0.6426  0.6261
  135OSM    H2S14625   2.753   6.980   6.620 -1.0974 -3.0753  1.0550
  135OSM    C3S14626   2.839   6.786   6.588 -0.4036  0.8328  0.4938
  135OSM    H3S14627   2.919   6.746   6.522 -0.9075 -1.2177  1.0486
  135OSM     O314628   2.715   6.731   6.540 -0.1986  0.0793 -0.0936
  135OSM    HO314629   2.667   6.810   6.511  1.1960  0.5035 -1.3990
  135OSM    C4S14630   2.854   6.756   6.731 -0.1825 -0.2515 -0.5784
  135OSM    H4S14631   2.767   6.781   6.793 -0.7780 -2.4166 -0.4469
  135OSM    C5S14632   2.969   6.714   6.796 -0.1838  0.0680 -0.3662
  135OSM    H5S14633   3.059   6.688   6.738 -0.0718 -0.3150 -0.0232
  135OSM    C6S14634   2.991   6.697   6.945  0.1518 -0.3467  0.0581
  135OSM    H6S14635   3.078   6.760   6.973  1.4758 -2.6295  1.3865
  135OSM    H6T14636   3.032   6.597   6.972  1.9852  0.5925  0.9818
  135OSM    C7S14637   2.867   6.727   7.040 -0.3180  0.3131 -0.2753
  135OSM    H7S14638   2.785   6.655   7.020  1.2590 -1.8029  0.4609
  135OSM    H7T14639   2.824   6.828   7.023 -0.4478  0.2074 -0.5851
  135OSM    C8S14640   2.904   6.718   7.186  0.5785 -0.1569  0.2657
  135OSM    H8S14641   2.813   6.742   7.245 -1.9748  1.0814 -3.7543
  135OSM    H8T14642   2.985   6.785   7.220  2.6068 -2.4573  0.2856
  135OSM    C9S14643   2.967   6.581   7.213  0.1913  0.9319  0.5961
  135OSM    H9S14644   3.067   6.566   7.166 -0.6634  0.2508 -1.0999
  135OSM    H9T14645   2.909   6.499   7.166  1.1550 -0.5726  1.9209
  135OSM   C10S14646   2.991   6.550   7.363 -0.5260  0.1802 -0.4967
  135OSM   H10S14647   3.099   6.568   7.382 -0.1215  0.2511 -2.5797
  135OSM   H10T14648   2.981   6.441   7.380 -0.1488  0.1277 -0.6006
  135OSM   C11S14649   2.911   6.636   7.455 -0.4429  0.2474  0.1247
  135OSM   H11S14650   2.804   6.620   7.429 -0.3801 -0.4959  0.2826
  135OSM   H11T14651   2.928   6.744   7.438  0.8751 -0.1573 -1.4078
  135OSM   C12S14652   2.920   6.600   7.597 -0.5821  0.1587 -0.2851
  135OSM   H12S14653   2.871   6.501   7.608 -2.2831  1.0583  0.5024
  135OSM   H12T14654   2.856   6.670   7.656 -0.0850 -0.6908  1.3411
  135OSM   C13S14655   3.057   6.607   7.657  0.3058 -0.0064 -0.4287
  135OSM   H13S14656   3.096   6.709   7.640 -3.6124  1.7474  0.1494
  135OSM   H13T14657   3.120   6.534   7.602 -1.2348 -0.9839 -0.9682
  135OSM   C14S14658   3.046   6.583   7.806  0.4849  0.8561  0.4159
  135OSM   H14S14659   3.012   6.478   7.821 -0.7937  1.2199  0.1895
  135OSM   H14T14660   2.964   6.642   7.853  1.3939  3.3325 -0.9351
  135OSM   C15S14661   3.178   6.605   7.880  0.4487 -0.1341 -0.1962
  135OSM   H15S14662   3.225   6.701   7.850 -1.7686  1.6091  1.5252
  135OSM   H15T14663   3.253   6.525   7.860  0.0298 -0.5685 -0.0300
  135OSM   C16S14664   3.155   6.599   8.034 -0.5854 -0.1766 -0.2151
  135OSM   H16S14665   3.081   6.517   8.047 -0.4636 -0.5229 -1.5442
  135OSM   H16T14666   3.096   6.689   8.059 -0.3944  0.3820 -1.6722
  135OSM   C17S14667   3.290   6.581   8.103  0.0723 -0.6672 -0.0842
  135OSM   H17S14668   3.342   6.679   8.096 -0.8476 -0.2573 -1.8830
  135OSM   H17T14669   3.356   6.504   8.057  1.1924  0.5757 -0.6178
  135OSM   C18S14670   3.279   6.529   8.248  0.4715 -0.1951 -0.2749
  135OSM   H18S14671   3.375   6.526   8.304  0.3189 -0.8452 -0.0440
  135OSM   H18T14672   3.226   6.432   8.242  1.4445 -0.6825 -1.4195
  135OSM   H18U14673   3.217   6.603   8.304  1.2993  0.5257 -0.2721
  135OSM    C1F14674   2.971   7.142   6.633  0.4343  0.6400 -0.0150
  135OSM     OF14675   2.878   7.218   6.608 -1.1892  0.2817  0.0642
  135OSM    C2F14676   3.105   7.176   6.690  0.4219 -0.0211  0.4453
  135OSM    H2F14677   3.153   7.251   6.624 -0.2810  0.2637  0.2560
  135OSM    H2G14678   3.162   7.080   6.683 -1.9431 -1.3455 -2.4451
  135OSM    C3F14679   3.107   7.224   6.833  0.0797 -0.1302 -0.3974
  135OSM    H3F14680   3.211   7.250   6.862 -0.8266  2.6023  0.7107
  135OSM    H3G14681   3.072   7.143   6.901 -1.1578  0.4481 -0.3090
  135OSM    C4F14682   3.017   7.348   6.852 -0.0039  0.8020 -0.9512
  135OSM    H4F14683   2.916   7.304   6.858  1.4374 -2.7691 -0.7192
  135OSM    H4G14684   3.032   7.419   6.767 -2.7964  3.9980  0.9664
  135OSM    C5F14685   3.048   7.436   6.977 -0.1252  0.1930 -0.6834
  135OSM    H5F14686   3.009   7.539   6.968  0.1288  0.2295 -1.4878
  135OSM    H5G14687   3.159   7.437   6.987 -0.2609 -0.0390  1.2361
  135OSM    C6F14688   2.990   7.380   7.104  1.1232 -0.4662  0.1569
  135OSM    H6F14689   3.000   7.269   7.109  0.8228 -0.4478  1.5226
  135OSM    H6G14690   2.884   7.410   7.110  1.2556 -0.2415  1.8333
  135OSM    C7F14691   3.054   7.442   7.228  0.0749 -0.9953  0.1023
  135OSM    H7F14692   3.006   7.542   7.234  0.5462 -0.8578  2.8008
  135OSM    H7G14693   3.161   7.463   7.207  0.9618 -1.8023  3.2129
  135OSM    C8F14694   3.049   7.363   7.357 -0.3604  0.4075 -0.1486
  135OSM    H8F14695   3.111   7.414   7.434 -1.0909  0.9262  0.1169
  135OSM    H8G14696   3.096   7.263   7.345 -0.0048  0.1307  2.7888
  135OSM    C9F14697   2.909   7.342   7.401  0.5980 -0.4621 -0.3616
  135OSM    H9F14698   2.835   7.337   7.319  2.4123 -2.3217 -2.0094
  135OSM   C10F14699   2.857   7.326   7.522 -0.3310 -0.0327  0.4328
  135OSM   H10F14700   2.748   7.314   7.531 -0.7653  0.5512 -2.7363
  135OSM   C11F14701   2.923   7.320   7.656  0.6891 -0.0959  0.4994
  135OSM   H11F14702   3.030   7.350   7.651  0.9275 -1.0928 -1.9061
  135OSM   H11G14703   2.939   7.214   7.685 -1.4099 -0.1048  1.7832
  135OSM   C12F14704   2.851   7.403   7.760  0.0908 -0.1220 -0.4520
  135OSM   H12F14705   2.747   7.366   7.774 -0.1927  0.8814  0.2365
  135OSM   H12G14706   2.831   7.509   7.732 -1.4108  0.0433  1.0943
  135OSM   C13F14707   2.924   7.400   7.898 -0.3196 -0.3454  0.3666
  135OSM   H13F14708   3.028   7.440   7.898  0.2400 -1.7553  0.1902
  135OSM   H13G14709   2.934   7.299   7.943 -0.7262 -0.8124 -0.5669
  135OSM   C14F14710   2.850   7.493   8.000 -0.2917 -0.7127 -0.0567
  135OSM   H14F14711   2.750   7.444   8.008  0.4805 -2.2668  0.4396
  135OSM   H14G14712   2.841   7.595   7.957 -1.1210  1.0093  3.8373
  135OSM   C15F14713   2.920   7.492   8.133  0.5358  0.6288  0.8942
  135OSM   H15F14714   3.014   7.545   8.104  1.0719 -1.6408 -1.9845
  135OSM   H15G14715   2.950   7.389   8.159  1.2826  0.9135  1.1951
  135OSM   C16F14716   2.836   7.556   8.244  0.7392 -0.1575 -0.0071
  135OSM   H16F14717   2.728   7.526   8.243  0.2839  1.4185 -1.2522
  135OSM   H16G14718   2.829   7.666   8.232 -1.0852 -0.0389  1.5444
  135OSM   C17F14719   2.900   7.545   8.376 -0.0899 -0.3421 -0.2973
  135OSM   H17F14720   2.869   7.641   8.421 -0.1726  1.0589 -3.1218
  135OSM   H17G14721   3.008   7.525   8.360 -0.0840  1.3821 -2.9574
  135OSM   C18F14722   2.850   7.431   8.461 -0.1120 -0.4986  0.1554
  135OSM   H18F14723   2.916   7.419   8.549 -0.7418  1.0832  0.8879
  135OSM   H18G14724   2.854   7.331   8.413 -0.3721 -0.4970  0.1292
  135OSM   H18H14725   2.745   7.456   8.485 -0.4047  1.9028 -2.9847
  136OSM      N14726   5.962   2.071   6.053  0.2284 -0.0921  0.7064
  136OSM    C1514727   5.849   2.050   6.145 -0.5840  0.5671  0.0477
  136OSM   H15A14728   5.758   2.108   6.136 -0.7645  0.0740 -1.8592
  136OSM   H15B14729   5.881   2.075   6.245 -3.9136  2.5573  0.7701
  136OSM   H15C14730   5.825   1.945   6.150  0.6721  0.2907  0.6484
  136OSM    C1414731   6.073   1.975   6.089  0.3816 -0.2790  0.9358
  136OSM   H14A14732   6.157   2.001   6.026  1.3182 -1.7453  1.5351
  136OSM   H14B14733   6.031   1.875   6.083 -0.3700 -0.0139  1.6613
  136OSM   H14C14734   6.110   1.993   6.189  1.1205 -0.6904  0.7418
  136OSM    C1314735   5.914   2.046   5.917  0.4402 -0.1870 -0.3173
  136OSM   H13A14736   5.849   2.121   5.874  1.1360  0.2255 -0.6771
  136OSM   H13B14737   5.859   1.954   5.912 -2.0674  1.2737 -1.9997
  136OSM   H13C14738   6.005   2.039   5.858 -0.7449  1.0602 -2.4259
  136OSM    C1214739   6.006   2.217   6.057  0.1831 -0.1082 -0.2335
  136OSM   H12A14740   6.048   2.233   6.155 -0.1384 -0.8922  0.0435
  136OSM   H12B14741   5.910   2.267   6.063 -1.7496 -3.6235  1.3034
  136OSM    C1114742   6.098   2.279   5.955  0.2887  0.3679 -0.2601
  136OSM   H11A14743   6.100   2.385   5.988 -0.3707 -0.3174  2.2345
  136OSM   H11B14744   6.048   2.269   5.856  2.3911 -0.7197 -1.2673
  136OSM      P14745   6.359   2.271   6.019 -0.2020  0.3447 -0.3740
  136OSM    O1314746   6.419   2.147   6.066 -0.0761  1.0172  0.8740
  136OSM    O1414747   6.446   2.350   5.927 -0.3567 -1.1442 -0.5203
  136OSM    O1114748   6.313   2.364   6.142  0.2349 -0.0872 -0.5964
  136OSM    O1214749   6.227   2.221   5.947  0.4058 -0.3429  0.6321
  136OSM    C1S14750   6.262   2.320   6.264 -0.2685 -0.1443 -0.3944
  136OSM    H1S14751   6.273   2.210   6.268 -0.6563 -0.3409 -3.1183
  136OSM    H1T14752   6.156   2.353   6.275 -0.4842 -0.6370 -0.9567
  136OSM     NF14753   6.300   2.308   6.507 -0.2857 -0.0338  0.0050
  136OSM    HNF14754   6.242   2.357   6.572  0.2944 -0.2739  0.7281
  136OSM    C2S14755   6.350   2.367   6.383  0.6998  0.0707 -0.6663
  136OSM    H2S14756   6.454   2.334   6.363  0.1146 -0.0151 -4.2117
  136OSM    C3S14757   6.351   2.525   6.391 -0.4818  0.0997  0.6038
  136OSM    H3S14758   6.245   2.555   6.402 -0.2926  0.3340  2.1006
  136OSM     O314759   6.412   2.564   6.272 -0.4694  0.0795  0.0131
  136OSM    HO314760   6.404   2.487   6.215 -1.8376 -1.2786  1.9064
  136OSM    C4S14761   6.431   2.579   6.508  0.8566 -0.1895  0.6390
  136OSM    H4S14762   6.539   2.576   6.487  0.2788  0.9064 -3.3142
  136OSM    C5S14763   6.388   2.621   6.631 -0.5628  1.1482 -0.3272
  136OSM    H5S14764   6.281   2.602   6.650 -0.1151 -1.1215  0.2001
  136OSM    C6S14765   6.483   2.670   6.735 -0.0895  0.3444  0.1784
  136OSM    H6S14766   6.448   2.769   6.769  1.0780 -0.0484  2.8610
  136OSM    H6T14767   6.582   2.683   6.685  0.3554 -2.3962  0.1941
  136OSM    C7S14768   6.500   2.587   6.868  0.0862 -0.3037 -0.3853
  136OSM    H7S14769   6.577   2.641   6.927  0.8400 -0.6354 -1.0509
  136OSM    H7T14770   6.547   2.490   6.841  2.0870  0.1302  1.2857
  136OSM    C8S14771   6.377   2.579   6.958 -0.0335  0.3961 -0.5425
  136OSM    H8S14772   6.322   2.491   6.919  0.7548 -0.0113 -0.7512
  136OSM    H8T14773   6.316   2.672   6.945 -1.9384 -0.7632 -0.3331
  136OSM    C9S14774   6.409   2.550   7.103  0.2018  0.3307 -0.0495
  136OSM    H9S14775   6.454   2.637   7.156  1.4552 -1.1239  1.3585
  136OSM    H9T14776   6.482   2.466   7.096  0.3732  0.4494  0.2783
  136OSM   C10S14777   6.297   2.490   7.186  0.6792 -0.4376 -0.1654
  136OSM   H10S14778   6.276   2.383   7.168  1.1916 -1.0465  2.4151
  136OSM   H10T14779   6.210   2.555   7.164  0.7780 -0.3131 -0.1892
  136OSM   C11S14780   6.315   2.488   7.342  0.1089 -0.2260  0.1996
  136OSM   H11S14781   6.217   2.471   7.391 -0.0709 -1.5633 -0.5722
  136OSM   H11T14782   6.344   2.588   7.382  0.7756 -1.0953  2.0005
  136OSM   C12S14783   6.412   2.386   7.394  0.4481  0.1051  0.4970
  136OSM   H12S14784   6.507   2.403   7.338 -0.4130  1.3443 -0.6514
  136OSM   H12T14785   6.389   2.286   7.353  1.3150 -0.1524  0.6027
  136OSM   C13S14786   6.433   2.370   7.545 -0.0409 -0.2378 -0.5816
  136OSM   H13S14787   6.331   2.360   7.586  0.3048  0.1945  0.4255
  136OSM   H13T14788   6.488   2.461   7.577  0.2246 -1.0284  1.3594
  136OSM   C14S14789   6.521   2.244   7.578 -0.0598 -0.2521  0.6307
  136OSM   H14S14790   6.625   2.263   7.543 -0.7262  1.2535 -0.6780
  136OSM   H14T14791   6.487   2.158   7.517  0.3621  1.2445 -1.8604
  136OSM   C15S14792   6.528   2.213   7.727  0.4316  0.1629 -0.4857
  136OSM   H15S14793   6.454   2.139   7.762 -0.8797  1.9721  0.7631
  136OSM   H15T14794   6.488   2.308   7.769 -0.1106  0.3369 -1.3771
  136OSM   C16S14795   6.673   2.193   7.793  0.2098 -0.2660 -0.6596
  136OSM   H16S14796   6.723   2.100   7.761 -1.3173 -1.7421  1.0311
  136OSM   H16T14797   6.665   2.184   7.903  0.3954 -1.3240 -0.7276
  136OSM   C17S14798   6.776   2.299   7.767 -0.5266  0.1287 -0.5600
  136OSM   H17S14799   6.799   2.307   7.659  0.1447  1.3661 -0.3399
  136OSM   H17T14800   6.865   2.268   7.825 -1.0182  0.3908  0.3637
  136OSM   C18S14801   6.738   2.443   7.813 -0.4111  1.2269 -0.0406
  136OSM   H18S14802   6.734   2.448   7.924  0.2979 -1.1725  0.1460
  136OSM   H18T14803   6.639   2.466   7.767 -1.1765  1.0909  1.4596
  136OSM   H18U14804   6.819   2.517   7.795  0.0441  0.8184  0.3315
  136OSM    C1F14805   6.337   2.185   6.538  0.6398  0.1014 -0.2153
  136OSM     OF14806   6.414   2.113   6.474  0.3186  0.3621  0.4274
  136OSM    C2F14807   6.274   2.129   6.664 -0.2035 -0.0178 -0.4233
  136OSM    H2F14808   6.324   2.031   6.676  3.9193  2.0710  1.4041
  136OSM    H2G14809   6.163   2.128   6.670 -0.1597 -0.9575  0.4527
  136OSM    C3F14810   6.330   2.207   6.786  0.3505  0.5248  0.2871
  136OSM    H3F14811   6.291   2.311   6.789 -1.5721 -0.1435 -0.0273
  136OSM    H3G14812   6.440   2.198   6.773  0.0199 -0.8803 -2.4896
  136OSM    C4F14813   6.288   2.149   6.928 -0.7579  0.4588  0.3508
  136OSM    H4F14814   6.177   2.153   6.932 -0.7040  0.7588  1.8998
  136OSM    H4G14815   6.329   2.226   6.996  4.2682 -0.0786 -1.6256
  136OSM    C5F14816   6.347   2.011   6.954  0.8069 -0.5505 -0.1319
  136OSM    H5F14817   6.457   2.002   6.967  0.8567  0.2728  0.0960
  136OSM    H5G14818   6.329   1.941   6.870 -1.9072 -0.0972  0.0023
  136OSM    C6F14819   6.283   1.941   7.074 -0.0452 -0.0168 -0.3432
  136OSM    H6F14820   6.327   1.839   7.086 -2.5111 -1.0487  0.7960
  136OSM    H6G14821   6.173   1.933   7.060 -0.0946 -1.9749  0.7068
  136OSM    C7F14822   6.324   2.005   7.214 -0.3022 -0.0028  0.5010
  136OSM    H7F14823   6.236   2.057   7.259  0.9742  1.0997  1.8092
  136OSM    H7G14824   6.400   2.084   7.201  0.9374 -0.9065  1.9894
  136OSM    C8F14825   6.388   1.900   7.307  0.5661 -1.1197  0.3543
  136OSM    H8F14826   6.438   1.952   7.391  1.7243  0.5855 -1.3216
  136OSM    H8G14827   6.475   1.850   7.259  0.0576 -1.2074 -0.4920
  136OSM    C9F14828   6.294   1.800   7.358  0.3466  0.0910 -0.6176
  136OSM    H9F14829   6.270   1.715   7.292  2.4841 -0.2722 -1.0052
  136OSM   C10F14830   6.226   1.806   7.472 -1.1004  0.0187 -0.2206
  136OSM   H10F14831   6.159   1.722   7.494 -0.5373 -0.3881 -0.0283
  136OSM   C11F14832   6.232   1.919   7.573 -0.2705  0.1420 -0.1949
  136OSM   H11F14833   6.132   1.966   7.559 -0.8012 -0.4547  1.4515
  136OSM   H11G14834   6.309   1.994   7.545  1.6154 -2.4110 -2.4242
  136OSM   C12F14835   6.250   1.877   7.722  0.2904  0.2055 -0.9768
  136OSM   H12F14836   6.289   1.967   7.774 -0.0402 -1.1300  1.7462
  136OSM   H12G14837   6.321   1.792   7.721  0.3115  0.2255 -1.6061
  136OSM   C13F14838   6.113   1.844   7.792  0.4230  0.0495  0.3004
  136OSM   H13F14839   6.059   1.763   7.739 -1.1968  0.8085  0.7154
  136OSM   H13G14840   6.048   1.933   7.774 -0.0794 -0.1355  1.1553
  136OSM   C14F14841   6.141   1.813   7.935 -0.1220  0.7068 -0.6572
  136OSM   H14F14842   6.220   1.871   7.987  0.5685  0.7666 -1.7470
  136OSM   H14G14843   6.181   1.709   7.930  1.6258  1.3958 -2.7660
  136OSM   C15F14844   6.018   1.803   8.026 -0.3003  0.4200  0.6185
  136OSM   H15F14845   5.951   1.729   7.977  0.1972 -0.2369  0.9099
  136OSM   H15G14846   5.984   1.909   8.025  0.9750  0.8692 -1.5350
  136OSM   C16F14847   6.056   1.757   8.160 -0.2638 -0.5895 -0.3286
  136OSM   H16F14848   6.164   1.769   8.180 -0.8463  3.2259  1.4132
  136OSM   H16G14849   6.037   1.648   8.166  0.0665 -0.6431 -0.2792
  136OSM   C17F14850   5.976   1.833   8.268 -0.3449 -0.5773 -0.0226
  136OSM   H17F14851   6.003   1.941   8.273  0.6977 -0.8863  2.3045
  136OSM   H17G14852   6.016   1.794   8.364 -0.7708 -1.0532 -0.0361
  136OSM   C18F14853   5.826   1.822   8.275 -0.2232  0.6268  0.3662
  136OSM   H18F14854   5.777   1.865   8.185 -0.3489 -0.9237 -0.3319
  136OSM   H18G14855   5.786   1.865   8.370  0.4184 -0.7789  1.3077
  136OSM   H18H14856   5.794   1.716   8.281  0.7400  0.2844 -0.3186
  137OSM      N14857   4.543   6.182   6.330  0.0898  0.0526  0.3502
  137OSM    C1514858   4.688   6.140   6.291 -0.4398 -0.5126 -0.2798
  137OSM   H15A14859   4.744   6.232   6.286 -1.8617  0.3334 -1.1164
  137OSM   H15B14860   4.692   6.103   6.189 -1.0807  2.0143 -1.2918
  137OSM   H15C14861   4.722   6.062   6.357  0.7878 -0.8546 -1.2767
  137OSM    C1414862   4.540   6.261   6.456 -0.1955 -0.9876  0.2626
  137OSM   H14A14863   4.442   6.299   6.481 -0.0211  0.1345 -0.6650
  137OSM   H14B14864   4.599   6.351   6.447  1.0421 -1.6547  1.4402
  137OSM   H14C14865   4.566   6.214   6.549 -0.4553  1.5520  1.6962
  137OSM    C1314866   4.494   6.262   6.215 -0.2730 -0.1804  0.4615
  137OSM   H13A14867   4.552   6.353   6.216  1.3771 -1.1942  0.4914
  137OSM   H13B14868   4.387   6.268   6.226 -0.5047  3.2896 -2.0230
  137OSM   H13C14869   4.506   6.212   6.121 -0.5323  1.5237 -0.5256
  137OSM    C1214870   4.465   6.053   6.338  0.1736  0.0307 -0.0606
  137OSM   H12A14871   4.476   5.996   6.247  1.0927  0.8783 -0.5022
  137OSM   H12B14872   4.364   6.087   6.350  0.8250  2.3554 -0.5799
  137OSM    C1114873   4.493   5.965   6.455 -0.2379  0.0664 -0.0764
  137OSM   H11A14874   4.411   5.890   6.468 -0.2201  0.1083  0.2706
  137OSM   H11B14875   4.476   6.035   6.540 -0.3841  1.1436 -0.9703
  137OSM      P14876   4.681   5.790   6.388 -0.1835 -0.1342  0.1030
  137OSM    O1314877   4.615   5.776   6.256  0.8371  0.2582 -0.0265
  137OSM    O1414878   4.827   5.788   6.388  0.3351 -0.1156  0.4111
  137OSM    O1114879   4.650   5.668   6.484  0.2229 -0.3895  0.4753
  137OSM    O1214880   4.630   5.922   6.458  0.3217  0.5128  0.1121
  137OSM    C1S14881   4.655   5.689   6.623 -0.0373  1.4144  0.0353
  137OSM    H1S14882   4.685   5.792   6.651 -0.3357  2.2146 -2.3816
  137OSM    H1T14883   4.730   5.625   6.674  0.5470  2.0643  0.0112
  137OSM     NF14884   4.529   5.707   6.835  0.0954  0.3521 -0.6348
  137OSM    HNF14885   4.526   5.625   6.890 -0.0909  0.9718  0.3047
  137OSM    C2S14886   4.511   5.689   6.686  0.2175 -0.2399 -0.7486
  137OSM    H2S14887   4.449   5.774   6.651 -1.0118  0.2566  2.3241
  137OSM    C3S14888   4.433   5.561   6.643  0.2028  0.3725 -0.0158
  137OSM    H3S14889   4.503   5.477   6.663 -0.6586  0.3105  3.1681
  137OSM     O314890   4.405   5.555   6.499 -0.5358  0.6812  0.0799
  137OSM    HO314891   4.462   5.623   6.463  1.9089 -0.4936  1.4410
  137OSM    C4S14892   4.304   5.538   6.724 -0.6289 -0.2128 -0.1091
  137OSM    H4S14893   4.309   5.464   6.805 -0.1616 -1.6271 -1.3765
  137OSM    C5S14894   4.185   5.599   6.698 -0.0793 -0.1727 -0.2930
  137OSM    H5S14895   4.187   5.674   6.617  2.4409  0.0393 -0.1189
  137OSM    C6S14896   4.054   5.591   6.772  0.1740  0.5911  0.4385
  137OSM    H6S14897   3.976   5.535   6.717  0.3028 -1.3411  2.0811
  137OSM    H6T14898   4.006   5.689   6.798  1.9964  1.5786  0.2341
  137OSM    C7S14899   4.055   5.518   6.908  0.3234  0.0162 -0.0258
  137OSM    H7S14900   4.122   5.574   6.978 -0.8808  0.6137  0.6924
  137OSM    H7T14901   4.095   5.415   6.896 -2.0356 -0.9590  0.0132
  137OSM    C8S14902   3.916   5.523   6.983  0.7007  0.2275 -0.0225
  137OSM    H8S14903   3.847   5.468   6.916 -0.9376 -1.4299  2.8085
  137OSM    H8T14904   3.874   5.626   6.990 -2.4902 -0.9318 -0.3449
  137OSM    C9S14905   3.920   5.460   7.120 -0.2197  0.2973 -0.4546
  137OSM    H9S14906   3.987   5.372   7.124 -2.9697 -1.9018  1.4374
  137OSM    H9T14907   3.816   5.428   7.145 -0.1286 -0.3663 -0.9073
  137OSM   C10S14908   3.963   5.550   7.237 -0.3565  0.4334 -0.8936
  137OSM   H10S14909   3.925   5.654   7.223  0.9126  0.5632 -4.2336
  137OSM   H10T14910   4.074   5.551   7.236 -0.3125  0.7778  0.8389
  137OSM   C11S14911   3.912   5.500   7.373  0.3541 -0.5361  0.2667
  137OSM   H11S14912   3.952   5.397   7.385  0.3722 -0.5371  0.1989
  137OSM   H11T14913   3.801   5.492   7.370  0.3238 -0.0717 -0.0908
  137OSM   C12S14914   3.953   5.588   7.492 -0.2342  0.0307 -0.0084
  137OSM   H12S14915   3.938   5.696   7.469 -0.6852  0.0605  0.3948
  137OSM   H12T14916   4.056   5.562   7.523 -1.2621 -2.9051  1.3209
  137OSM   C13S14917   3.879   5.553   7.626 -0.6539  0.0565 -0.3388
  137OSM   H13S14918   3.782   5.608   7.624 -0.6950 -0.0051 -1.8863
  137OSM   H13T14919   3.933   5.593   7.714 -0.8226 -0.9731  0.2425
  137OSM   C14S14920   3.863   5.399   7.642 -0.2722 -0.2983  0.2100
  137OSM   H14S14921   3.963   5.353   7.626  1.2333  2.6679  0.4692
  137OSM   H14T14922   3.789   5.359   7.570  0.6607  2.0680 -2.2400
  137OSM   C15S14923   3.818   5.381   7.782  0.7267 -0.0760  0.0311
  137OSM   H15S14924   3.723   5.436   7.798 -0.2689 -1.1153 -1.8814
  137OSM   H15T14925   3.895   5.415   7.854  1.3925  0.3411 -0.8724
  137OSM   C16S14926   3.785   5.234   7.804  0.3986 -0.0575  0.4264
  137OSM   H16S14927   3.881   5.179   7.792 -0.0371 -0.3989 -2.3055
  137OSM   H16T14928   3.711   5.197   7.729 -0.5082 -2.1439  2.2187
  137OSM   C17S14929   3.726   5.196   7.946  0.2229 -0.0035  0.9063
  137OSM   H17S14930   3.768   5.268   8.019  0.6340  1.5607 -0.8009
  137OSM   H17T14931   3.761   5.093   7.970  0.6575  0.5483  2.8027
  137OSM   C18S14932   3.572   5.202   7.946 -0.6243 -0.2444 -0.5440
  137OSM   H18S14933   3.526   5.141   7.866  1.9695 -1.7520 -0.9964
  137OSM   H18T14934   3.550   5.308   7.923 -1.6329 -0.4849 -0.7254
  137OSM   H18U14935   3.532   5.181   8.048 -2.5610 -2.0344 -1.5804
  137OSM    C1F14936   4.570   5.820   6.887 -0.2358 -0.1452  0.8870
  137OSM     OF14937   4.585   5.920   6.823  0.1223  0.2500 -0.2615
  137OSM    C2F14938   4.595   5.814   7.035  0.1107 -0.8596 -0.1715
  137OSM    H2F14939   4.700   5.776   7.043  0.6985  0.8115  0.4248
  137OSM    H2G14940   4.517   5.743   7.070 -1.8895  0.8882 -0.8822
  137OSM    C3F14941   4.562   5.959   7.096  0.5024  0.5958 -0.1159
  137OSM    H3F14942   4.456   5.979   7.071 -0.0549 -2.6134 -0.7986
  137OSM    H3G14943   4.627   6.032   7.044  1.4718  0.5147  0.9375
  137OSM    C4F14944   4.591   5.969   7.247  0.4393 -0.5063 -0.4939
  137OSM    H4F14945   4.521   5.903   7.302 -1.2898  1.7707  0.2245
  137OSM    H4G14946   4.565   6.070   7.286  0.1118 -0.5204 -0.6673
  137OSM    C5F14947   4.742   5.933   7.282 -0.6394  0.8219 -0.0407
  137OSM    H5F14948   4.813   5.998   7.226  1.2373  0.2988  1.6416
  137OSM    H5G14949   4.762   5.828   7.253 -1.3655  0.4182  0.8894
  137OSM    C6F14950   4.783   5.964   7.428  0.0772 -0.4613 -0.5299
  137OSM    H6F14951   4.706   5.933   7.502 -2.5610  3.0750 -1.5657
  137OSM    H6G14952   4.793   6.073   7.444 -2.5595 -0.3068  0.5434
  137OSM    C7F14953   4.914   5.891   7.471 -0.8963 -0.6823  0.5022
  137OSM    H7F14954   4.993   5.967   7.456 -0.9801 -0.4885  1.0173
  137OSM    H7G14955   4.930   5.808   7.399  4.6714  0.8543 -0.4265
  137OSM    C8F14956   4.902   5.837   7.617  0.1666 -0.5100 -0.0268
  137OSM    H8F14957   4.826   5.756   7.608 -1.9355  1.1431  1.7322
  137OSM    H8G14958   4.852   5.915   7.678 -1.4146 -1.2515 -0.3401
  137OSM    C9F14959   5.033   5.779   7.668 -0.1163 -0.1760 -0.0265
  137OSM    H9F14960   5.092   5.701   7.618  2.6555  1.4408  0.5072
  137OSM   C10F14961   5.105   5.828   7.768 -0.0704  0.0951  0.7341
  137OSM   H10F14962   5.194   5.768   7.791 -0.9259 -2.3540 -1.7788
  137OSM   C11F14963   5.065   5.940   7.858  0.3160  1.1520  0.2752
  137OSM   H11F14964   5.032   6.029   7.801 -1.9717  0.3882  0.2943
  137OSM   H11G14965   5.154   5.951   7.924 -1.2648 -2.2021  3.3055
  137OSM   C12F14966   4.953   5.914   7.954  0.1395 -0.2440  0.3487
  137OSM   H12F14967   4.855   5.917   7.902 -0.2230  0.5951  1.0605
  137OSM   H12G14968   4.962   5.995   8.030 -0.8538  2.1405 -1.9324
  137OSM   C13F14969   4.966   5.776   8.013  0.4525  0.0374  0.0084
  137OSM   H13F14970   5.066   5.762   8.060  0.3271  0.9218  0.5585
  137OSM   H13G14971   4.957   5.696   7.936 -2.0768  0.1434  0.0942
  137OSM   C14F14972   4.855   5.758   8.119 -0.2374 -0.0243 -0.1611
  137OSM   H14F14973   4.845   5.648   8.134 -0.1177 -0.5310 -3.0679
  137OSM   H14G14974   4.760   5.794   8.075 -0.2608  0.4452  0.2710
  137OSM   C15F14975   4.875   5.828   8.252 -0.1253 -0.5179 -0.1500
  137OSM   H15F14976   4.897   5.937   8.241  0.5169 -0.6848 -0.6159
  137OSM   H15G14977   4.959   5.783   8.309 -0.6077 -1.9681 -0.5441
  137OSM   C16F14978   4.741   5.820   8.332 -0.2658 -0.1825 -0.1495
  137OSM   H16F14979   4.747   5.743   8.412 -1.8059  0.3885  0.5627
  137OSM   H16G14980   4.657   5.802   8.262 -0.1260  2.1367 -1.0159
  137OSM   C17F14981   4.719   5.947   8.416 -0.3488  0.2365  0.5719
  137OSM   H17F14982   4.749   6.034   8.354  2.7532 -0.8189  0.3967
  137OSM   H17G14983   4.789   5.944   8.503  1.3293 -0.0060 -0.7287
  137OSM   C18F14984   4.578   5.967   8.470  0.3898 -0.0482  0.1832
  137OSM   H18F14985   4.533   5.871   8.502  1.2450 -0.2264  0.9036
  137OSM   H18G14986   4.520   6.016   8.389  0.8872  0.8032  0.3295
  137OSM   H18H14987   4.582   6.030   8.562 -0.0601 -0.5863  0.5812
  138OSM      N14988   4.412   3.399   5.562 -0.0820 -0.4394  0.9139
  138OSM    C1514989   4.534   3.325   5.538  0.0684 -0.1552  0.2471
  138OSM   H15A14990   4.554   3.266   5.626  2.1181  0.1507  0.0339
  138OSM   H15B14991   4.622   3.387   5.540  0.6106 -0.9118  2.5322
  138OSM   H15C14992   4.532   3.258   5.453 -0.0711  1.0140 -0.6967
  138OSM    C1414993   4.392   3.502   5.455  1.4015 -0.6617 -0.6843
  138OSM   H14A14994   4.400   3.444   5.364 -0.4425 -0.2636 -1.1457
  138OSM   H14B14995   4.464   3.582   5.445  1.4769 -0.8773 -2.0170
  138OSM   H14C14996   4.292   3.542   5.457  2.1938  1.4607 -1.0814
  138OSM    C1314997   4.310   3.295   5.557  0.3042  0.1781  1.0291
  138OSM   H13A14998   4.213   3.342   5.555  0.6414  0.9626  2.0059
  138OSM   H13B14999   4.309   3.228   5.642 -1.9442 -1.1679  0.0236
  138OSM   H13C15000   4.321   3.225   5.476 -4.2682  0.1054  0.2374
  138OSM    C1215001   4.420   3.465   5.696  0.0077  0.7393  0.1081
  138OSM   H12A15002   4.324   3.514   5.698  0.0115  0.8515 -1.5777
  138OSM   H12B15003   4.497   3.541   5.687  0.1957  0.4572 -0.7994
  138OSM    C1115004   4.437   3.378   5.823  0.6181 -0.5574 -0.5197
  138OSM   H11A15005   4.480   3.430   5.911  0.8277  1.5083 -1.7902
  138OSM   H11B15006   4.512   3.297   5.807  1.1484 -0.1852 -0.0123
  138OSM      P15007   4.197   3.397   5.930 -0.1263  0.5505 -0.4519
  138OSM    O1315008   4.212   3.544   5.925  0.5394  0.6258 -0.6589
  138OSM    O1415009   4.062   3.334   5.889 -0.4307 -0.7471 -0.0814
  138OSM    O1115010   4.234   3.361   6.082  0.2925 -0.0737 -0.3521
  138OSM    O1215011   4.313   3.321   5.856  0.4344  0.2829 -0.2590
  138OSM    C1S15012   4.348   3.406   6.152  0.3741  0.4047 -0.4934
  138OSM    H1S15013   4.350   3.517   6.162 -1.1620  0.3475  1.0256
  138OSM    H1T15014   4.445   3.373   6.110  0.5198  1.8898 -1.4033
  138OSM     NF15015   4.471   3.414   6.363 -0.2123  0.0725 -0.3333
  138OSM    HNF15016   4.549   3.358   6.386 -0.2502  0.6157  1.2584
  138OSM    C2S15017   4.359   3.353   6.300  0.6005  0.0204 -0.3209
  138OSM    H2S15018   4.263   3.384   6.345  0.3482 -0.1972 -0.6997
  138OSM    C3S15019   4.354   3.193   6.301  0.1313  0.4055  0.2097
  138OSM    H3S15020   4.434   3.149   6.239 -0.3507 -1.5591  0.9051
  138OSM     O315021   4.231   3.144   6.253  0.0408 -0.2340  0.3332
  138OSM    HO315022   4.203   3.212   6.191 -2.8071 -2.3178 -0.8568
  138OSM    C4S15023   4.383   3.137   6.439 -0.7561 -0.4865  0.6384
  138OSM    H4S15024   4.485   3.096   6.444 -0.9274 -1.2017 -1.1610
  138OSM    C5S15025   4.306   3.142   6.550 -0.0613 -0.2001  0.2194
  138OSM    H5S15026   4.205   3.183   6.543 -0.0518 -0.4102 -2.0599
  138OSM    C6S15027   4.351   3.086   6.681 -1.1074  0.9506 -0.4423
  138OSM    H6S15028   4.331   2.978   6.700  0.2158  0.8579  0.5094
  138OSM    H6T15029   4.292   3.145   6.754 -1.0473 -1.2956  1.5512
  138OSM    C7S15030   4.499   3.090   6.730  0.1612 -0.3226 -0.2967
  138OSM    H7S15031   4.556   3.183   6.708 -1.4681  0.9799  0.6688
  138OSM    H7T15032   4.551   3.007   6.677  0.5736 -0.0468 -0.3282
  138OSM    C8S15033   4.510   3.043   6.876 -0.9539 -0.0889  0.2902
  138OSM    H8S15034   4.500   2.933   6.886  3.6514 -0.8273 -0.6671
  138OSM    H8T15035   4.445   3.096   6.949  0.9709 -1.3920  3.1511
  138OSM    C9S15036   4.656   3.055   6.919 -0.2084  0.1033  0.4753
  138OSM    H9S15037   4.676   3.160   6.950  1.7843  1.0849 -3.4031
  138OSM    H9T15038   4.729   3.040   6.837 -1.5057 -1.5935 -0.4384
  138OSM   C10S15039   4.697   2.955   7.024  0.0036 -0.5949  0.1976
  138OSM   H10S15040   4.804   2.969   7.051 -0.2559  1.7614  0.1503
  138OSM   H10T15041   4.690   2.851   6.984  1.0214 -0.7572  0.4162
  138OSM   C11S15042   4.615   2.965   7.150  0.9282  0.3367 -0.5290
  138OSM   H11S15043   4.512   2.926   7.137  0.0710  2.7969 -1.5494
  138OSM   H11T15044   4.605   3.073   7.170  0.5652  0.3183 -0.6117
  138OSM   C12S15045   4.677   2.885   7.271 -0.1355  0.6080 -0.4197
  138OSM   H12S15046   4.741   2.963   7.318  0.0512  0.4650 -0.4376
  138OSM   H12T15047   4.735   2.807   7.218  0.4528  1.9538 -1.8221
  138OSM   C13S15048   4.568   2.841   7.368 -0.4019 -0.2744  0.3720
  138OSM   H13S15049   4.512   2.752   7.333  1.2088 -1.7640  1.3840
  138OSM   H13T15050   4.489   2.918   7.372 -1.1846 -1.0633  3.5894
  138OSM   C14S15051   4.626   2.804   7.512  0.3860  0.1700  0.5299
  138OSM   H14S15052   4.735   2.790   7.497  0.7764  4.0848 -1.5579
  138OSM   H14T15053   4.576   2.705   7.523  0.6996  0.0001  0.4410
  138OSM   C15S15054   4.603   2.900   7.622 -0.2090 -0.5911  0.5640
  138OSM   H15S15055   4.581   2.837   7.711  1.7200 -2.5939 -0.2935
  138OSM   H15T15056   4.504   2.947   7.603 -1.3993 -3.3561 -0.6788
  138OSM   C16S15057   4.718   3.006   7.641 -0.3233  0.0303  0.0055
  138OSM   H16S15058   4.746   3.050   7.543  0.2272  0.6036  0.4154
  138OSM   H16T15059   4.813   2.959   7.677  0.2775  1.1971 -0.0052
  138OSM   C17S15060   4.684   3.112   7.739 -0.1326 -0.0797 -0.3429
  138OSM   H17S15061   4.603   3.173   7.693 -0.9088 -0.0608  0.9891
  138OSM   H17T15062   4.775   3.175   7.739 -0.2601  0.1542 -1.8821
  138OSM   C18S15063   4.649   3.078   7.879  0.2548 -0.2010 -0.2469
  138OSM   H18S15064   4.552   3.026   7.887 -0.0191  0.6049  2.6485
  138OSM   H18T15065   4.650   3.173   7.938  3.2707  0.7118 -1.5232
  138OSM   H18U15066   4.727   3.013   7.923  0.4057  0.8795  1.1445
  138OSM    C1F15067   4.475   3.541   6.394 -0.5111 -0.0388 -0.0362
  138OSM     OF15068   4.379   3.615   6.376  0.3352  0.5800  0.1959
  138OSM    C2F15069   4.601   3.588   6.461 -0.6147 -1.2121 -0.3397
  138OSM    H2F15070   4.677   3.609   6.384  1.1089 -2.5896  0.8945
  138OSM    H2G15071   4.646   3.498   6.509  2.2573  1.9405  3.6032
  138OSM    C3F15072   4.582   3.707   6.553 -0.4048  0.6078  0.8667
  138OSM    H3F15073   4.510   3.681   6.634  1.0869  0.1867  2.1000
  138OSM    H3G15074   4.545   3.792   6.492  1.9586 -0.5049 -2.4447
  138OSM    C4F15075   4.700   3.744   6.645 -0.0843 -0.1836 -0.1080
  138OSM    H4F15076   4.795   3.772   6.595  0.9853 -0.3869  1.6898
  138OSM    H4G15077   4.736   3.659   6.708  1.4902  0.1892 -0.4482
  138OSM    C5F15078   4.662   3.859   6.742  0.3610 -0.1253  0.0149
  138OSM    H5F15079   4.557   3.866   6.779  1.1542  1.0374  2.1984
  138OSM    H5G15080   4.671   3.954   6.685 -0.7132  0.8206  1.3692
  138OSM    C6F15081   4.766   3.849   6.855 -0.3565 -0.7211 -0.4993
  138OSM    H6F15082   4.811   3.951   6.851 -2.0950  0.1121  0.1559
  138OSM    H6G15083   4.849   3.779   6.832  1.1394  0.6599  0.4671
  138OSM    C7F15084   4.713   3.832   6.996  0.3181  0.4046 -0.8762
  138OSM    H7F15085   4.673   3.730   7.013  1.2392  0.2242  0.3208
  138OSM    H7G15086   4.634   3.910   7.008  2.0291  2.0410  0.4571
  138OSM    C8F15087   4.812   3.837   7.114 -0.3661  0.1113 -0.6134
  138OSM    H8F15088   4.895   3.778   7.071  1.1080  0.7873  1.1822
  138OSM    H8G15089   4.768   3.777   7.197  2.5121 -1.9652 -0.4507
  138OSM    C9F15090   4.858   3.970   7.159  0.5391 -0.3927 -0.6892
  138OSM    H9F15091   4.868   4.047   7.082 -1.5993  1.0666  0.3870
  138OSM   C10F15092   4.889   4.007   7.295 -0.5453  0.0171  1.2278
  138OSM   H10F15093   4.908   4.114   7.315 -1.0935  1.7294 -5.1665
  138OSM   C11F15094   4.890   3.919   7.414 -0.0576 -0.3615 -0.1387
  138OSM   H11F15095   4.901   3.814   7.380 -2.7836 -0.6998 -0.2468
  138OSM   H11G15096   4.793   3.923   7.469  0.5337  2.0178  0.8702
  138OSM   C12F15097   5.007   3.958   7.507  0.3289  0.3844  0.0178
  138OSM   H12F15098   4.978   4.058   7.546  0.1502 -0.5108  2.2733
  138OSM   H12G15099   5.100   3.957   7.446  0.4920 -1.0794  0.2585
  138OSM   C13F15100   5.020   3.858   7.626 -0.4971 -0.7132  0.0636
  138OSM   H13F15101   5.032   3.760   7.575  0.8911 -0.3916 -0.2487
  138OSM   H13G15102   4.921   3.858   7.677 -0.9835 -0.2829 -0.8542
  138OSM   C14F15103   5.137   3.890   7.724  0.4196 -0.8587 -0.8843
  138OSM   H14F15104   5.190   3.971   7.668 -0.3802 -0.5298 -1.1912
  138OSM   H14G15105   5.214   3.811   7.730  0.5171 -0.6938  0.1090
  138OSM   C15F15106   5.088   3.954   7.854 -0.6882  0.0740  0.5825
  138OSM   H15F15107   5.040   3.877   7.919 -1.9735  0.0193 -0.3807
  138OSM   H15G15108   5.025   4.038   7.818 -0.4615 -0.5819 -1.4872
  138OSM   C16F15109   5.196   4.004   7.945 -0.3646 -0.0206 -0.1202
  138OSM   H16F15110   5.229   4.100   7.900 -0.7467 -0.2201 -0.8413
  138OSM   H16G15111   5.281   3.933   7.951  1.3068  1.9808  1.3122
  138OSM   C17F15112   5.129   4.038   8.085 -0.0498 -0.0154  1.1813
  138OSM   H17F15113   5.026   4.076   8.068  0.6556  1.3846 -0.1975
  138OSM   H17G15114   5.189   4.119   8.132 -0.0725 -0.6143  2.2817
  138OSM   C18F15115   5.133   3.925   8.180  0.0269  0.5100 -0.4164
  138OSM   H18F15116   5.097   3.832   8.131 -1.4659  1.0311 -0.3636
  138OSM   H18G15117   5.059   3.946   8.261  0.9164  3.5962 -0.2515
  138OSM   H18H15118   5.236   3.909   8.217 -0.2668 -0.2113  0.1082
  139OSM      N15119   3.349   2.250   5.926 -0.5135  0.6161 -0.0388
  139OSM    C1515120   3.334   2.156   5.804 -0.4353  0.1434 -0.3147
  139OSM   H15A15121   3.401   2.177   5.722 -0.0769  1.6530  0.3184
  139OSM   H15B15122   3.235   2.155   5.762  0.4976 -0.6774 -2.6589
  139OSM   H15C15123   3.364   2.055   5.827  1.7571  0.5369 -1.1178
  139OSM    C1415124   3.490   2.252   5.970  0.4435 -0.4558 -0.1675
  139OSM   H14A15125   3.553   2.291   5.892 -0.1950  1.3232  0.1506
  139OSM   H14B15126   3.522   2.162   6.020  0.6486 -1.0499 -1.3275
  139OSM   H14C15127   3.486   2.325   6.050 -0.2887  1.0397 -1.5253
  139OSM    C1315128   3.317   2.388   5.878  0.1417  0.1195 -0.9880
  139OSM   H13A15129   3.324   2.445   5.970  0.3380 -1.1516 -0.1946
  139OSM   H13B15130   3.214   2.388   5.845  0.7294 -1.1049 -2.9828
  139OSM   H13C15131   3.388   2.427   5.807  1.1101  2.0100  0.8807
  139OSM    C1215132   3.253   2.202   6.032 -0.7141 -0.3060 -0.4725
  139OSM   H12A15133   3.266   2.095   6.034  2.4354 -0.0382 -0.9559
  139OSM   H12B15134   3.153   2.213   5.993 -1.2888 -1.4099  0.6098
  139OSM    C1115135   3.260   2.274   6.170  0.0043  1.0183 -0.0434
  139OSM   H11A15136   3.362   2.278   6.212 -0.1333  2.8108  0.1705
  139OSM   H11B15137   3.196   2.220   6.243  0.1387  1.4606  0.4030
  139OSM      P15138   3.055   2.432   6.122  0.0877  0.2016 -0.3000
  139OSM    O1315139   3.033   2.569   6.072 -0.4271  0.2196  0.0130
  139OSM    O1415140   2.985   2.324   6.053  0.3488  0.0895  0.1030
  139OSM    O1115141   3.003   2.425   6.276  0.4739  0.2918  0.3311
  139OSM    O1215142   3.213   2.411   6.148 -0.0492  0.7355  0.1138
  139OSM    C1S15143   3.061   2.505   6.372 -0.2018 -0.4395  0.2575
  139OSM    H1S15144   3.054   2.608   6.329  0.4113 -0.4626  0.0962
  139OSM    H1T15145   3.168   2.489   6.395 -0.3535 -0.1649  1.1944
  139OSM     NF15146   3.030   2.611   6.600 -0.0465  0.0178  0.5356
  139OSM    HNF15147   3.079   2.586   6.682 -0.4247 -1.6445  0.2905
  139OSM    C2S15148   2.980   2.510   6.505 -0.1200  0.1790  0.4311
  139OSM    H2S15149   2.872   2.528   6.483 -0.8629 -4.0628 -0.2810
  139OSM    C3S15150   2.988   2.369   6.569 -0.5969  0.3593 -0.2534
  139OSM    H3S15151   3.095   2.365   6.599 -0.4962  2.0331 -0.3264
  139OSM     O315152   2.972   2.255   6.488 -0.0066  1.0816  0.0225
  139OSM    HO315153   2.971   2.293   6.400  0.2641  0.1879 -0.3771
  139OSM    C4S15154   2.895   2.374   6.686  0.4843  0.2352  0.0338
  139OSM    H4S15155   2.945   2.413   6.775  0.0019 -0.3394  0.5694
  139OSM    C5S15156   2.766   2.339   6.694 -0.3130  0.4389 -0.3014
  139OSM    H5S15157   2.721   2.289   6.607  0.7597 -4.8745  1.8025
  139OSM    C6S15158   2.680   2.347   6.817  0.7008 -0.3748  0.5108
  139OSM    H6S15159   2.586   2.292   6.796  0.3514  0.4513 -0.1272
  139OSM    H6T15160   2.639   2.448   6.837 -1.6621 -0.7324 -1.9664
  139OSM    C7S15161   2.736   2.291   6.947 -0.2456  0.1600 -0.1200
  139OSM    H7S15162   2.823   2.358   6.964 -0.6154  0.4758  0.5503
  139OSM    H7T15163   2.782   2.191   6.930 -0.6957 -0.1456  0.4053
  139OSM    C8S15164   2.638   2.303   7.067  0.6636 -0.5690 -0.0402
  139OSM    H8S15165   2.570   2.216   7.055  0.8912 -0.5600 -1.5942
  139OSM    H8T15166   2.594   2.401   7.040  1.0723 -0.4874 -0.4191
  139OSM    C9S15167   2.714   2.300   7.201  0.3117 -0.1471 -0.1147
  139OSM    H9S15168   2.795   2.376   7.188  0.9710 -1.0703 -1.8443
  139OSM    H9T15169   2.759   2.201   7.222 -0.9165 -1.4361 -3.0304
  139OSM   C10S15170   2.629   2.357   7.315 -0.2082 -0.2489  0.0322
  139OSM   H10S15171   2.526   2.316   7.301 -0.1643 -0.7371  1.0925
  139OSM   H10T15172   2.636   2.467   7.308  1.3511 -0.3633 -0.6904
  139OSM   C11S15173   2.664   2.300   7.457 -0.1055 -0.3874  0.2699
  139OSM   H11S15174   2.688   2.192   7.450  2.9307 -0.1567  3.7705
  139OSM   H11T15175   2.583   2.321   7.530 -0.7464 -0.0785 -0.5224
  139OSM   C12S15176   2.790   2.361   7.504 -0.2821 -1.0122 -0.5560
  139OSM   H12S15177   2.868   2.361   7.426 -0.4614 -0.9201 -0.7351
  139OSM   H12T15178   2.832   2.298   7.586  0.7444 -1.1583 -1.1849
  139OSM   C13S15179   2.777   2.498   7.574 -0.1224  0.1016 -0.1865
  139OSM   H13S15180   2.719   2.475   7.666  0.0893 -0.7786 -0.2585
  139OSM   H13T15181   2.720   2.574   7.517 -1.9709 -0.0585  1.3361
  139OSM   C14S15182   2.907   2.544   7.624 -0.0438 -0.6265  0.0400
  139OSM   H14S15183   2.987   2.556   7.548  1.5266  1.6692  1.9179
  139OSM   H14T15184   2.950   2.464   7.688  1.0042  0.0869  0.2623
  139OSM   C15S15185   2.896   2.679   7.698  0.1455  0.3047  0.4161
  139OSM   H15S15186   2.837   2.749   7.635 -0.4186  0.7994  1.4735
  139OSM   H15T15187   3.001   2.712   7.708 -0.0629  0.5525  2.0724
  139OSM   C16S15188   2.836   2.673   7.847 -0.0641 -0.5856 -0.0742
  139OSM   H16S15189   2.725   2.664   7.841 -0.1001 -0.0973 -0.1773
  139OSM   H16T15190   2.848   2.773   7.894 -2.6750 -1.0899  1.9169
  139OSM   C17S15191   2.896   2.572   7.942 -0.0453 -0.4341  0.3278
  139OSM   H17S15192   2.871   2.470   7.903 -0.9978 -0.0808 -0.0281
  139OSM   H17T15193   2.847   2.586   8.041  1.3009  1.0426  0.8201
  139OSM   C18S15194   3.044   2.587   7.966  0.0445  0.3573  0.4320
  139OSM   H18S15195   3.093   2.522   7.891  0.5213 -0.8049  1.7141
  139OSM   H18T15196   3.079   2.546   8.063 -0.0572 -2.4277 -0.6213
  139OSM   H18U15197   3.073   2.693   7.948 -1.6923  0.7651 -0.2123
  139OSM    C1F15198   3.015   2.739   6.559 -0.8607 -0.2276 -0.5653
  139OSM     OF15199   2.941   2.763   6.465  0.5028 -0.5606  0.9923
  139OSM    C2F15200   3.074   2.846   6.650 -0.2786 -0.3072 -0.2665
  139OSM    H2F15201   3.142   2.906   6.587 -0.9086  0.1478 -0.5256
  139OSM    H2G15202   3.128   2.783   6.725  0.3019  1.3825  0.7768
  139OSM    C3F15203   2.969   2.936   6.708 -0.1496  0.8837  0.8927
  139OSM    H3F15204   2.920   2.988   6.623  0.5323 -0.1729 -0.1626
  139OSM    H3G15205   3.016   3.021   6.762  2.3905  0.2828 -0.2094
  139OSM    C4F15206   2.874   2.878   6.812 -0.6415  1.0895  0.0226
  139OSM    H4F15207   2.827   2.782   6.781 -1.5400  1.1766  1.0426
  139OSM    H4G15208   2.800   2.958   6.832 -2.3645 -0.0287 -1.4878
  139OSM    C5F15209   2.954   2.854   6.944 -0.3736 -0.5626  0.0480
  139OSM    H5F15210   3.013   2.945   6.965 -2.3403  1.0958 -1.2402
  139OSM    H5G15211   3.032   2.775   6.936  1.6250  1.3473 -0.3838
  139OSM    C6F15212   2.870   2.816   7.063  1.1646  0.2427 -0.0652
  139OSM    H6F15213   2.798   2.735   7.042  1.1861  0.4794 -1.0968
  139OSM    H6G15214   2.802   2.899   7.088  0.9651 -0.1573  0.7655
  139OSM    C7F15215   2.943   2.775   7.193  0.1318  0.0714  0.6473
  139OSM    H7F15216   3.023   2.706   7.159 -1.2567 -0.8463 -0.8775
  139OSM    H7G15217   2.870   2.723   7.257 -1.2185 -1.0202 -1.6763
  139OSM    C8F15218   3.010   2.897   7.255  0.6761 -0.2762  0.1719
  139OSM    H8F15219   2.993   2.990   7.196  0.4465 -0.7540 -0.5231
  139OSM    H8G15220   3.121   2.890   7.251  0.5951 -1.8856  0.4204
  139OSM    C9F15221   2.943   2.919   7.386  0.2611 -0.0857  0.0473
  139OSM    H9F15222   2.834   2.915   7.394  0.2428 -0.7260 -0.4031
  139OSM   C10F15223   3.007   2.940   7.508 -0.5107  0.1762  0.3372
  139OSM   H10F15224   2.943   2.935   7.597 -1.9789  1.3997 -0.5877
  139OSM   C11F15225   3.155   2.940   7.544  0.1633 -0.8197  0.2594
  139OSM   H11F15226   3.217   2.939   7.452  0.1079 -0.4278  0.2148
  139OSM   H11G15227   3.178   2.853   7.609  0.0406  0.4459  2.0633
  139OSM   C12F15228   3.196   3.064   7.625 -0.5950 -0.6369  0.7383
  139OSM   H12F15229   3.220   3.152   7.562 -1.0723  0.5219  2.1146
  139OSM   H12G15230   3.296   3.034   7.664 -0.3376 -1.5705 -0.5940
  139OSM   C13F15231   3.105   3.111   7.745 -0.7375 -0.5506 -1.2689
  139OSM   H13F15232   3.080   3.024   7.810 -1.8702  0.5400 -0.1818
  139OSM   H13G15233   3.016   3.161   7.701  0.3017  1.4434 -1.2365
  139OSM   C14F15234   3.168   3.214   7.844  0.2348 -0.3313  1.1247
  139OSM   H14F15235   3.220   3.289   7.781 -0.2263 -2.6889 -2.3400
  139OSM   H14G15236   3.254   3.159   7.889  0.6907 -1.3016 -0.8306
  139OSM   C15F15237   3.061   3.274   7.937 -0.6444 -0.5990 -0.7825
  139OSM   H15F15238   3.004   3.194   7.989  1.4992  0.0535  2.9364
  139OSM   H15G15239   2.995   3.336   7.872  0.0886 -0.5310 -1.4691
  139OSM   C16F15240   3.128   3.355   8.051 -0.6878  0.0687  0.4619
  139OSM   H16F15241   3.211   3.418   8.014  1.7957 -2.3531  1.5811
  139OSM   H16G15242   3.185   3.289   8.120  0.7882 -0.0191 -0.7967
  139OSM   C17F15243   3.023   3.426   8.136  0.2338  0.2442  0.4054
  139OSM   H17F15244   2.947   3.352   8.167  0.6561  0.2827  1.5906
  139OSM   H17G15245   2.964   3.504   8.083 -1.8267 -2.9473 -2.3772
  139OSM   C18F15246   3.086   3.472   8.268 -0.6198  0.7931 -0.5031
  139OSM   H18F15247   3.009   3.515   8.335  0.1674 -2.9789  3.2310
  139OSM   H18G15248   3.164   3.550   8.253  1.1332 -0.2834  2.2210
  139OSM   H18H15249   3.133   3.388   8.323 -0.1072  1.0353 -0.5665
  140OSM      N15250   5.313   5.375   6.387 -0.4444  0.5490 -0.6199
  140OSM    C1515251   5.432   5.401   6.298  0.3253 -0.1634  0.4515
  140OSM   H15A15252   5.526   5.396   6.351  0.5753  2.5828  0.4192
  140OSM   H15B15253   5.429   5.501   6.257  2.2237  0.4637  1.7050
  140OSM   H15C15254   5.429   5.331   6.216 -0.4334  0.6356 -0.2148
  140OSM    C1415255   5.180   5.396   6.315  0.4494 -0.2824 -0.9943
  140OSM   H14A15256   5.163   5.500   6.293 -2.8364 -0.1783  1.2360
  140OSM   H14B15257   5.103   5.374   6.388  1.6456  2.0971  1.1482
  140OSM   H14C15258   5.194   5.331   6.230  0.5881 -0.5390 -0.7764
  140OSM    C1315259   5.317   5.230   6.415  0.3201 -0.3681 -0.7073
  140OSM   H13A15260   5.410   5.205   6.464  0.1255  1.5985  0.7456
  140OSM   H13B15261   5.313   5.170   6.324 -0.7409  2.0656 -2.3657
  140OSM   H13C15262   5.240   5.200   6.484 -2.3617  1.7464 -2.5795
  140OSM    C1215263   5.318   5.459   6.514 -0.5496 -0.6824 -0.1529
  140OSM   H12A15264   5.395   5.408   6.570 -0.7805 -3.3542 -2.0624
  140OSM   H12B15265   5.231   5.439   6.575 -1.6850 -0.5582 -1.6850
  140OSM    C1115266   5.345   5.610   6.498  0.2717 -0.5870 -0.2165
  140OSM   H11A15267   5.310   5.663   6.590  0.8483 -0.6489  0.0420
  140OSM   H11B15268   5.279   5.660   6.424  0.8954  1.2472  0.3939
  140OSM      P15269   5.541   5.778   6.497  0.0387 -0.3074 -0.0452
  140OSM    O1315270   5.689   5.764   6.518 -0.4252  0.7040  0.2340
  140OSM    O1415271   5.501   5.856   6.382 -0.1347 -0.4585  0.1409
  140OSM    O1115272   5.473   5.833   6.631  0.2294  0.1743  0.3814
  140OSM    O1215273   5.483   5.634   6.481 -0.4118  0.0970 -0.3567
  140OSM    C1S15274   5.494   5.760   6.754 -0.1147 -0.3510 -0.5991
  140OSM    H1S15275   5.595   5.717   6.770  0.4810 -0.1364 -3.2443
  140OSM    H1T15276   5.422   5.675   6.759 -1.0427  0.4101 -0.7829
  140OSM     NF15277   5.501   5.766   7.007  0.5425 -0.4079 -0.1544
  140OSM    HNF15278   5.430   5.758   7.077 -0.0888  0.7918 -0.6206
  140OSM    C2S15279   5.469   5.843   6.885  0.3461 -0.6945  0.2951
  140OSM    H2S15280   5.545   5.923   6.868  0.2208 -0.9657 -1.9222
  140OSM    C3S15281   5.332   5.925   6.898 -0.2446 -0.3809  0.2270
  140OSM    H3S15282   5.249   5.856   6.924  0.4502 -1.5405 -0.5058
  140OSM     O315283   5.301   5.997   6.777  0.3989  0.6745  0.2714
  140OSM    HO315284   5.362   5.962   6.712  0.7836 -0.9950  1.4664
  140OSM    C4S15285   5.330   6.028   7.008 -0.0227  0.0834  0.8133
  140OSM    H4S15286   5.402   6.109   6.991 -0.1751  0.6963  2.7690
  140OSM    C5S15287   5.245   6.031   7.118 -0.2306  0.2760 -0.1097
  140OSM    H5S15288   5.167   5.956   7.138 -0.5509  0.6329 -0.0005
  140OSM    C6S15289   5.231   6.132   7.229 -0.8783 -0.2962 -0.0088
  140OSM    H6S15290   5.129   6.177   7.229 -0.3431  0.9992  1.0807
  140OSM    H6T15291   5.296   6.219   7.202 -0.0850 -0.6518  0.7008
  140OSM    C7S15292   5.286   6.068   7.353  1.0811  0.1124 -0.1648
  140OSM    H7S15293   5.394   6.046   7.341  1.2466  0.4919  0.6042
  140OSM    H7T15294   5.234   5.971   7.370  1.0425  0.3308  1.0598
  140OSM    C8S15295   5.257   6.152   7.481 -0.4264  0.1947 -1.2062
  140OSM    H8S15296   5.149   6.155   7.508 -0.4876 -1.0307 -1.2448
  140OSM    H8T15297   5.282   6.259   7.466 -2.5624  1.1781  1.4291
  140OSM    C9S15298   5.335   6.105   7.606  0.1270 -0.2092 -0.0407
  140OSM    H9S15299   5.436   6.082   7.566 -0.0076 -0.7004 -0.1035
  140OSM    H9T15300   5.291   6.011   7.646  1.4734 -0.4728  0.8924
  140OSM   C10S15301   5.362   6.218   7.713 -0.1301  0.0552  0.3689
  140OSM   H10S15302   5.262   6.260   7.739 -0.6341 -1.5673  1.2068
  140OSM   H10T15303   5.430   6.293   7.668  1.8976 -2.5138 -1.1317
  140OSM   C11S15304   5.435   6.164   7.837  0.4807  0.4302  0.2132
  140OSM   H11S15305   5.532   6.113   7.816 -1.0380 -1.8715 -1.7830
  140OSM   H11T15306   5.371   6.082   7.875  0.2091  0.5779  0.0763
  140OSM   C12S15307   5.456   6.279   7.942  0.0989 -0.2241 -0.1963
  140OSM   H12S15308   5.360   6.334   7.942 -1.0506 -2.0865 -1.9200
  140OSM   H12T15309   5.533   6.348   7.900  0.9984 -1.1059 -0.0145
  140OSM   C13S15310   5.492   6.220   8.080  0.3486 -0.3977  0.2076
  140OSM   H13S15311   5.583   6.158   8.067 -0.5221 -1.5758 -0.4445
  140OSM   H13T15312   5.406   6.158   8.115  0.1817 -1.2193 -1.5821
  140OSM   C14S15313   5.523   6.310   8.194 -0.3646 -0.9785 -0.3762
  140OSM   H14S15314   5.430   6.361   8.226 -0.4441 -1.1827 -0.2766
  140OSM   H14T15315   5.590   6.383   8.145 -2.6118  0.1543 -1.9270
  140OSM   C15S15316   5.600   6.244   8.308  0.5516  0.7448 -0.3320
  140OSM   H15S15317   5.643   6.150   8.266 -0.3827 -0.6219  1.6090
  140OSM   H15T15318   5.523   6.200   8.374 -0.7007  2.4879 -0.5711
  140OSM   C16S15319   5.718   6.322   8.364 -0.2069  0.0826 -0.4658
  140OSM   H16S15320   5.783   6.360   8.283 -0.3710  1.2863 -0.0492
  140OSM   H16T15321   5.775   6.264   8.440 -2.6081 -3.5694 -1.1605
  140OSM   C17S15322   5.673   6.450   8.434  0.3727  0.4708 -0.0341
  140OSM   H17S15323   5.587   6.420   8.497  0.4385 -0.4689 -0.3714
  140OSM   H17T15324   5.623   6.511   8.357 -2.7358 -1.3444  0.3782
  140OSM   C18S15325   5.785   6.517   8.510  0.5206  0.3208  0.2720
  140OSM   H18S15326   5.759   6.607   8.570  0.2990  1.1670 -1.0474
  140OSM   H18T15327   5.859   6.556   8.437 -0.0579  1.3786  0.2296
  140OSM   H18U15328   5.833   6.446   8.581 -2.8567 -2.3657  0.1418
  140OSM    C1F15329   5.624   5.724   7.033 -0.3872 -0.1169 -0.9221
  140OSM     OF15330   5.717   5.770   6.973 -0.4386 -0.1000 -0.3498
  140OSM    C2F15331   5.635   5.622   7.146  0.1515 -0.4823 -0.1487
  140OSM    H2F15332   5.629   5.520   7.103 -4.1006 -0.2120 -0.6042
  140OSM    H2G15333   5.548   5.631   7.214  1.4328 -1.2584  1.6631
  140OSM    C3F15334   5.761   5.635   7.226 -0.7960  0.1064 -1.2068
  140OSM    H3F15335   5.766   5.732   7.279 -3.0397  0.8995 -2.3373
  140OSM    H3G15336   5.845   5.638   7.154  0.3994  3.6113  0.1181
  140OSM    C4F15337   5.774   5.523   7.327 -0.2905 -0.3784 -0.3637
  140OSM    H4F15338   5.766   5.428   7.271  1.8771 -0.5003 -0.5504
  140OSM    H4G15339   5.692   5.540   7.401  0.0891 -0.9280  0.1879
  140OSM    C5F15340   5.902   5.528   7.415  0.8001  0.5149 -0.5079
  140OSM    H5F15341   5.935   5.633   7.429 -2.8713  2.0624 -2.0004
  140OSM    H5G15342   5.992   5.489   7.363  1.8749  2.3120 -0.0782
  140OSM    C6F15343   5.883   5.458   7.550  0.0186  0.8463 -0.4137
  140OSM    H6F15344   5.838   5.356   7.545 -0.6403  1.1492 -0.7042
  140OSM    H6G15345   5.810   5.525   7.601  1.2880  0.7886  1.6121
  140OSM    C7F15346   6.012   5.458   7.634 -0.1561  0.1112  0.4014
  140OSM    H7F15347   6.044   5.564   7.640 -1.3733  0.4165  3.4395
  140OSM    H7G15348   6.094   5.403   7.583  0.6065  0.4003  1.2869
  140OSM    C8F15349   5.984   5.390   7.770 -0.0554  0.1774  0.6095
  140OSM    H8F15350   5.969   5.282   7.751  0.9463 -0.1674  1.6652
  140OSM    H8G15351   5.890   5.426   7.818 -0.5820 -0.3645  0.0002
  140OSM    C9F15352   6.105   5.397   7.859 -0.4398 -0.1235 -0.2614
  140OSM    H9F15353   6.191   5.341   7.819 -0.7123 -0.5305 -0.2842
  140OSM   C10F15354   6.122   5.461   7.980 -0.0383 -0.9590  0.0052
  140OSM   H10F15355   6.219   5.465   8.031 -0.7031 -0.3481  1.2900
  140OSM   C11F15356   6.024   5.558   8.039  0.2249  0.4440 -0.2170
  140OSM   H11F15357   5.939   5.575   7.970 -0.2374  0.8015  0.4266
  140OSM   H11G15358   6.071   5.657   8.057 -0.3091  0.4414  1.3638
  140OSM   C12F15359   5.967   5.498   8.166 -0.0658  0.4414 -0.4871
  140OSM   H12F15360   5.927   5.582   8.226  0.7662  1.2632 -1.0690
  140OSM   H12G15361   6.047   5.451   8.227  0.4165 -0.2400 -1.6140
  140OSM   C13F15362   5.850   5.398   8.144  0.4692 -0.1232 -0.0056
  140OSM   H13F15363   5.880   5.332   8.060  2.5391 -1.0070  1.3814
  140OSM   H13G15364   5.758   5.455   8.117  0.9424  0.2063 -0.9724
  140OSM   C14F15365   5.801   5.329   8.269 -0.0862 -0.1707 -0.4502
  140OSM   H14F15366   5.694   5.303   8.255 -0.2431  1.0908 -1.8607
  140OSM   H14G15367   5.813   5.395   8.359 -0.6704 -0.0597 -0.4457
  140OSM   C15F15368   5.869   5.192   8.298 -0.9874  0.5815  0.0951
  140OSM   H15F15369   5.979   5.199   8.288 -0.7605 -0.7905  1.2170
  140OSM   H15G15370   5.832   5.126   8.217  0.5535  1.5878 -1.4921
  140OSM   C16F15371   5.864   5.138   8.444 -0.1918  0.5117  0.5019
  140OSM   H16F15372   5.923   5.204   8.511  3.7344 -1.7181 -0.4258
  140OSM   H16G15373   5.913   5.039   8.459  1.0118  0.8307 -1.0686
  140OSM   C17F15374   5.729   5.120   8.507  0.3571  0.4031 -0.0446
  140OSM   H17F15375   5.658   5.051   8.458  2.2588 -2.9718  1.5802
  140OSM   H17G15376   5.687   5.223   8.515 -0.8560 -0.1115  0.3513
  140OSM   C18F15377   5.745   5.069   8.653  0.4067 -0.5247  0.2295
  140OSM   H18F15378   5.646   5.072   8.703  0.5875 -1.8600  0.7246
  140OSM   H18G15379   5.816   5.125   8.717 -1.0458 -0.2412  1.6351
  140OSM   H18H15380   5.770   4.961   8.645  0.3474 -0.4524 -1.3522
  141OSM      N15381   3.696   5.496   5.950  0.4968  0.1930 -0.4422
  141OSM    C1515382   3.665   5.416   5.827 -0.0498  0.2654  0.2655
  141OSM   H15A15383   3.758   5.398   5.774 -0.8583 -0.2820 -1.0073
  141OSM   H15B15384   3.599   5.482   5.773 -0.4497  1.6680  2.3204
  141OSM   H15C15385   3.631   5.317   5.854  3.4510 -1.7169 -1.8680
  141OSM    C1415386   3.790   5.407   6.031  1.0379  0.2716  0.1304
  141OSM   H14A15387   3.891   5.399   5.993 -0.3745 -1.5190 -3.8077
  141OSM   H14B15388   3.751   5.308   6.049 -2.8895  1.6812  0.3186
  141OSM   H14C15389   3.794   5.451   6.129 -0.6312  0.2367  0.2348
  141OSM    C1315390   3.777   5.619   5.912  0.9602 -0.0852 -0.6694
  141OSM   H13A15391   3.875   5.592   5.876  1.1376  0.8976 -0.9480
  141OSM   H13B15392   3.789   5.689   5.993  2.4272  0.5047 -1.3701
  141OSM   H13C15393   3.721   5.668   5.834  0.2572  0.4653  0.1598
  141OSM    C1215394   3.569   5.525   6.023  0.4266  0.7026 -0.5807
  141OSM   H12A15395   3.519   5.431   6.044  1.5078  0.0243 -0.9339
  141OSM   H12B15396   3.500   5.584   5.964 -1.5005  0.1672  1.0269
  141OSM    C1115397   3.569   5.586   6.168 -0.3194 -0.4385  0.2160
  141OSM   H11A15398   3.599   5.506   6.239  2.3313  1.9343  1.9373
  141OSM   H11B15399   3.464   5.604   6.201 -0.7305 -0.9542 -0.7572
  141OSM      P15400   3.588   5.850   6.158 -0.1201  0.2032  0.2049
  141OSM    O1315401   3.704   5.938   6.159 -0.1383 -0.1344 -0.4487
  141OSM    O1415402   3.501   5.852   6.037  0.3303 -0.5471 -0.1189
  141OSM    O1115403   3.518   5.881   6.293 -0.1827  0.2310 -0.1937
  141OSM    O1215404   3.653   5.705   6.172 -0.0722 -0.0107 -0.4287
  141OSM    C1S15405   3.577   5.867   6.425 -0.8365  0.1715 -0.8671
  141OSM    H1S15406   3.685   5.849   6.408 -0.8168  1.1625 -1.8647
  141OSM    H1T15407   3.537   5.785   6.489  1.1943  0.5992  1.0341
  141OSM     NF15408   3.613   5.975   6.634  0.2769 -0.5274  0.9675
  141OSM    HNF15409   3.553   5.956   6.711 -1.1282 -2.5208 -0.5427
  141OSM    C2S15410   3.544   5.988   6.507  0.0499 -0.0968 -0.8668
  141OSM    H2S15411   3.586   6.073   6.450 -1.0449  0.1362 -1.3451
  141OSM    C3S15412   3.384   6.009   6.521  0.0020  0.0145 -0.4904
  141OSM    H3S15413   3.339   5.915   6.559  1.7822 -0.7978 -0.2645
  141OSM     O315414   3.321   6.019   6.392  0.2102  0.3069  0.0097
  141OSM    HO315415   3.379   6.005   6.317 -0.8959  2.4798 -1.3559
  141OSM    C4S15416   3.348   6.121   6.611 -0.0698 -0.4613 -0.4780
  141OSM    H4S15417   3.297   6.097   6.705  2.2911  1.5817  1.4923
  141OSM    C5S15418   3.362   6.256   6.574 -0.5523  0.2027 -0.5563
  141OSM    H5S15419   3.406   6.291   6.479  0.4041 -0.6026 -0.4286
  141OSM    C6S15420   3.326   6.364   6.668 -0.1815  0.1692  0.7116
  141OSM    H6S15421   3.215   6.358   6.678 -0.1334  1.8563  3.0882
  141OSM    H6T15422   3.351   6.459   6.617  2.7469 -1.3948 -1.0511
  141OSM    C7S15423   3.380   6.362   6.809 -0.2072 -0.1379 -0.0059
  141OSM    H7S15424   3.491   6.367   6.797 -0.1278  0.9179  0.9506
  141OSM    H7T15425   3.367   6.268   6.866  2.0315 -0.0605  0.7636
  141OSM    C8S15426   3.336   6.485   6.893  0.2909  0.6746  0.5862
  141OSM    H8S15427   3.230   6.479   6.923  0.0856 -0.1744 -0.2521
  141OSM    H8T15428   3.345   6.577   6.831  2.2486 -0.7320 -1.4258
  141OSM    C9S15429   3.407   6.518   7.018  0.3611 -0.2637  0.7386
  141OSM    H9S15430   3.364   6.615   7.052 -0.8377 -0.3942 -0.3458
  141OSM    H9T15431   3.515   6.540   7.002  0.3413 -0.6831 -0.0145
  141OSM   C10S15432   3.403   6.412   7.132  0.3925  0.2871  0.0908
  141OSM   H10S15433   3.452   6.321   7.092 -2.0731 -0.3394 -1.7399
  141OSM   H10T15434   3.299   6.383   7.158  0.2975 -0.3900 -0.9900
  141OSM   C11S15435   3.462   6.471   7.261  0.7717  0.2709  0.1611
  141OSM   H11S15436   3.415   6.568   7.288 -0.0791  0.0049 -0.3189
  141OSM   H11T15437   3.569   6.497   7.248  1.5824 -2.5483  0.5590
  141OSM   C12S15438   3.458   6.375   7.377 -0.6231 -0.0534  0.5507
  141OSM   H12S15439   3.527   6.291   7.351 -0.1651  0.4382  0.1533
  141OSM   H12T15440   3.353   6.351   7.402 -0.8510  0.1552 -0.1736
  141OSM   C13S15441   3.520   6.441   7.502  0.4073  0.6241  0.9786
  141OSM   H13S15442   3.456   6.528   7.528  3.2490  2.4675  2.3359
  141OSM   H13T15443   3.622   6.465   7.466  0.6255 -2.0571 -0.4782
  141OSM   C14S15444   3.539   6.352   7.631  0.1651  0.1765 -0.1515
  141OSM   H14S15445   3.608   6.269   7.603  0.4697  0.4848 -0.3191
  141OSM   H14T15446   3.440   6.308   7.658  0.2769  0.6532  1.0645
  141OSM   C15S15447   3.591   6.426   7.749  0.0448 -0.5047 -0.1619
  141OSM   H15S15448   3.533   6.519   7.768  0.0042 -0.8467  1.5640
  141OSM   H15T15449   3.688   6.471   7.719 -0.4802  0.2456 -0.7792
  141OSM   C16S15450   3.592   6.336   7.870  0.4882  0.0396 -0.0731
  141OSM   H16S15451   3.666   6.258   7.844  1.3893  0.7278  0.3823
  141OSM   H16T15452   3.492   6.289   7.886  1.2151 -1.6199 -0.1193
  141OSM   C17S15453   3.614   6.418   7.996  0.2143 -0.3111  0.3799
  141OSM   H17S15454   3.543   6.504   7.992  1.8419  1.3029  3.1098
  141OSM   H17T15455   3.710   6.471   7.983  0.8854 -2.1257 -3.9099
  141OSM   C18S15456   3.603   6.342   8.127  0.4982 -0.6537  0.4897
  141OSM   H18S15457   3.672   6.256   8.109  1.6806  0.1769  0.9172
  141OSM   H18T15458   3.500   6.307   8.146 -0.7500  2.5695  0.3855
  141OSM   H18U15459   3.638   6.401   8.214  3.0613 -1.5112  0.1202
  141OSM    C1F15460   3.744   5.971   6.648 -0.1545  0.1965 -0.4479
  141OSM     OF15461   3.811   5.996   6.550 -0.0569 -0.8354 -0.7015
  141OSM    C2F15462   3.806   5.924   6.774 -0.6531  0.4788  0.4752
  141OSM    H2F15463   3.802   5.813   6.773 -1.0179  0.4336 -2.8218
  141OSM    H2G15464   3.750   5.963   6.861  0.7986  1.1109  1.1558
  141OSM    C3F15465   3.956   5.966   6.795  0.4166  0.2406  0.4197
  141OSM    H3F15466   3.967   6.074   6.768 -2.1900 -0.4148 -4.2286
  141OSM    H3G15467   4.012   5.906   6.721 -0.1657  0.5677 -0.2994
  141OSM    C4F15468   3.995   5.937   6.944 -0.1524 -0.1803  0.3804
  141OSM    H4F15469   4.007   5.828   6.958 -4.8953 -0.9299  0.2023
  141OSM    H4G15470   3.914   5.965   7.015 -1.0523  2.0862 -1.3915
  141OSM    C5F15471   4.131   6.003   6.970 -0.0335  0.3481 -0.3668
  141OSM    H5F15472   4.139   6.102   6.921 -0.0005  2.0996  2.8712
  141OSM    H5G15473   4.211   5.938   6.928 -1.7698 -2.3135  0.1958
  141OSM    C6F15474   4.160   6.021   7.124 -0.4522  0.2822 -0.8016
  141OSM    H6F15475   4.083   6.088   7.167  0.2782  0.0376  0.9908
  141OSM    H6G15476   4.254   6.079   7.133  1.5936 -2.8955  0.0849
  141OSM    C7F15477   4.179   5.894   7.212  0.2886 -0.1767 -0.6325
  141OSM    H7F15478   4.275   5.841   7.193  0.3396 -0.2510 -0.1872
  141OSM    H7G15479   4.100   5.827   7.171  0.0557  0.7700 -1.7524
  141OSM    C8F15480   4.157   5.913   7.365 -0.0454  0.4790 -0.1454
  141OSM    H8F15481   4.148   5.808   7.400 -0.0643  1.6606  4.0522
  141OSM    H8G15482   4.064   5.970   7.387  0.4569  0.7075  1.5525
  141OSM    C9F15483   4.255   5.991   7.455  0.7674 -0.6891 -0.1130
  141OSM    H9F15484   4.289   6.078   7.398 -1.3548  0.7944  0.7394
  141OSM   C10F15485   4.292   5.961   7.579  0.7413 -0.2988 -0.6113
  141OSM   H10F15486   4.363   6.032   7.623 -1.4568  0.5042  1.9128
  141OSM   C11F15487   4.261   5.845   7.661  0.4835  0.4441  0.2221
  141OSM   H11F15488   4.346   5.837   7.733  0.5163 -4.4358 -0.0346
  141OSM   H11G15489   4.265   5.762   7.588 -2.2734 -0.4579  0.9757
  141OSM   C12F15490   4.123   5.844   7.729 -0.1047 -0.4787 -0.3602
  141OSM   H12F15491   4.053   5.811   7.649  0.5406  0.8048 -1.4814
  141OSM   H12G15492   4.094   5.946   7.760  0.2542 -0.5104  0.0885
  141OSM   C13F15493   4.118   5.742   7.845 -0.0361 -0.4279 -0.7423
  141OSM   H13F15494   4.192   5.774   7.921 -0.2024  0.4131 -0.9127
  141OSM   H13G15495   4.157   5.641   7.821  1.8010  0.0467  0.0660
  141OSM   C14F15496   3.986   5.752   7.927  0.1857  0.8851 -0.5183
  141OSM   H14F15497   3.902   5.729   7.857 -0.7036  0.6808  0.5814
  141OSM   H14G15498   3.962   5.850   7.972 -2.1523  0.4781 -0.7401
  141OSM   C15F15499   3.986   5.646   8.034  0.8398  0.1571 -0.2070
  141OSM   H15F15500   4.068   5.671   8.105 -0.0402  3.2944 -0.1716
  141OSM   H15G15501   4.000   5.543   7.994  0.8414  0.0004  0.1941
  141OSM   C16F15502   3.851   5.632   8.102  0.0322  0.4599 -0.6746
  141OSM   H16F15503   3.779   5.576   8.039  2.0495  1.3445 -4.0332
  141OSM   H16G15504   3.806   5.727   8.137  1.6238 -0.0817  3.3363
  141OSM   C17F15505   3.872   5.546   8.229 -0.3506  1.0741 -0.2023
  141OSM   H17F15506   3.953   5.585   8.294 -0.3632  3.1190 -1.3668
  141OSM   H17G15507   3.919   5.452   8.190 -0.1392  1.9851 -2.2689
  141OSM   C18F15508   3.745   5.526   8.309  0.0376 -0.9456  0.6709
  141OSM   H18F15509   3.728   5.621   8.363  0.0079  0.1992 -1.2620
  141OSM   H18G15510   3.752   5.439   8.377  2.1592 -0.9576  0.5145
  141OSM   H18H15511   3.668   5.515   8.229 -0.2099 -0.9655  0.9135
  142OSM      N15512   3.002   0.557   6.307 -0.4152 -0.0315 -0.4664
  142OSM    C1515513   3.067   0.418   6.286  0.6779 -0.2617  0.2392
  142OSM   H15A15514   3.175   0.423   6.289  0.6931  0.4275 -0.8407
  142OSM   H15B15515   3.038   0.378   6.190  1.1295 -2.6353  1.0173
  142OSM   H15C15516   3.040   0.346   6.362  0.3064 -0.5913 -0.2027
  142OSM    C1415517   2.859   0.537   6.303  0.3748  0.0623 -0.2606
  142OSM   H14A15518   2.833   0.493   6.208 -0.2648  1.6678 -0.8617
  142OSM   H14B15519   2.797   0.625   6.311 -1.7402 -1.3837  0.0674
  142OSM   H14C15520   2.832   0.464   6.378 -0.6556  1.8556  1.2035
  142OSM    C1315521   3.030   0.617   6.441 -0.0049 -0.7377 -0.0451
  142OSM   H13A15522   2.973   0.709   6.450 -0.4212 -0.7444 -2.0532
  142OSM   H13B15523   3.135   0.635   6.451 -0.0243 -1.3287  1.4711
  142OSM   H13C15524   3.001   0.553   6.523 -0.1838 -0.0317  0.4540
  142OSM    C1215525   3.055   0.657   6.202 -0.8639 -0.3713 -0.3602
  142OSM   H12A15526   2.995   0.746   6.196 -1.4649 -0.6730  0.7799
  142OSM   H12B15527   3.033   0.613   6.106 -1.4172  0.2441 -0.5231
  142OSM    C1115528   3.202   0.710   6.216 -0.0742  0.8282  0.3890
  142OSM   H11A15529   3.248   0.723   6.116 -0.8870 -0.0488 -0.1287
  142OSM   H11B15530   3.257   0.630   6.270 -0.0837  0.7185  0.2350
  142OSM      P15531   3.332   0.907   6.321 -0.0112  0.2598  0.2130
  142OSM    O1315532   3.431   0.839   6.238  0.4926 -0.1201 -0.3973
  142OSM    O1415533   3.312   1.051   6.313  0.2888 -0.4094 -0.9168
  142OSM    O1115534   3.359   0.855   6.479  0.0984 -0.5021  0.0181
  142OSM    O1215535   3.198   0.827   6.297 -0.4468  0.4721  0.4899
  142OSM    C1S15536   3.482   0.874   6.545  0.3656 -0.7705  0.0486
  142OSM    H1S15537   3.523   0.976   6.531 -1.2429  0.0054  0.8324
  142OSM    H1T15538   3.559   0.812   6.494  0.4889  0.7447 -1.7018
  142OSM     NF15539   3.578   0.883   6.770  0.0545  0.0009  0.4677
  142OSM    HNF15540   3.642   0.811   6.798 -0.7543 -1.9476 -2.2440
  142OSM    C2S15541   3.461   0.841   6.695  0.5825 -0.7030  0.1138
  142OSM    H2S15542   3.374   0.898   6.735  1.5208 -0.0527  1.2786
  142OSM    C3S15543   3.420   0.684   6.705  0.6975 -0.6371  0.5727
  142OSM    H3S15544   3.493   0.623   6.648  0.7603 -1.6207  1.6786
  142OSM     O315545   3.291   0.657   6.651  0.0303 -0.4522 -0.0132
  142OSM    HO315546   3.276   0.728   6.588 -1.8504  0.9186  1.8365
  142OSM    C4S15547   3.421   0.646   6.850  0.5315 -0.2946  0.3180
  142OSM    H4S15548   3.352   0.706   6.912  1.4435  0.0268  1.0380
  142OSM    C5S15549   3.490   0.542   6.898  0.1756 -0.1517 -0.3987
  142OSM    H5S15550   3.541   0.475   6.826  1.1827  0.0947  0.0742
  142OSM    C6S15551   3.494   0.508   7.048 -0.3567 -0.0667  0.5318
  142OSM    H6S15552   3.592   0.462   7.075  0.0773  1.2225  1.2841
  142OSM    H6T15553   3.426   0.425   7.075 -0.1906  0.0550  1.3769
  142OSM    C7S15554   3.467   0.612   7.155  0.0600 -0.1252 -0.9869
  142OSM    H7S15555   3.368   0.654   7.128 -0.1183  1.5452  1.7661
  142OSM    H7T15556   3.535   0.700   7.155  1.0027 -0.8445 -1.0013
  142OSM    C8S15557   3.440   0.555   7.298 -0.5755 -0.2131 -0.8637
  142OSM    H8S15558   3.382   0.461   7.289  0.7637 -1.0898 -0.6195
  142OSM    H8T15559   3.383   0.632   7.354 -0.1379 -0.0824 -0.5875
  142OSM    C9S15560   3.574   0.514   7.374  0.2640 -0.3789  0.0498
  142OSM    H9S15561   3.657   0.582   7.348 -0.6212  0.7851  0.1850
  142OSM    H9T15562   3.599   0.418   7.324 -0.0301  0.0355 -0.9191
  142OSM   C10S15563   3.562   0.499   7.527 -1.0709 -0.4204  0.0768
  142OSM   H10S15564   3.661   0.463   7.562 -0.4540  1.8462  0.8346
  142OSM   H10T15565   3.491   0.415   7.544 -3.4949  1.7943  1.6494
  142OSM   C11S15566   3.512   0.623   7.606 -0.2107  0.6767  0.0077
  142OSM   H11S15567   3.401   0.625   7.601 -0.4272 -0.3949  2.5954
  142OSM   H11T15568   3.547   0.723   7.573 -1.5929  0.6835 -1.5985
  142OSM   C12S15569   3.538   0.620   7.755 -0.1352  0.7089 -1.3457
  142OSM   H12S15570   3.578   0.715   7.797 -1.8097  2.1616 -2.8169
  142OSM   H12T15571   3.603   0.535   7.783  1.5094  2.2278 -0.3028
  142OSM   C13S15572   3.411   0.608   7.838 -0.4664 -0.2223  0.5851
  142OSM   H13S15573   3.366   0.507   7.828  2.0227 -1.1982 -2.1547
  142OSM   H13T15574   3.346   0.689   7.800 -0.7619 -1.1954 -1.0291
  142OSM   C14S15575   3.441   0.642   7.982  0.5811  0.2380 -0.4768
  142OSM   H14S15576   3.485   0.744   7.988  2.9982 -0.6778 -1.3265
  142OSM   H14T15577   3.514   0.569   8.024 -1.6713 -0.8552  1.8002
  142OSM   C15S15578   3.308   0.633   8.067 -0.4666  0.3271 -0.3408
  142OSM   H15S15579   3.268   0.530   8.067 -0.8331  0.4700 -0.0752
  142OSM   H15T15580   3.238   0.708   8.024 -0.9860 -0.7757 -1.4577
  142OSM   C16S15581   3.310   0.666   8.219 -1.4475 -1.0301  0.5195
  142OSM   H16S15582   3.357   0.585   8.279 -1.3664 -0.0285  1.8520
  142OSM   H16T15583   3.206   0.678   8.256 -1.3442 -2.4958  1.3637
  142OSM   C17S15584   3.386   0.800   8.244 -0.3239  0.5204  0.4930
  142OSM   H17S15585   3.339   0.878   8.181 -0.9265 -0.1837  0.0471
  142OSM   H17T15586   3.492   0.786   8.213 -0.5239 -0.5084  0.2168
  142OSM   C18S15587   3.379   0.823   8.393 -0.5299  0.5199 -0.7843
  142OSM   H18S15588   3.461   0.764   8.440 -2.6992 -1.8885  0.2204
  142OSM   H18T15589   3.281   0.804   8.441  0.3248  3.5540  2.5533
  142OSM   H18U15590   3.409   0.928   8.413  0.5503 -0.2375  2.0367
  142OSM    C1F15591   3.599   1.017   6.802 -0.3483 -0.5728  0.1413
  142OSM     OF15592   3.512   1.104   6.795  0.1109  0.1750  0.3536
  142OSM    C2F15593   3.731   1.048   6.868 -0.5806  0.0832  0.4278
  142OSM    H2F15594   3.799   1.104   6.800 -1.3093 -0.1706 -0.5231
  142OSM    H2G15595   3.781   0.954   6.900  2.5183  1.4003 -0.1835
  142OSM    C3F15596   3.717   1.129   6.992  0.4835 -0.5948 -0.6455
  142OSM    H3F15597   3.661   1.223   6.973 -0.7995 -0.8574  1.5337
  142OSM    H3G15598   3.815   1.148   7.041 -1.2364  1.5061  2.3305
  142OSM    C4F15599   3.630   1.086   7.114 -0.4813 -0.3815  0.0659
  142OSM    H4F15600   3.522   1.084   7.087 -0.7477 -1.1571  1.1194
  142OSM    H4G15601   3.648   1.164   7.191  1.4817 -2.0996  1.4656
  142OSM    C5F15602   3.670   0.956   7.197  0.8777 -0.1347  0.5106
  142OSM    H5F15603   3.780   0.951   7.210  0.6914  0.4228  2.5349
  142OSM    H5G15604   3.641   0.868   7.134  0.2121  0.2303  0.3017
  142OSM    C6F15605   3.611   0.938   7.336  0.2766 -1.2427  0.1314
  142OSM    H6F15606   3.653   0.857   7.399  1.9856 -1.6145 -1.3929
  142OSM    H6G15607   3.504   0.916   7.318 -0.0614 -0.5950  1.2867
  142OSM    C7F15608   3.626   1.062   7.427 -0.0815 -0.1804  0.3551
  142OSM    H7F15609   3.571   1.149   7.386 -0.9380 -2.1108 -2.9629
  142OSM    H7G15610   3.733   1.089   7.430  0.0306 -0.4421 -0.9029
  142OSM    C8F15611   3.578   1.035   7.572  0.3468 -0.2531  0.6589
  142OSM    H8F15612   3.613   1.125   7.628 -2.2217 -0.3337  2.5353
  142OSM    H8G15613   3.636   0.949   7.612 -1.6378 -1.1550  1.7347
  142OSM    C9F15614   3.437   1.015   7.581  0.9780 -0.5614  0.5430
  142OSM    H9F15615   3.383   0.953   7.508 -0.1240 -0.4247  1.2275
  142OSM   C10F15616   3.362   1.056   7.688 -0.6292  0.6455 -0.2913
  142OSM   H10F15617   3.257   1.025   7.700 -0.7594  1.2870  0.3068
  142OSM   C11F15618   3.425   1.127   7.800  0.1373  0.2638  0.1508
  142OSM   H11F15619   3.425   1.238   7.799  1.3015  0.3153  1.7730
  142OSM   H11G15620   3.532   1.100   7.796  1.3785  4.5604 -0.2816
  142OSM   C12F15621   3.374   1.089   7.941 -0.3465 -0.7625 -0.2974
  142OSM   H12F15622   3.462   1.088   8.009 -1.6122 -2.4157  1.4441
  142OSM   H12G15623   3.325   0.989   7.948 -0.3620 -0.7854 -0.7305
  142OSM   C13F15624   3.267   1.189   8.000  0.6411  0.1011  0.2897
  142OSM   H13F15625   3.190   1.200   7.921  1.3091  1.8104 -0.1921
  142OSM   H13G15626   3.306   1.293   8.008 -0.2600  0.6367 -1.7072
  142OSM   C14F15627   3.208   1.140   8.131 -0.0020 -0.1330 -0.3203
  142OSM   H14F15628   3.284   1.115   8.208  0.3164  1.4873 -0.0894
  142OSM   H14G15629   3.163   1.041   8.109  0.2998  0.1855 -2.5850
  142OSM   C15F15630   3.095   1.230   8.190  0.3498 -0.0363 -0.0304
  142OSM   H15F15631   3.014   1.259   8.119 -1.1097  1.2428  2.0500
  142OSM   H15G15632   3.140   1.331   8.196 -0.3188  0.3457 -1.2041
  142OSM   C16F15633   3.051   1.172   8.327 -0.2693  0.1952 -0.5635
  142OSM   H16F15634   3.013   1.070   8.301 -2.2211  0.3279  1.4697
  142OSM   H16G15635   2.961   1.231   8.354  0.2150  0.6344  0.1470
  142OSM   C17F15636   3.142   1.177   8.444 -0.0246  0.0649 -0.5299
  142OSM   H17F15637   3.157   1.287   8.456 -1.2218  0.3527 -1.5688
  142OSM   H17G15638   3.239   1.124   8.431 -0.7094 -1.0719 -1.1186
  142OSM   C18F15639   3.077   1.109   8.567 -0.1762 -0.6129 -0.0268
  142OSM   H18F15640   3.032   1.014   8.529 -0.3833  0.3778 -2.4084
  142OSM   H18G15641   2.984   1.150   8.611  0.2851 -0.3614  0.7255
  142OSM   H18H15642   3.160   1.110   8.640  0.4282  2.6316 -0.6553
  143OSM      N15643   5.424   4.271   5.819 -0.4132  0.4973 -0.1708
  143OSM    C1515644   5.292   4.343   5.801  0.2390  0.4347 -0.4254
  143OSM   H15A15645   5.244   4.300   5.714  1.5186 -1.2190 -0.3592
  143OSM   H15B15646   5.308   4.447   5.776 -1.7174  0.7716 -0.4475
  143OSM   H15C15647   5.226   4.333   5.886 -0.1707 -1.1720 -0.8838
  143OSM    C1415648   5.402   4.124   5.840  0.2450  0.4542  0.8202
  143OSM   H14A15649   5.494   4.066   5.838  0.1707  0.3441 -0.8956
  143OSM   H14B15650   5.336   4.079   5.769 -0.9484 -0.7294  2.5946
  143OSM   H14C15651   5.352   4.113   5.935  0.0089  0.4043  0.6907
  143OSM    C1315652   5.502   4.291   5.691 -0.3396  0.1867 -0.0997
  143OSM   H13A15653   5.446   4.241   5.613 -1.2592  0.6339  0.2576
  143OSM   H13B15654   5.606   4.263   5.695 -0.0764  1.2313  2.7784
  143OSM   H13C15655   5.505   4.399   5.686 -2.0103  0.5659  3.5850
  143OSM    C1215656   5.513   4.328   5.927 -0.8146 -0.3678 -0.1730
  143OSM   H12A15657   5.482   4.431   5.940  1.5668  0.1414  2.2619
  143OSM   H12B15658   5.613   4.347   5.891 -0.9851  0.6236 -0.1589
  143OSM    C1115659   5.519   4.251   6.062 -0.0523  0.5074  0.6844
  143OSM   H11A15660   5.575   4.308   6.139  1.2786 -0.2324  0.2913
  143OSM   H11B15661   5.580   4.160   6.045 -1.7617 -1.2236  3.1595
  143OSM      P15662   5.368   4.097   6.203  0.5262  0.0890 -0.1516
  143OSM    O1315663   5.221   4.065   6.211  0.2158 -0.3493  0.1360
  143OSM    O1415664   5.453   3.987   6.156 -0.1107  0.0223 -0.5776
  143OSM    O1115665   5.419   4.142   6.343 -0.0687 -0.1994 -0.1923
  143OSM    O1215666   5.388   4.227   6.113  0.5483  0.4620  0.6159
  143OSM    C1S15667   5.362   4.248   6.420  0.2968 -0.1240 -0.6369
  143OSM    H1S15668   5.252   4.241   6.406  0.4148  0.5440 -2.1533
  143OSM    H1T15669   5.386   4.348   6.377 -1.8787  2.1710  3.0132
  143OSM     NF15670   5.322   4.369   6.634  0.4720  0.1304  0.4253
  143OSM    HNF15671   5.374   4.454   6.626 -0.0465  0.3906 -0.2354
  143OSM    C2S15672   5.389   4.257   6.570  0.3037  0.3373 -0.3575
  143OSM    H2S15673   5.353   4.162   6.615  0.3288  0.8436  0.7451
  143OSM    C3S15674   5.548   4.259   6.594  0.7614 -0.4671  0.1741
  143OSM    H3S15675   5.594   4.349   6.547  0.7389 -1.1362 -1.1444
  143OSM     O315676   5.612   4.155   6.527  0.2331 -0.4705  0.2044
  143OSM    HO315677   5.550   4.138   6.455 -1.0377  1.1061  0.8599
  143OSM    C4S15678   5.583   4.260   6.746 -0.2847  0.0290 -0.8060
  143OSM    H4S15679   5.591   4.361   6.789 -2.6398 -0.6155  1.3857
  143OSM    C5S15680   5.612   4.158   6.831  0.3858 -0.8186  0.6795
  143OSM    H5S15681   5.609   4.056   6.788 -0.8732 -0.3705 -0.3575
  143OSM    C6S15682   5.648   4.191   6.972  0.6121 -0.0540  0.1761
  143OSM    H6S15683   5.736   4.129   6.999  0.5654  0.3179  1.2350
  143OSM    H6T15684   5.566   4.145   7.032 -1.5032  3.5947  0.4156
  143OSM    C7S15685   5.679   4.337   7.029  0.7870 -0.5650  0.4987
  143OSM    H7S15686   5.585   4.397   7.028  1.7647  1.0670 -1.2605
  143OSM    H7T15687   5.742   4.374   6.945  0.5684  0.1978  0.6567
  143OSM    C8S15688   5.747   4.352   7.162  0.4940  0.0381 -0.6949
  143OSM    H8S15689   5.835   4.285   7.172 -1.0103 -1.7156  2.3662
  143OSM    H8T15690   5.670   4.332   7.240 -0.9969 -0.7049 -2.3072
  143OSM    C9S15691   5.806   4.495   7.180 -0.2721  0.6410 -0.6066
  143OSM    H9S15692   5.872   4.514   7.092  2.4083 -0.7008  0.9672
  143OSM    H9T15693   5.873   4.498   7.269  1.5786  1.8524 -1.9703
  143OSM   C10S15694   5.696   4.609   7.193 -0.0413  0.3576 -0.1016
  143OSM   H10S15695   5.641   4.619   7.096 -1.3684  1.6084  0.7335
  143OSM   H10T15696   5.756   4.700   7.215 -0.9227  0.3851  2.5637
  143OSM   C11S15697   5.587   4.600   7.306  0.1658 -0.3267  0.3043
  143OSM   H11S15698   5.553   4.496   7.322 -3.1765  0.1593 -2.3450
  143OSM   H11T15699   5.494   4.650   7.270  0.3402  0.2686  0.6739
  143OSM   C12S15700   5.626   4.658   7.449  0.4516 -0.5211  0.9823
  143OSM   H12S15701   5.541   4.628   7.515 -0.8092 -1.3520 -0.9166
  143OSM   H12T15702   5.637   4.767   7.430 -0.1163 -0.8700 -1.7887
  143OSM   C13S15703   5.760   4.599   7.500  0.6060 -0.0645 -0.1194
  143OSM   H13S15704   5.834   4.649   7.433  1.4831  1.0832  1.6081
  143OSM   H13T15705   5.773   4.489   7.491  0.0747 -0.2508  1.2388
  143OSM   C14S15706   5.800   4.638   7.639  0.5317 -0.3598 -0.4974
  143OSM   H14S15707   5.900   4.592   7.658  0.2576 -0.6867  0.2052
  143OSM   H14T15708   5.727   4.591   7.708  0.9296  0.8195  0.7811
  143OSM   C15S15709   5.808   4.788   7.677 -0.0298  0.2580  0.4036
  143OSM   H15S15710   5.711   4.842   7.675 -1.1790 -1.6988 -1.1421
  143OSM   H15T15711   5.859   4.829   7.587 -1.8835  0.7971 -0.4588
  143OSM   C16S15712   5.894   4.814   7.805  0.1226  0.0868 -0.5997
  143OSM   H16S15713   5.948   4.722   7.836 -2.6518 -1.0767  1.2345
  143OSM   H16T15714   5.824   4.828   7.890  1.9070  2.2887  0.5811
  143OSM   C17S15715   5.989   4.938   7.802 -0.4601  0.1565  0.1603
  143OSM   H17S15716   5.934   5.020   7.752 -0.4201  1.6687  2.4508
  143OSM   H17T15717   6.079   4.905   7.746 -0.8932 -1.4784  0.3533
  143OSM   C18S15718   6.031   5.001   7.936 -0.1183  0.3378 -0.4536
  143OSM   H18S15719   6.115   5.070   7.915 -0.5660  1.0472  0.0462
  143OSM   H18T15720   6.078   4.920   7.998  2.0349  0.7432 -1.4792
  143OSM   H18U15721   5.954   5.055   7.995  1.3755  1.1066  0.8798
  143OSM    C1F15722   5.186   4.369   6.661 -0.2085 -0.5246  0.2050
  143OSM     OF15723   5.111   4.273   6.639 -0.0442  0.3059 -0.2965
  143OSM    C2F15724   5.131   4.492   6.710  0.0233 -0.3407  0.2391
  143OSM    H2F15725   5.039   4.519   6.653 -0.3807 -0.9203  0.6022
  143OSM    H2G15726   5.203   4.573   6.688 -1.0116  0.2427 -1.2308
  143OSM    C3F15727   5.090   4.473   6.860 -0.5589 -0.1642 -0.1377
  143OSM    H3F15728   5.012   4.394   6.864 -0.2558 -0.4974 -0.6974
  143OSM    H3G15729   5.031   4.559   6.900  1.2735  1.8993 -1.6311
  143OSM    C4F15730   5.198   4.423   6.955  0.4641  0.4951 -0.4469
  143OSM    H4F15731   5.284   4.494   6.953  3.8049 -3.1914 -1.2263
  143OSM    H4G15732   5.264   4.340   6.922  0.2865 -0.2856  1.0347
  143OSM    C5F15733   5.145   4.396   7.098 -0.3442  0.0692 -0.1633
  143OSM    H5F15734   5.091   4.300   7.096 -0.6121  0.2069 -2.5676
  143OSM    H5G15735   5.071   4.472   7.132 -0.6369  0.2415 -1.1540
  143OSM    C6F15736   5.259   4.398   7.199 -0.1923 -0.4543  0.5651
  143OSM    H6F15737   5.294   4.502   7.214 -2.2847  0.3079  0.6153
  143OSM    H6G15738   5.343   4.333   7.168 -1.5300 -1.7324 -0.5257
  143OSM    C7F15739   5.215   4.353   7.337 -0.1053  0.0802 -0.2275
  143OSM    H7F15740   5.195   4.245   7.320 -2.2498  0.8334 -3.2592
  143OSM    H7G15741   5.120   4.406   7.360 -0.3031  0.0364 -0.9237
  143OSM    C8F15742   5.319   4.364   7.451 -0.3132 -0.1074  0.8399
  143OSM    H8F15743   5.332   4.473   7.467 -1.8419  1.3245 -5.1247
  143OSM    H8G15744   5.416   4.330   7.407  0.3188  3.5509 -0.9932
  143OSM    C9F15745   5.269   4.283   7.569 -0.2582 -0.0282  1.2143
  143OSM    H9F15746   5.229   4.182   7.553  2.3336 -0.6814 -2.2692
  143OSM   C10F15747   5.278   4.329   7.693 -0.4230 -0.0060 -0.3022
  143OSM   H10F15748   5.233   4.274   7.777 -1.5093  1.0392 -0.1827
  143OSM   C11F15749   5.345   4.451   7.734  0.5094  0.2264 -0.7284
  143OSM   H11F15750   5.275   4.532   7.764 -1.4102 -1.1087 -1.3910
  143OSM   H11G15751   5.411   4.482   7.651  1.5111  1.4836  0.5086
  143OSM   C12F15752   5.438   4.423   7.855 -0.2073  0.4625 -0.3850
  143OSM   H12F15753   5.534   4.381   7.818  1.4821  0.1787  3.8140
  143OSM   H12G15754   5.402   4.339   7.919 -0.2139  0.3781 -0.4979
  143OSM   C13F15755   5.473   4.543   7.935  0.2385 -0.4551 -0.6910
  143OSM   H13F15756   5.383   4.608   7.943  0.3803 -0.4264  1.3580
  143OSM   H13G15757   5.546   4.613   7.889 -0.6689  1.7313  0.9701
  143OSM   C14F15758   5.516   4.504   8.079  0.0160  0.1900 -0.8246
  143OSM   H14F15759   5.434   4.443   8.122 -0.8624  1.1482 -1.0784
  143OSM   H14G15760   5.522   4.588   8.151  1.6049  0.7710 -1.5872
  143OSM   C15F15761   5.648   4.426   8.083  0.2115 -0.4182 -0.0691
  143OSM   H15F15762   5.730   4.499   8.062 -2.0259  2.1539 -0.3636
  143OSM   H15G15763   5.651   4.352   8.001  0.1938 -1.1071  0.5409
  143OSM   C16F15764   5.676   4.356   8.215  0.5465  0.0658  1.1155
  143OSM   H16F15765   5.641   4.431   8.290  0.0863  0.2631  0.7148
  143OSM   H16G15766   5.780   4.322   8.233  0.5871 -0.5543 -0.2070
  143OSM   C17F15767   5.584   4.237   8.245 -0.5793  0.0836  0.6015
  143OSM   H17F15768   5.602   4.161   8.166  0.0248  1.6362 -0.8209
  143OSM   H17G15769   5.479   4.273   8.232  0.1455  2.4645  0.7607
  143OSM   C18F15770   5.622   4.163   8.373 -0.2997 -0.0216 -0.5276
  143OSM   H18F15771   5.619   4.228   8.463  1.5801  0.8749 -1.0575
  143OSM   H18G15772   5.721   4.113   8.370  0.3415  1.2309 -2.6208
  143OSM   H18H15773   5.540   4.089   8.383  0.4849 -0.6066  2.3467
  144OSM      N15774   5.787   4.882   5.775  0.4294  0.0678 -0.2122
  144OSM    C1515775   5.740   4.823   5.646  0.3291  0.0739  0.6508
  144OSM   H15A15776   5.638   4.855   5.629  0.2703  0.5236  1.7826
  144OSM   H15B15777   5.757   4.717   5.633 -0.7447  0.1554 -2.1052
  144OSM   H15C15778   5.794   4.874   5.568 -0.3921  2.1044  1.4229
  144OSM    C1415779   5.922   4.839   5.800  0.0451 -0.5005 -0.0054
  144OSM   H14A15780   5.969   4.888   5.884 -0.9517  0.6747 -0.0983
  144OSM   H14B15781   5.983   4.854   5.712 -1.1602  0.0953 -0.7622
  144OSM   H14C15782   5.927   4.738   5.836  0.0460  0.7828  4.1459
  144OSM    C1315783   5.780   5.031   5.772 -0.2506  0.2230 -0.1393
  144OSM   H13A15784   5.678   5.065   5.780 -0.0844  1.3370 -2.1772
  144OSM   H13B15785   5.822   5.070   5.680  2.0202 -0.4160  0.5558
  144OSM   H13C15786   5.838   5.072   5.853 -0.1154 -3.2476  1.7560
  144OSM    C1215787   5.683   4.827   5.876 -0.0968  0.0257 -0.2140
  144OSM   H12A15788   5.679   4.719   5.874  1.2236 -0.0614 -3.2548
  144OSM   H12B15789   5.583   4.858   5.849 -0.0300  0.5679  0.1535
  144OSM    C1115790   5.698   4.865   6.028 -0.4743 -0.4427  0.1462
  144OSM   H11A15791   5.728   4.971   6.042  0.9547 -0.6903 -0.8851
  144OSM   H11B15792   5.790   4.820   6.070  1.4351  2.9073 -0.1428
  144OSM      P15793   5.524   4.694   6.122  0.4696 -0.0295  0.5113
  144OSM    O1315794   5.399   4.713   6.204 -0.5424 -0.0596  0.5193
  144OSM    O1415795   5.501   4.625   5.989 -0.2014 -0.2561  0.2026
  144OSM    O1115796   5.636   4.625   6.206 -0.2395 -0.8139  0.1832
  144OSM    O1215797   5.579   4.835   6.106  0.2842  0.5867  0.4816
  144OSM    C1S15798   5.675   4.672   6.336  0.6057 -0.4388 -0.4951
  144OSM    H1S15799   5.593   4.727   6.386 -0.3998 -1.7584 -0.6288
  144OSM    H1T15800   5.752   4.752   6.332 -1.3751  1.6023  0.1196
  144OSM     NF15801   5.713   4.606   6.568  0.3082  0.5631 -0.1081
  144OSM    HNF15802   5.807   4.624   6.598  1.9230  0.2120 -4.3079
  144OSM    C2S15803   5.707   4.559   6.432  0.2272 -0.0282 -0.0940
  144OSM    H2S15804   5.623   4.487   6.434  0.2219 -0.0032  1.4495
  144OSM    C3S15805   5.848   4.490   6.390  0.7896 -0.4404 -0.0886
  144OSM    H3S15806   5.934   4.559   6.406  0.8134 -1.0390  3.0117
  144OSM     O315807   5.854   4.446   6.255  0.1916  0.5452  0.2605
  144OSM    HO315808   5.774   4.471   6.210  0.8888  0.1692 -1.2416
  144OSM    C4S15809   5.875   4.370   6.474 -0.2562  0.2200  0.0392
  144OSM    H4S15810   5.790   4.301   6.480  0.1325 -0.2205  0.6103
  144OSM    C5S15811   5.980   4.343   6.551  0.2167 -0.1866 -0.3905
  144OSM    H5S15812   6.068   4.409   6.552  2.7476 -3.3038  0.8243
  144OSM    C6S15813   5.982   4.221   6.643 -0.2971  0.2723  0.2185
  144OSM    H6S15814   6.040   4.136   6.603 -2.5115 -1.2536  0.0615
  144OSM    H6T15815   5.878   4.184   6.660 -1.2218  1.4350 -2.4287
  144OSM    C7S15816   6.029   4.255   6.780  0.0305 -0.0480  0.4253
  144OSM    H7S15817   5.969   4.339   6.821 -1.3381 -1.0686  0.5566
  144OSM    H7T15818   6.132   4.296   6.772 -0.1933  0.0665 -3.9796
  144OSM    C8S15819   6.026   4.134   6.878  0.5455 -0.0503 -0.7180
  144OSM    H8S15820   6.059   4.039   6.830 -2.2006 -0.9382 -1.0374
  144OSM    H8T15821   5.916   4.119   6.886  0.6059 -0.0583  0.2463
  144OSM    C9S15822   6.080   4.159   7.019  0.5385  0.2011  0.4359
  144OSM    H9S15823   6.017   4.240   7.061  0.9767  1.7673 -1.7640
  144OSM    H9T15824   6.185   4.197   7.013  1.0061 -0.9596  0.9340
  144OSM   C10S15825   6.066   4.034   7.110  1.0639  0.1760  0.6653
  144OSM   H10S15826   6.114   3.945   7.065  0.7540  0.2014  0.2825
  144OSM   H10T15827   5.961   4.006   7.130  1.4502 -1.4198  0.5782
  144OSM   C11S15828   6.140   4.040   7.248 -0.1520 -0.2174  0.1207
  144OSM   H11S15829   6.247   4.056   7.224 -0.8285  2.5048 -1.4802
  144OSM   H11T15830   6.117   3.942   7.296  3.3349 -2.1199 -1.6811
  144OSM   C12S15831   6.094   4.153   7.333  0.8529 -0.1459 -0.0374
  144OSM   H12S15832   5.990   4.171   7.300  1.1367 -1.3302 -1.7062
  144OSM   H12T15833   6.161   4.239   7.314  0.0242  0.3398 -0.8521
  144OSM   C13S15834   6.090   4.127   7.482  0.3050  0.3672  0.1067
  144OSM   H13S15835   6.190   4.133   7.531  0.2924  1.0771  0.0586
  144OSM   H13T15836   6.048   4.028   7.508  0.3990  0.9659  2.9560
  144OSM   C14S15837   5.996   4.225   7.552 -0.4632 -0.1225 -0.3197
  144OSM   H14S15838   5.889   4.204   7.528 -0.6790  1.5351 -0.9070
  144OSM   H14T15839   6.019   4.331   7.528  2.0464 -0.0524  1.9462
  144OSM   C15S15840   6.009   4.224   7.706  0.2284 -0.7390 -0.1894
  144OSM   H15S15841   5.926   4.287   7.744  2.7897  3.2150 -0.6678
  144OSM   H15T15842   6.102   4.281   7.725 -0.2107 -0.8220  2.6838
  144OSM   C16S15843   6.005   4.090   7.770  0.6799  0.2079 -0.3445
  144OSM   H16S15844   6.077   4.018   7.724  0.2982 -0.0198 -0.5931
  144OSM   H16T15845   5.910   4.046   7.731  0.3972 -1.5757  2.0891
  144OSM   C17S15846   6.009   4.097   7.929  0.2028  0.2668  0.6312
  144OSM   H17S15847   5.909   4.134   7.961 -1.6997 -0.0825 -4.1640
  144OSM   H17T15848   6.084   4.170   7.964  0.8494 -1.2604  2.6464
  144OSM   C18S15849   6.032   3.957   7.986 -0.8069 -0.7008 -0.1390
  144OSM   H18S15850   5.949   3.891   7.954 -1.8083  0.9308 -1.0369
  144OSM   H18T15851   6.036   3.960   8.096 -0.3227  0.8577 -0.1791
  144OSM   H18U15852   6.124   3.900   7.959 -2.1857 -2.4843 -1.4073
  144OSM    C1F15853   5.603   4.639   6.636  0.9560 -0.4440  0.2307
  144OSM     OF15854   5.498   4.588   6.604  0.1372  0.9136  0.4121
  144OSM    C2F15855   5.608   4.727   6.755  0.1022  0.5103  0.6308
  144OSM    H2F15856   5.617   4.824   6.701  0.0624 -0.6896 -1.6094
  144OSM    H2G15857   5.698   4.709   6.817  0.6896 -0.7931 -0.5649
  144OSM    C3F15858   5.480   4.731   6.829 -0.0798 -0.3773 -0.2175
  144OSM    H3F15859   5.453   4.639   6.884 -2.0487  0.1554 -0.2247
  144OSM    H3G15860   5.398   4.764   6.762 -0.3178  1.1572  0.7784
  144OSM    C4F15861   5.496   4.862   6.927 -0.2220 -0.2998  0.2562
  144OSM    H4F15862   5.546   4.942   6.868 -2.6135  0.7506 -0.4570
  144OSM    H4G15863   5.570   4.816   6.996  0.4671 -2.1611 -1.6144
  144OSM    C5F15864   5.367   4.914   6.992 -0.3647 -0.0150  0.3776
  144OSM    H5F15865   5.329   4.838   7.063  3.5864 -1.1868  1.4412
  144OSM    H5G15866   5.304   4.926   6.900  0.3092  2.7057  0.1881
  144OSM    C6F15867   5.388   5.050   7.052  0.0821  0.1805 -0.6697
  144OSM    H6F15868   5.289   5.092   7.080  0.2910  0.2216  0.0208
  144OSM    H6G15869   5.439   5.104   6.970  0.8008  0.4585 -0.0469
  144OSM    C7F15870   5.491   5.043   7.165 -0.2659  0.1304  0.9927
  144OSM    H7F15871   5.595   5.044   7.127 -1.0714 -0.1343 -1.3843
  144OSM    H7G15872   5.482   4.955   7.233  0.9154 -0.3618  0.5274
  144OSM    C8F15873   5.482   5.175   7.244  0.3675  0.3479  0.2038
  144OSM    H8F15874   5.483   5.260   7.172  1.4221  1.1550  1.1299
  144OSM    H8G15875   5.574   5.178   7.306 -0.0815 -0.6991  0.9493
  144OSM    C9F15876   5.359   5.211   7.325  0.4356 -0.8859  0.1354
  144OSM    H9F15877   5.266   5.207   7.266  1.3833 -0.8718 -1.4421
  144OSM   C10F15878   5.344   5.237   7.455 -0.6652 -0.6179 -0.9230
  144OSM   H10F15879   5.247   5.275   7.492 -1.8652 -4.2810  0.1710
  144OSM   C11F15880   5.460   5.250   7.555 -0.4523 -0.2078  0.7360
  144OSM   H11F15881   5.429   5.303   7.647 -0.2407 -0.6608  1.0721
  144OSM   H11G15882   5.528   5.332   7.523 -0.1931  0.1753  2.2134
  144OSM   C12F15883   5.537   5.129   7.607  0.9507 -0.9645 -0.6307
  144OSM   H12F15884   5.580   5.077   7.519 -3.0338 -2.1059 -2.1283
  144OSM   H12G15885   5.473   5.059   7.665  2.1230 -0.0352  1.9515
  144OSM   C13F15886   5.652   5.168   7.705  0.0411 -0.8086 -0.2543
  144OSM   H13F15887   5.687   5.268   7.671 -1.6526  0.3887  1.2825
  144OSM   H13G15888   5.736   5.098   7.686  0.1419 -0.3575 -1.5939
  144OSM   C14F15889   5.608   5.165   7.853  0.8188 -0.3648 -1.1245
  144OSM   H14F15890   5.504   5.205   7.852  1.4872  1.4688 -0.8581
  144OSM   H14G15891   5.668   5.237   7.912  0.3145 -2.0902  1.6508
  144OSM   C15F15892   5.619   5.030   7.932  0.4185  1.0181  0.2524
  144OSM   H15F15893   5.727   5.003   7.931  0.4200  0.6762  2.8282
  144OSM   H15G15894   5.565   4.951   7.876  0.6027  0.5330  0.7510
  144OSM   C16F15895   5.580   5.025   8.079  0.2396  0.3904 -0.0841
  144OSM   H16F15896   5.476   5.063   8.088 -0.9279 -2.2660 -1.1439
  144OSM   H16G15897   5.643   5.100   8.131 -0.0356  0.2778  0.4212
  144OSM   C17F15898   5.593   4.881   8.144  1.2123  0.0269 -0.5991
  144OSM   H17F15899   5.565   4.809   8.064  1.3360  1.1455 -1.6760
  144OSM   H17G15900   5.513   4.898   8.219  1.2040  2.2974 -1.0282
  144OSM   C18F15901   5.731   4.842   8.200 -0.8058  0.0919 -0.1530
  144OSM   H18F15902   5.797   4.819   8.114  1.0485  2.2611  0.5988
  144OSM   H18G15903   5.724   4.751   8.264  0.4707  0.6373  0.7951
  144OSM   H18H15904   5.784   4.914   8.265 -1.0004 -0.8019  1.0402
  145SAPE     N15905   3.873   3.926  10.487  0.1417  0.1216  0.2983
  145SAPE   HN115906   3.870   4.029  10.472  0.6206  0.5916  2.9863
  145SAPE   HN215907   3.783   3.879  10.508  0.4658 -0.8883 -0.4763
  145SAPE   HN315908   3.936   3.921  10.570 -1.3007  0.0233  1.4191
  145SAPE   C1215909   3.928   3.856  10.361  0.3763 -0.1794  0.6147
  145SAPE  H12A15910   3.862   3.875  10.274  2.6243  1.9715 -0.7552
  145SAPE  H12B15911   3.920   3.747  10.383 -1.7546 -0.4411 -1.1199
  145SAPE   C1115912   4.067   3.899  10.328 -0.4211 -0.0908 -0.0241
  145SAPE  H11A15913   4.052   3.997  10.277  1.4038 -1.3619 -3.2392
  145SAPE  H11B15914   4.094   3.832  10.244 -1.9766 -0.9159  0.0916
  145SAPE     P15915   4.211   3.776  10.508  0.4906 -0.4259  0.0402
  145SAPE   O1315916   4.362   3.769  10.506  0.6028 -0.3653 -0.7824
  145SAPE   O1415917   4.140   3.765  10.635 -0.6868 -0.7621  0.3424
  145SAPE   O1215918   4.156   3.914  10.433  0.5975  0.9249  0.5251
  145SAPE   O1115919   4.156   3.653  10.417  0.2911  0.4102  0.2294
  145SAPE    C115920   4.087   3.542  10.483 -0.1364  0.0244  0.6330
  145SAPE    HA15921   4.125   3.514  10.583  1.2416 -0.9217 -0.1133
  145SAPE    HB15922   3.979   3.567  10.497 -1.1385 -2.5652 -1.4410
  145SAPE    C215923   4.095   3.410  10.402  0.9139  0.4122 -0.0683
  145SAPE    HS15924   4.200   3.375  10.404  0.8601 -0.7955 -5.0277
  145SAPE   O2115925   4.050   3.429  10.267 -0.1164 -0.9487 -0.2073
  145SAPE   C2115926   4.141   3.390  10.176  0.4358 -0.4235 -0.0531
  145SAPE   O2215927   4.241   3.326  10.192  0.0357  0.2944  0.3755
  145SAPE   C2215928   4.083   3.422  10.039  0.1769 -0.5334  0.5070
  145SAPE   H2R15929   3.992   3.361  10.020 -0.6012  0.9945 -0.8798
  145SAPE   H2S15930   4.049   3.528  10.044 -0.3461 -0.5128 -2.1478
  145SAPE    C315931   4.006   3.302  10.470  0.4212 -0.2623 -0.2947
  145SAPE    HX15932   3.906   3.346  10.487  0.2612 -0.9362  0.5270
  145SAPE    HY15933   4.052   3.285  10.569  2.6438  1.4476 -0.9379
  145SAPE   O3115934   3.993   3.187  10.385 -0.4084 -0.2065 -0.0671
  145SAPE   C3115935   4.093   3.102  10.392 -0.3316 -0.0576  0.4227
  145SAPE   O3215936   4.192   3.107  10.469 -0.0531 -0.1332  0.4279
  145SAPE   C3215937   4.077   2.985  10.290 -0.2504 -0.0909 -0.2395
  145SAPE   H2X15938   3.985   2.995  10.228 -1.2830 -0.2190  1.2229
  145SAPE   H2Y15939   4.068   2.890  10.346 -0.4456 -0.3968 -0.7840
  145SAPE   C2315940   4.185   3.405   9.918 -0.2136 -1.2890  0.2060
  145SAPE   H3R15941   4.210   3.297   9.904 -1.1141 -1.5410  0.4567
  145SAPE   H3S15942   4.286   3.447   9.939 -0.2137 -0.9923 -0.3585
  145SAPE   C2415943   4.129   3.463   9.786  0.3678  0.2075  0.4086
  145SAPE   H4R15944   4.114   3.572   9.800 -0.2695 -0.0295  1.7926
  145SAPE   H4S15945   4.028   3.422   9.767 -0.0139 -0.1725  2.8445
  145SAPE   C2515946   4.196   3.428   9.661 -0.5537 -0.0470  0.0724
  145SAPE   H5R15947   4.265   3.342   9.670  0.7342  0.6740 -2.1533
  145SAPE   C2615948   4.172   3.484   9.533  0.4397  0.0258 -0.4946
  145SAPE   H6R15949   4.220   3.450   9.440  0.7993  0.8285 -0.6131
  145SAPE   C2715950   4.081   3.600   9.501 -0.5713 -0.2594 -0.0294
  145SAPE   H7R15951   4.124   3.655   9.414 -0.7758 -0.0666 -0.0087
  145SAPE   H7S15952   4.070   3.662   9.592 -0.9410 -0.0505 -0.2106
  145SAPE   C2815953   3.944   3.560   9.449 -0.4865  0.5587  0.3729
  145SAPE   H8R15954   3.875   3.545   9.533 -1.1678  1.4427 -0.0218
  145SAPE   C2915955   3.911   3.542   9.324  0.1645  0.7892 -0.4830
  145SAPE   H9R15956   3.806   3.514   9.309  0.1461 -0.2746  1.3209
  145SAPE  C21015957   3.985   3.564   9.196  0.3618 -0.1246 -0.1025
  145SAPE  H10R15958   4.040   3.469   9.179  0.4004 -0.2273  0.5852
  145SAPE  H10S15959   4.060   3.645   9.214 -1.7242  1.8586  0.1703
  145SAPE  C21115960   3.911   3.588   9.071 -0.2899  0.3149 -0.2329
  145SAPE  H11R15961   3.806   3.553   9.068 -0.2786  0.3230 -1.7540
  145SAPE  C21215962   3.969   3.617   8.955  0.8529  0.1671  0.2328
  145SAPE  H12R15963   3.903   3.646   8.872 -0.3126 -1.0703  0.7113
  145SAPE  C21315964   4.120   3.632   8.945 -0.0527  0.6986  0.6183
  145SAPE  H13R15965   4.150   3.585   8.849 -2.5730 -0.1791  0.1905
  145SAPE  H13S15966   4.157   3.550   9.011 -1.5956 -0.0230  0.6225
  145SAPE  C21415967   4.196   3.759   8.978  0.8136  0.5135  0.1439
  145SAPE  H14R15968   4.151   3.818   9.060  0.5310 -0.1802  0.4964
  145SAPE  C21515969   4.300   3.806   8.912 -0.7078  0.3931  0.2265
  145SAPE  H15R15970   4.331   3.909   8.932 -1.3139  0.2309  2.1780
  145SAPE  C21615971   4.374   3.738   8.793  0.9032 -0.5248  0.3166
  145SAPE  H16R15972   4.391   3.630   8.811 -1.2273 -0.6796  1.6617
  145SAPE  H16S15973   4.471   3.792   8.780  0.2114  1.0252  1.2931
  145SAPE  C21715974   4.281   3.763   8.673 -0.6152  0.0457 -0.0343
  145SAPE  H17R15975   4.263   3.871   8.653 -1.8471 -0.1321  0.0110
  145SAPE  H17S15976   4.179   3.720   8.683 -0.7575  0.3734 -0.0687
  145SAPE  C21815977   4.337   3.709   8.542  0.6301 -0.3647 -0.1462
  145SAPE  H18R15978   4.373   3.609   8.575 -0.1714 -0.6767 -0.2184
  145SAPE  H18S15979   4.424   3.774   8.518 -1.0064  2.4450  1.0131
  145SAPE  C21915980   4.235   3.708   8.426  0.3521 -0.2455 -0.4741
  145SAPE  H19R15981   4.202   3.813   8.418  3.0929  0.7554  0.1511
  145SAPE  H19S15982   4.144   3.651   8.457 -0.8163  0.8538 -1.7819
  145SAPE  C22015983   4.289   3.648   8.296 -0.3782 -0.6472 -0.3688
  145SAPE  H20R15984   4.313   3.540   8.309 -0.8054 -0.6945  0.0616
  145SAPE  H20S15985   4.387   3.697   8.279 -0.7956 -0.1400 -1.3398
  145SAPE  H20T15986   4.223   3.658   8.208 -0.5832 -2.8298 -0.5203
  145SAPE   C3315987   4.199   2.977  10.199 -0.0773 -0.3195 -0.6896
  145SAPE   H3X15988   4.292   2.992  10.258 -0.4664 -2.9679  0.7567
  145SAPE   H3Y15989   4.194   3.060  10.126 -2.1678  0.4964  0.2916
  145SAPE   C3415990   4.212   2.842  10.132  0.5204  0.3657 -0.3102
  145SAPE   H4X15991   4.186   2.756  10.199  0.5756  0.3934 -0.2530
  145SAPE   H4Y15992   4.318   2.831  10.099  0.6504 -0.4798  0.3442
  145SAPE   C3515993   4.122   2.836  10.006 -0.3202  0.3194 -0.7233
  145SAPE   H5X15994   4.023   2.879  10.029 -0.3834  0.3379 -1.0364
  145SAPE   H5Y15995   4.105   2.727   9.989 -1.5573  0.1087  1.4125
  145SAPE   C3615996   4.189   2.910   9.893  0.0676  0.1343  0.2663
  145SAPE   H6X15997   4.300   2.901   9.888  0.0680  0.4617 -0.4557
  145SAPE   H6Y15998   4.168   3.019   9.897  0.8003  0.3278 -0.7196
  145SAPE   C3715999   4.125   2.880   9.757  0.5965  0.6078  0.0259
  145SAPE   H7X16000   4.019   2.854   9.780  1.4615 -2.0533  1.4372
  145SAPE   H7Y16001   4.165   2.784   9.718 -1.0360  0.7834 -2.2519
  145SAPE   C3816002   4.140   2.986   9.650 -0.8807  0.0194  0.1963
  145SAPE   H8X16003   4.240   2.962   9.607  0.9958  0.7106  3.7191
  145SAPE   H8Y16004   4.141   3.088   9.695  0.7366  0.1101  0.0221
  145SAPE   C3916005   4.046   3.000   9.537  0.0767 -0.1383  0.0779
  145SAPE   H9X16006   3.942   3.020   9.573  0.4287  1.4619  0.2620
  145SAPE   H9Y16007   4.041   2.916   9.465 -0.8391  1.7877 -2.2442
  145SAPE  C31016008   4.081   3.120   9.448 -0.7040 -0.0453 -0.6941
  145SAPE  H10X16009   4.183   3.106   9.409  1.0184  0.1854  3.2285
  145SAPE  H10Y16010   4.082   3.206   9.519 -0.7877 -0.0601 -0.6740
  145SAPE  C31116011   3.974   3.160   9.345  0.6325  0.0152 -0.3008
  145SAPE  H11X16012   4.018   3.254   9.307  1.0617  0.3606  1.0144
  145SAPE  H11Y16013   3.873   3.179   9.387  0.7393 -1.9043  0.9385
  145SAPE  C31216014   3.962   3.068   9.230  0.1247  0.1935  0.2552
  145SAPE  H12X16015   3.934   2.963   9.253  1.3805 -0.4078 -0.8303
  145SAPE  H12Y16016   4.066   3.055   9.194  0.0883 -0.7629  0.4802
  145SAPE  C31316017   3.878   3.119   9.115 -0.1792  0.1231  0.2554
  145SAPE  H13X16018   3.917   3.215   9.077  0.9699 -0.6023 -0.4446
  145SAPE  H13Y16019   3.771   3.127   9.145 -0.6300 -0.9527 -0.9400
  145SAPE  C31416020   3.875   3.015   8.994  0.0053  0.1727 -0.2163
  145SAPE  H14X16021   3.864   2.910   9.028 -0.7379 -0.4391 -2.2322
  145SAPE  H14Y16022   3.977   3.025   8.951  0.7664  1.2435  1.7263
  145SAPE  C31516023   3.761   3.060   8.898 -0.2130  0.3002  0.1557
  145SAPE  H15X16024   3.772   3.170   8.887 -1.0340  0.3484 -0.2401
  145SAPE  H15Y16025   3.660   3.033   8.936 -0.7816 -0.1250 -1.5506
  145SAPE  C31616026   3.745   2.987   8.764  0.4048  0.5531  0.2084
  145SAPE  H16X16027   3.648   3.018   8.721  2.7531  1.1793 -5.4781
  145SAPE  H16Y16028   3.735   2.878   8.783 -0.9634  0.7677  0.7928
  145SAPE  C31716029   3.846   3.022   8.656  0.3590 -0.1535 -0.3416
  145SAPE  H17X16030   3.947   2.988   8.688 -1.3989 -1.8291  4.1684
  145SAPE  H17Y16031   3.856   3.132   8.642  2.4759 -0.5666 -3.0663
  145SAPE  C31816032   3.818   2.963   8.517 -0.5890 -0.0212  0.3972
  145SAPE  H18X16033   3.905   2.989   8.453 -1.3801  0.4152 -0.5353
  145SAPE  H18Y16034   3.725   3.008   8.476 -0.3328 -0.3107 -0.5275
  145SAPE  H18Z16035   3.818   2.851   8.517  0.9260 -0.0472 -0.1270
  146SAPE     N16036   2.741   5.013  10.860 -0.1602 -0.1399  0.4544
  146SAPE   HN116037   2.735   5.115  10.882  0.7242 -0.2289  1.1266
  146SAPE   HN216038   2.654   4.958  10.877 -0.1292 -2.5090 -4.9240
  146SAPE   HN316039   2.820   4.978  10.917  1.7048  2.3621 -0.4054
  146SAPE   C1216040   2.777   4.985  10.718 -0.2074  0.0604 -1.3506
  146SAPE  H12A16041   2.862   5.054  10.699 -0.6924  1.3318  0.8118
  146SAPE  H12B16042   2.690   5.005  10.651  0.0367 -2.3267 -2.5020
  146SAPE   C1116043   2.816   4.839  10.684  0.8103  0.4595  0.1999
  146SAPE  H11A16044   2.836   4.827  10.575  0.1945 -0.1302  0.1455
  146SAPE  H11B16045   2.733   4.772  10.713 -0.4010  0.8812 -2.0472
  146SAPE     P16046   3.021   4.684  10.726 -0.3321  0.4374  0.2520
  146SAPE   O1316047   3.121   4.654  10.834 -0.0319  0.4192 -0.5425
  146SAPE   O1416048   2.940   4.572  10.671 -0.2645  0.0591 -0.0761
  146SAPE   O1216049   2.927   4.803  10.768 -0.2896 -0.5673 -0.5179
  146SAPE   O1116050   3.094   4.757  10.612 -0.2111 -0.5947  0.7470
  146SAPE    C116051   3.178   4.870  10.624 -0.6705 -0.2984 -0.3100
  146SAPE    HA16052   3.159   4.925  10.719  0.6091 -3.0213  1.6693
  146SAPE    HB16053   3.285   4.840  10.621  0.3857  2.9717  0.1398
  146SAPE    C216054   3.168   4.964  10.500  0.1818  0.2197 -0.2344
  146SAPE    HS16055   3.070   5.015  10.500 -0.6611 -1.3359  1.1463
  146SAPE   O2116056   3.191   4.881  10.386  0.1103 -0.5157 -0.1137
  146SAPE   C2116057   3.085   4.839  10.319  0.0378  0.6035 -0.5252
  146SAPE   O2216058   2.968   4.864  10.348 -0.5169  0.0266 -0.2302
  146SAPE   C2216059   3.137   4.753  10.205  0.0701 -0.3616  0.0424
  146SAPE   H2R16060   3.199   4.668  10.243  0.2179 -0.9740 -1.5012
  146SAPE   H2S16061   3.048   4.700  10.164  1.3231 -0.4698 -2.7598
  146SAPE    C316062   3.273   5.073  10.522 -0.0675 -0.2627  0.7140
  146SAPE    HX16063   3.369   5.016  10.527 -0.4870 -0.8833  3.9599
  146SAPE    HY16064   3.257   5.125  10.619 -2.0461  1.8210 -0.6279
  146SAPE   O3116065   3.268   5.165  10.413  0.2293 -0.3189  0.5041
  146SAPE   C3116066   3.370   5.172  10.333 -0.4620 -0.2897  0.3635
  146SAPE   O3216067   3.474   5.112  10.348 -0.0970 -0.7161  0.1944
  146SAPE   C3216068   3.335   5.277  10.237 -0.1641  0.0531  0.5496
  146SAPE   H2X16069   3.337   5.376  10.288 -0.0044 -1.0244  2.7833
  146SAPE   H2Y16070   3.228   5.263  10.213 -0.6307  0.5885  2.1317
  146SAPE   C2316071   3.209   4.833  10.090  0.3764 -0.5837  0.6251
  146SAPE   H3R16072   3.248   4.750  10.028  1.7579 -1.2287  2.2907
  146SAPE   H3S16073   3.298   4.882  10.136 -0.1728  2.0781 -0.9581
  146SAPE   C2416074   3.128   4.935  10.011  1.3039  0.2325 -0.0057
  146SAPE   H4R16075   3.185   4.987   9.931 -0.1475  0.1608 -1.1309
  146SAPE   H4S16076   3.089   5.016  10.077 -2.2803 -0.7264 -0.6981
  146SAPE   C2516077   3.011   4.867   9.946 -0.4319  0.3505 -0.5811
  146SAPE   H5R16078   2.921   4.846  10.006 -0.0664 -0.0436 -0.1572
  146SAPE   C2616079   3.011   4.822   9.819  0.1772  0.2931  0.7250
  146SAPE   H6R16080   2.921   4.767   9.786  0.2324  1.6963 -2.0736
  146SAPE   C2716081   3.128   4.829   9.722 -0.0901  0.1290  0.4620
  146SAPE   H7R16082   3.217   4.808   9.784 -0.4847  0.9387  1.3211
  146SAPE   H7S16083   3.130   4.934   9.686 -1.8445 -0.8885 -3.1178
  146SAPE   C2816084   3.113   4.740   9.602 -0.1365  0.0888 -0.0512
  146SAPE   H8R16085   3.066   4.644   9.630  1.3945 -0.3984  0.9781
  146SAPE   C2916086   3.161   4.749   9.475 -0.4090  0.4488  0.3951
  146SAPE   H9R16087   3.137   4.664   9.409 -0.0876  0.1653  0.6399
  146SAPE  C21016088   3.228   4.866   9.405  0.2677 -0.1874  0.4006
  146SAPE  H10R16089   3.204   4.957   9.464 -0.1447 -0.0549  0.0359
  146SAPE  H10S16090   3.185   4.881   9.304 -1.0549 -0.6981  0.8647
  146SAPE  C21116091   3.373   4.836   9.385 -0.4687  0.3494  0.4913
  146SAPE  H11R16092   3.425   4.830   9.482  0.1794  3.6391  0.4561
  146SAPE  C21216093   3.441   4.811   9.265 -0.1898  0.5975  0.5391
  146SAPE  H12R16094   3.549   4.789   9.265 -0.2608  0.2544 -0.1568
  146SAPE  C21316095   3.383   4.820   9.127 -0.4101  0.0179  0.3282
  146SAPE  H13R16096   3.366   4.929   9.113  0.2012  0.2587  1.3257
  146SAPE  H13S16097   3.282   4.774   9.127 -1.8464  2.9231 -0.2809
  146SAPE  C21416098   3.466   4.753   9.018 -0.5463  0.0051 -0.3079
  146SAPE  H14R16099   3.474   4.645   9.038 -1.2533  0.2499  1.4625
  146SAPE  C21516100   3.536   4.815   8.923 -0.2993  0.1175 -0.0494
  146SAPE  H15R16101   3.588   4.753   8.848 -0.2325  1.4570 -1.1458
  146SAPE  C21616102   3.544   4.967   8.895  0.4664 -0.6090 -0.6403
  146SAPE  H16R16103   3.652   4.994   8.890  0.0713  1.0555 -0.4386
  146SAPE  H16S16104   3.493   5.021   8.978  1.4947  3.5322 -2.4569
  146SAPE  C21716105   3.482   5.016   8.765  0.0198 -0.3744  0.1480
  146SAPE  H17R16106   3.470   5.124   8.789 -1.1511 -0.3589 -0.4288
  146SAPE  H17S16107   3.387   4.963   8.743 -0.5299 -0.3743  2.3281
  146SAPE  C21816108   3.586   5.007   8.649  0.1500  0.4343 -0.1943
  146SAPE  H18R16109   3.576   4.898   8.628 -0.4851  0.5993 -0.7960
  146SAPE  H18S16110   3.688   5.036   8.681 -0.2372  2.7088 -0.8898
  146SAPE  C21916111   3.546   5.089   8.523 -0.0576 -0.1400  0.1074
  146SAPE  H19R16112   3.563   5.199   8.532 -0.1182 -0.0617 -0.6393
  146SAPE  H19S16113   3.438   5.076   8.500 -0.4818  1.2372  1.1634
  146SAPE  C22016114   3.618   5.049   8.394 -0.1780 -0.0345  0.0341
  146SAPE  H20R16115   3.726   5.076   8.396 -0.7324  2.4912  2.9620
  146SAPE  H20S16116   3.582   5.107   8.307  1.2762  2.9942  1.3268
  146SAPE  H20T16117   3.596   4.944   8.366  0.3833  0.1130 -1.0037
  146SAPE   C3316118   3.416   5.288  10.103  0.3250  0.6847 -0.7542
  146SAPE   H3X16119   3.525   5.274  10.119  0.3237  1.0310 -0.4309
  146SAPE   H3Y16120   3.398   5.389  10.060 -0.6165  1.0914  0.5246
  146SAPE   C3416121   3.371   5.178  10.005  0.2307  0.1234 -0.4999
  146SAPE   H4X16122   3.263   5.190   9.982  0.1356  0.0233 -0.1140
  146SAPE   H4Y16123   3.392   5.076  10.044 -2.1692  0.5740  2.3491
  146SAPE   C3516124   3.422   5.203   9.866 -0.3555 -0.1260  0.2516
  146SAPE   H5X16125   3.533   5.209   9.869 -0.2924 -1.4787  2.5031
  146SAPE   H5Y16126   3.381   5.303   9.841 -0.9865  0.0955  2.0733
  146SAPE   C3616127   3.370   5.108   9.758 -0.2372 -0.0342 -0.1500
  146SAPE   H6X16128   3.259   5.112   9.756 -0.2943  1.0937  2.2943
  146SAPE   H6Y16129   3.398   5.007   9.794 -0.8698  0.8543  3.1586
  146SAPE   C3716130   3.423   5.146   9.622  0.2824  0.3209  0.1653
  146SAPE   H7X16131   3.402   5.254   9.605 -1.6953  0.2136  1.6172
  146SAPE   H7Y16132   3.364   5.099   9.540  1.4837  0.5187 -0.8541
  146SAPE   C3816133   3.571   5.121   9.594  0.3943  0.0669 -0.4183
  146SAPE   H8X16134   3.583   5.016   9.559 -3.3758 -0.8399  0.5769
  146SAPE   H8Y16135   3.640   5.152   9.675  0.7448 -0.6574 -0.4339
  146SAPE   C3916136   3.607   5.202   9.470 -0.0072  0.2295  0.7089
  146SAPE   H9X16137   3.562   5.303   9.486  0.1290  0.4703 -0.3344
  146SAPE   H9Y16138   3.542   5.158   9.391 -0.9114 -1.1760  2.1705
  146SAPE  C31016139   3.759   5.204   9.430  0.9603 -0.1991 -0.1417
  146SAPE  H10X16140   3.789   5.099   9.414 -1.7959 -1.0482 -0.3140
  146SAPE  H10Y16141   3.827   5.254   9.502 -0.0296  0.3216  0.4665
  146SAPE  C31116142   3.771   5.266   9.288 -0.1387 -0.6673  0.8669
  146SAPE  H11X16143   3.758   5.376   9.300 -4.0278 -1.1269  2.4909
  146SAPE  H11Y16144   3.685   5.242   9.223 -0.6829  2.1968  0.3728
  146SAPE  C31216145   3.902   5.243   9.211  0.1523  0.0456 -0.3082
  146SAPE  H12X16146   3.908   5.135   9.186  1.5268 -0.0525  0.3305
  146SAPE  H12Y16147   3.986   5.272   9.279 -1.2964 -1.8578  2.4617
  146SAPE  C31316148   3.918   5.325   9.084 -0.2630  0.0787 -0.5504
  146SAPE  H13X16149   3.998   5.401   9.094 -0.2793 -0.0453  0.6958
  146SAPE  H13Y16150   3.820   5.375   9.068 -1.6106 -0.9104  3.5359
  146SAPE  C31416151   3.948   5.235   8.967  0.3962 -0.0518  0.6303
  146SAPE  H14X16152   3.853   5.181   8.952  0.2272  0.5128 -0.3977
  146SAPE  H14Y16153   4.035   5.167   8.977 -0.0539 -0.5254  1.3837
  146SAPE  C31516154   3.960   5.318   8.836  0.6514 -0.7687 -0.0102
  146SAPE  H15X16155   4.049   5.384   8.844 -1.0005  1.6071 -0.2329
  146SAPE  H15Y16156   3.879   5.394   8.829  0.1413 -1.3823 -0.9109
  146SAPE  C31616157   3.963   5.225   8.715  0.1515 -0.0938 -0.0121
  146SAPE  H16X16158   3.858   5.206   8.686 -0.1073  2.2203 -0.8022
  146SAPE  H16Y16159   4.015   5.129   8.737  0.5351 -0.6580 -3.0602
  146SAPE  C31716160   4.032   5.286   8.591 -0.5321 -0.6256 -0.1347
  146SAPE  H17X16161   4.133   5.325   8.619 -1.3416  0.5530  1.2578
  146SAPE  H17Y16162   3.970   5.362   8.540  2.2858  0.6869 -1.8365
  146SAPE  C31816163   4.030   5.178   8.487 -0.9260  0.4456 -0.5436
  146SAPE  H18X16164   3.927   5.156   8.452 -0.6762 -0.5447 -0.6758
  146SAPE  H18Y16165   4.075   5.084   8.525 -0.1267  0.6528 -0.9564
  146SAPE  H18Z16166   4.086   5.205   8.395 -1.7733  2.6952 -0.4673
  147SAPE     N16167   2.470   0.060  10.631 -0.2509  0.3281 -0.3633
  147SAPE   HN116168   2.481  -0.041  10.653  1.3973  0.6797  0.5953
  147SAPE   HN216169   2.472   0.114  10.719 -1.1793 -1.6177  0.9406
  147SAPE   HN316170   2.380   0.072  10.580  0.9204  0.4673 -2.5327
  147SAPE   C1216171   2.565   0.093  10.523 -0.1998 -0.1774 -0.0423
  147SAPE  H12A16172   2.543   0.200  10.502 -3.2307 -0.4915  1.0538
  147SAPE  H12B16173   2.533   0.027  10.440  0.5748 -0.2987 -0.2513
  147SAPE   C1116174   2.711   0.061  10.562  0.3598  0.8164  0.4844
  147SAPE  H11A16175   2.779   0.064  10.475 -1.5301  2.0475 -1.0292
  147SAPE  H11B16176   2.705  -0.046  10.593 -0.1514  1.2621  2.0232
  147SAPE     P16177   2.890   0.225  10.674  0.2599 -0.2673  0.0295
  147SAPE   O1316178   2.841   0.362  10.641  0.0281  0.2369 -0.1225
  147SAPE   O1416179   2.947   0.202  10.806 -0.0488  1.1414  0.3430
  147SAPE   O1216180   2.762   0.126  10.676 -0.4872  0.3910 -0.0286
  147SAPE   O1116181   2.979   0.171  10.564 -0.0188 -0.1361  0.1958
  147SAPE    C116182   3.116   0.208  10.557 -0.3122  0.5176 -0.0010
  147SAPE    HA16183   3.141   0.291  10.627  1.7907 -0.1911  0.1472
  147SAPE    HB16184   3.180   0.125  10.595  0.7200  0.7698 -1.1326
  147SAPE    C216185   3.148   0.255  10.412  0.0327  1.4869  0.4360
  147SAPE    HS16186   3.064   0.313  10.368 -0.5383 -1.7918 -3.3740
  147SAPE   O2116187   3.179   0.144  10.327 -0.4765  0.3865  0.4013
  147SAPE   C2116188   3.072   0.069  10.291 -0.1655  0.1293  0.0786
  147SAPE   O2216189   2.955   0.086  10.316  0.2932  0.0610  0.2313
  147SAPE   C2216190   3.120  -0.054  10.213 -0.0036 -0.6718  0.8440
  147SAPE   H2R16191   3.227  -0.071  10.238 -0.0441 -2.4818 -0.0542
  147SAPE   H2S16192   3.063  -0.143  10.248 -0.6604 -1.1394 -1.2905
  147SAPE    C316193   3.283   0.334  10.425  0.3534 -0.3279 -0.3232
  147SAPE    HX16194   3.345   0.290  10.506  0.4704 -0.8202 -0.6748
  147SAPE    HY16195   3.248   0.428  10.472 -1.1478 -0.6619 -0.7169
  147SAPE   O3116196   3.359   0.365  10.299 -0.0225 -0.0100 -0.3405
  147SAPE   C3116197   3.467   0.286  10.288  0.0290 -0.2192 -0.0860
  147SAPE   O3216198   3.490   0.192  10.362  0.1970  0.4237 -0.4529
  147SAPE   C3216199   3.552   0.326  10.177 -1.1384  0.1958 -0.3716
  147SAPE   H2X16200   3.624   0.242  10.162 -0.9157  0.2522  0.3240
  147SAPE   H2Y16201   3.613   0.414  10.206 -1.3967  0.0388  0.6693
  147SAPE   C2316202   3.098  -0.041  10.061  1.0337  0.3581 -0.5289
  147SAPE   H3R16203   2.991  -0.023  10.034  0.9544 -0.5109 -0.8243
  147SAPE   H3S16204   3.130  -0.130  10.004 -0.3671  0.3250 -1.3258
  147SAPE   C2416205   3.187   0.072  10.001  0.0225 -0.0820  0.7970
  147SAPE   H4R16206   3.288   0.048  10.041  1.0179  0.1579 -1.4631
  147SAPE   H4S16207   3.150   0.169  10.041 -0.6564  0.4155 -0.9732
  147SAPE   C2516208   3.183   0.081   9.852 -0.2418  0.4140  0.3317
  147SAPE   H5R16209   3.103   0.142   9.807  0.1883 -0.2328 -1.3917
  147SAPE   C2616210   3.259   0.016   9.763 -0.0680 -0.4276 -0.2265
  147SAPE   H6R16211   3.235   0.044   9.659 -1.3207  1.7592  0.5976
  147SAPE   C2716212   3.364  -0.085   9.796  0.4618  0.7456  0.3321
  147SAPE   H7R16213   3.379  -0.144   9.703 -0.3344  3.9723 -2.0183
  147SAPE   H7S16214   3.324  -0.150   9.877 -1.3033 -0.0500 -1.0996
  147SAPE   C2816215   3.500  -0.031   9.837  0.0450  0.0195 -0.1975
  147SAPE   H8R16216   3.495   0.025   9.931  0.3302  0.5594 -0.4980
  147SAPE   C2916217   3.612  -0.021   9.762 -0.0717 -0.0971 -0.1430
  147SAPE   H9R16218   3.699   0.024   9.812  0.7356  0.0727 -1.6628
  147SAPE  C21016219   3.631  -0.080   9.627  0.7988  0.5283  0.8811
  147SAPE  H10R16220   3.538  -0.125   9.588  0.0108  1.9622  1.0172
  147SAPE  H10S16221   3.700  -0.167   9.628 -1.0848 -1.0429  0.5320
  147SAPE  C21116222   3.671   0.023   9.524  0.4049 -1.1179  0.1136
  147SAPE  H11R16223   3.770   0.065   9.549 -0.4980 -0.2331  2.4440
  147SAPE  C21216224   3.613   0.072   9.413  0.4146  0.5689  0.2879
  147SAPE  H12R16225   3.652   0.158   9.356  0.2836  1.1758  1.1119
  147SAPE  C21316226   3.481   0.021   9.360 -0.0866 -0.3491  0.2903
  147SAPE  H13R16227   3.426   0.108   9.319  0.7228  0.6820  1.3170
  147SAPE  H13S16228   3.421   0.001   9.451  1.8208  0.0257  1.6932
  147SAPE  C21416229   3.479  -0.088   9.249 -0.0476 -0.0205 -0.4214
  147SAPE  H14R16230   3.529  -0.181   9.282 -1.1345 -0.4459  0.0793
  147SAPE  C21516231   3.416  -0.086   9.132 -0.1726  0.1389  0.3654
  147SAPE  H15R16232   3.424  -0.176   9.069 -0.8416 -0.4384  1.0926
  147SAPE  C21616233   3.333   0.027   9.081 -0.1123 -0.3960  0.4487
  147SAPE  H16R16234   3.242   0.055   9.139 -0.4167  0.8774 -0.5843
  147SAPE  H16S16235   3.292   0.001   8.981  0.3838 -2.0099  0.6471
  147SAPE  C21716236   3.414   0.155   9.043 -0.0768 -0.0993 -0.0854
  147SAPE  H17R16237   3.485   0.180   9.124  1.4600 -0.5985 -1.2342
  147SAPE  H17S16238   3.351   0.244   9.022  1.5669  1.3764  0.9480
  147SAPE  C21816239   3.515   0.129   8.932  0.3214  0.0461 -0.2472
  147SAPE  H18R16240   3.454   0.114   8.840 -1.1408  0.3264  0.6401
  147SAPE  H18S16241   3.567   0.032   8.947 -0.2442 -0.4394 -1.3053
  147SAPE  C21916242   3.615   0.235   8.901  0.0094  0.4105  0.1390
  147SAPE  H19R16243   3.684   0.244   8.988  0.7027  2.9158 -0.5999
  147SAPE  H19S16244   3.570   0.336   8.896 -0.4947  0.2725  1.3713
  147SAPE  C22016245   3.705   0.214   8.776 -0.4255 -0.7117  0.4300
  147SAPE  H20R16246   3.771   0.300   8.752 -2.2889  0.5529 -0.4431
  147SAPE  H20S16247   3.636   0.206   8.688  1.6623 -1.0894 -1.2605
  147SAPE  H20T16248   3.766   0.123   8.790  0.8543  0.0025 -0.2345
  147SAPE   C3316249   3.470   0.351  10.048  0.4747 -0.5416 -0.6239
  147SAPE   H3X16250   3.421   0.450  10.062  0.7545 -0.4803 -0.0396
  147SAPE   H3Y16251   3.395   0.269  10.041 -0.2553 -0.0330  0.7262
  147SAPE   C3416252   3.567   0.362   9.926  0.4946  0.5882 -0.0687
  147SAPE   H4X16253   3.628   0.269   9.921  1.8482  1.3580  1.3711
  147SAPE   H4Y16254   3.635   0.449   9.935  0.8350  0.1090  3.3647
  147SAPE   C3516255   3.489   0.365   9.793 -0.3883  0.7468 -0.5287
  147SAPE   H5X16256   3.421   0.452   9.791 -1.9600 -0.4072 -3.2054
  147SAPE   H5Y16257   3.419   0.281   9.775 -2.6310  1.8389  2.3168
  147SAPE   C3616258   3.578   0.375   9.660 -0.5017  0.0865  0.2719
  147SAPE   H6X16259   3.627   0.280   9.631 -2.7083 -0.5025 -1.8727
  147SAPE   H6Y16260   3.658   0.447   9.685 -0.0224 -0.2576 -0.2580
  147SAPE   C3716261   3.491   0.433   9.543  0.0849  0.7053 -0.4972
  147SAPE   H7X16262   3.438   0.521   9.587  2.5691  2.2460 -0.3503
  147SAPE   H7Y16263   3.406   0.370   9.513 -0.6905  1.4536  0.0720
  147SAPE   C3816264   3.568   0.465   9.413 -0.1952 -0.1931 -0.2762
  147SAPE   H8X16265   3.630   0.378   9.383 -2.4381 -1.5225 -1.3711
  147SAPE   H8Y16266   3.630   0.553   9.439  1.1615 -0.3938 -2.5298
  147SAPE   C3916267   3.488   0.500   9.292  0.4385  0.3058 -0.9084
  147SAPE   H9X16268   3.415   0.581   9.312  0.6920  0.4183 -0.4158
  147SAPE   H9Y16269   3.433   0.411   9.254 -0.2653 -0.7176  2.2154
  147SAPE  C31016270   3.579   0.533   9.169  0.3783 -0.6535 -0.6526
  147SAPE  H10X16271   3.525   0.505   9.076  0.7110  0.1856 -1.1077
  147SAPE  H10Y16272   3.665   0.463   9.174 -0.5704 -1.7658  0.7436
  147SAPE  C31116273   3.611   0.680   9.162  0.0229 -0.5166  0.3297
  147SAPE  H11X16274   3.691   0.706   9.234  0.5106  0.5257 -0.5633
  147SAPE  H11Y16275   3.522   0.732   9.203 -1.4037 -2.2987 -0.3386
  147SAPE  C31216276   3.654   0.735   9.022  0.5733  0.5887  0.4179
  147SAPE  H12X16277   3.579   0.719   8.942  1.3276  1.4075 -0.4799
  147SAPE  H12Y16278   3.751   0.683   9.001  0.9522  0.6969  1.7864
  147SAPE  C31316279   3.675   0.885   9.031 -0.1564 -0.1147  0.1437
  147SAPE  H13X16280   3.746   0.899   9.115 -1.3104  2.5928  0.7934
  147SAPE  H13Y16281   3.586   0.945   9.060 -0.1053  0.3935 -0.7148
  147SAPE  C31416282   3.741   0.933   8.899  0.3472  0.6499  0.1224
  147SAPE  H14X16283   3.824   0.868   8.866  0.9559  0.5400  1.7803
  147SAPE  H14Y16284   3.786   1.033   8.916  3.2920 -0.6672  0.7396
  147SAPE  C31516285   3.648   0.948   8.780 -0.1971 -0.6295  0.2895
  147SAPE  H15X16286   3.551   0.994   8.809  0.1930  0.8776 -0.7031
  147SAPE  H15Y16287   3.625   0.844   8.746 -0.3176 -1.1091  1.7505
  147SAPE  C31616288   3.705   1.016   8.656 -0.4728  0.2879 -0.5920
  147SAPE  H16X16289   3.754   1.106   8.697  0.4174 -1.3234  2.1210
  147SAPE  H16Y16290   3.618   1.048   8.595 -1.7177  0.6525  1.2885
  147SAPE  C31716291   3.810   0.939   8.576  0.2071 -0.0924 -0.4656
  147SAPE  H17X16292   3.780   0.832   8.568  1.8684 -0.4865 -1.9487
  147SAPE  H17Y16293   3.905   0.926   8.633  0.1800 -1.5119 -0.6982
  147SAPE  C31816294   3.846   1.007   8.439  0.3601  0.1311  0.2964
  147SAPE  H18X16295   3.866   1.112   8.468 -0.9587  0.4186  0.2505
  147SAPE  H18Y16296   3.763   1.004   8.365  0.7465 -1.8688 -0.1022
  147SAPE  H18Z16297   3.943   0.967   8.404  0.7220  1.2660 -0.0513
  148SAPE     N16298   4.828   2.973  10.605 -0.4660  0.0090  0.1881
  148SAPE   HN116299   4.727   2.952  10.589 -0.7253  0.2946  1.3176
  148SAPE   HN216300   4.853   2.914  10.687  0.9918 -1.5398 -1.2906
  148SAPE   HN316301   4.841   3.074  10.629 -1.1850  0.1500  0.0052
  148SAPE   C1216302   4.907   2.944  10.487  1.0525 -0.0771 -0.4634
  148SAPE  H12A16303   4.873   3.022  10.417 -2.1149 -1.9976 -1.2827
  148SAPE  H12B16304   4.887   2.844  10.443  1.0698 -0.6045  0.6765
  148SAPE   C1116305   5.058   2.960  10.521  1.3983  0.8769  0.5540
  148SAPE  H11A16306   5.103   2.916  10.430 -0.0171  0.6825 -0.0824
  148SAPE  H11B16307   5.104   2.902  10.603 -0.1291  0.7706  1.3768
  148SAPE     P16308   5.216   3.157  10.490 -0.4522  0.3038  0.3295
  148SAPE   O1316309   5.241   3.287  10.552  0.4472 -0.2408 -0.2203
  148SAPE   O1416310   5.320   3.057  10.505  0.1257  0.3261 -0.2117
  148SAPE   O1216311   5.083   3.097  10.542  0.0796 -0.2838 -0.3620
  148SAPE   O1116312   5.178   3.179  10.338  0.6987 -0.0603 -1.0455
  148SAPE    C116313   5.063   3.249  10.290  0.7470 -0.5768  0.6708
  148SAPE    HA16314   4.980   3.176  10.273  0.3616  0.5115 -3.1068
  148SAPE    HB16315   5.023   3.317  10.368 -1.2739 -0.5664 -0.3097
  148SAPE    C216316   5.084   3.312  10.153 -0.1187 -0.2182 -0.5207
  148SAPE    HS16317   4.991   3.355  10.111  0.6240  2.2609  0.1838
  148SAPE   O2116318   5.148   3.219  10.060  0.4797  0.0048  0.2959
  148SAPE   C2116319   5.070   3.129  10.010  0.2898  0.7840  0.5814
  148SAPE   O2216320   4.946   3.127  10.025 -0.3708  0.0812  0.2543
  148SAPE   C2216321   5.155   3.023   9.938 -0.2249  0.8395  0.3334
  148SAPE   H2R16322   5.242   3.069   9.888  0.2743  1.3167  1.6103
  148SAPE   H2S16323   5.194   2.950  10.012  0.8828 -0.7653 -1.7074
  148SAPE    C316324   5.173   3.429  10.172  0.2097  0.0464  0.1798
  148SAPE    HX16325   5.256   3.404  10.242  2.2267 -0.4334 -2.2202
  148SAPE    HY16326   5.118   3.516  10.213 -0.4236 -0.4436  0.3858
  148SAPE   O3116327   5.231   3.463  10.048 -0.0952 -0.2577  0.0599
  148SAPE   C3116328   5.356   3.420  10.027 -0.3226 -0.3490  0.2730
  148SAPE   O3216329   5.423   3.366  10.107 -0.3241  0.6213  0.0394
  148SAPE   C3216330   5.400   3.470   9.890 -0.7102 -0.6888 -0.1571
  148SAPE   H2X16331   5.510   3.462   9.878 -0.7816  0.0243 -1.3972
  148SAPE   H2Y16332   5.383   3.580   9.897 -1.0286 -0.7072 -0.6344
  148SAPE   C2316333   5.070   2.948   9.841 -0.1342  0.6617 -0.0140
  148SAPE   H3R16334   4.973   2.914   9.883  0.6866 -1.7687  0.0436
  148SAPE   H3S16335   5.122   2.855   9.810 -0.4257 -0.2534  2.0906
  148SAPE   C2416336   5.041   3.036   9.719 -0.4118 -0.0910  0.3973
  148SAPE   H4R16337   5.008   3.134   9.758 -0.5107  0.5915 -1.3370
  148SAPE   H4S16338   4.952   2.991   9.672 -1.3078  0.6806  1.3125
  148SAPE   C2516339   5.158   3.045   9.626 -0.0556 -0.5262  0.2123
  148SAPE   H5R16340   5.259   3.021   9.662 -0.6925 -0.0130  2.4665
  148SAPE   C2616341   5.149   3.084   9.495 -0.3145 -0.3126 -0.4895
  148SAPE   H6R16342   5.243   3.091   9.438  0.6570 -3.0702  0.6133
  148SAPE   C2716343   5.022   3.113   9.420  0.1711  0.1966 -0.3089
  148SAPE   H7R16344   5.063   3.180   9.341  3.2795  1.6787  2.3288
  148SAPE   H7S16345   4.952   3.176   9.478 -0.2050  0.0943 -0.6460
  148SAPE   C2816346   4.948   2.989   9.375 -0.8171  0.1551  0.4821
  148SAPE   H8R16347   4.874   2.955   9.449 -0.2789 -0.0887  0.9211
  148SAPE   C2916348   4.961   2.926   9.254 -0.1658  0.3399  0.1971
  148SAPE   H9R16349   4.919   2.826   9.240  2.3381 -0.9664  1.3985
  148SAPE  C21016350   5.058   2.960   9.146  1.1469 -0.5405  0.8027
  148SAPE  H10R16351   5.120   2.869   9.128  3.4696  0.9550  0.8206
  148SAPE  H10S16352   5.133   3.039   9.168 -0.1509  1.8192 -2.4453
  148SAPE  C21116353   4.978   3.004   9.021  0.0135 -0.2271 -0.8726
  148SAPE  H11R16354   4.934   3.104   9.033 -1.9538 -1.1674  0.3700
  148SAPE  C21216355   4.968   2.940   8.904 -0.1674  0.9603  0.3544
  148SAPE  H12R16356   4.917   2.985   8.818 -0.2900  1.5186  0.7151
  148SAPE  C21316357   5.029   2.801   8.877  0.4690  0.1034  0.2903
  148SAPE  H13R16358   5.127   2.796   8.929  1.3504  1.9158 -1.0660
  148SAPE  H13S16359   5.050   2.790   8.769  2.4738  0.5528  0.5881
  148SAPE  C21416360   4.942   2.680   8.910 -0.6373 -0.3271  0.7466
  148SAPE  H14R16361   4.850   2.675   8.850 -1.5964 -0.3397  2.1599
  148SAPE  C21516362   4.961   2.586   9.000  0.4203  0.5031  0.6940
  148SAPE  H15R16363   4.885   2.506   9.003 -0.5152  1.2472 -1.4993
  148SAPE  C21616364   5.079   2.572   9.095 -0.3742 -0.0152 -0.4160
  148SAPE  H16R16365   5.046   2.606   9.196 -1.2225 -1.3413 -0.2194
  148SAPE  H16S16366   5.162   2.639   9.063 -0.0587  1.2416  2.6711
  148SAPE  C21716367   5.141   2.432   9.096 -0.5898 -1.1138 -0.4836
  148SAPE  H17R16368   5.136   2.382   8.996 -1.8906 -1.9942 -0.0129
  148SAPE  H17S16369   5.090   2.369   9.172  1.4896 -1.4305  0.6936
  148SAPE  C21816370   5.288   2.443   9.135  0.1859 -0.0949 -0.2151
  148SAPE  H18R16371   5.298   2.481   9.239  0.8795  1.5603 -0.8520
  148SAPE  H18S16372   5.351   2.512   9.075  2.9942 -2.4135 -0.1486
  148SAPE  C21916373   5.361   2.310   9.111 -0.7643  0.7249 -0.0082
  148SAPE  H19R16374   5.344   2.272   9.008 -1.8805  0.8238  0.1263
  148SAPE  H19S16375   5.324   2.237   9.186  1.0407  1.2496  1.4718
  148SAPE  C22016376   5.517   2.313   9.142 -0.0516 -0.9243 -0.5443
  148SAPE  H20R16377   5.569   2.394   9.085 -0.5219 -0.8803 -0.9197
  148SAPE  H20S16378   5.565   2.218   9.111 -0.1458 -0.4232 -2.3110
  148SAPE  H20T16379   5.542   2.330   9.249 -0.5384  0.3910 -0.6214
  148SAPE   C3316380   5.341   3.415   9.766 -0.4448 -0.4168  0.3913
  148SAPE   H3X16381   5.236   3.386   9.787 -0.4466 -0.7946 -0.1271
  148SAPE   H3Y16382   5.380   3.315   9.736 -1.3312 -0.0785 -2.0765
  148SAPE   C3416383   5.352   3.505   9.650  0.9276  0.8460 -0.2139
  148SAPE   H4X16384   5.456   3.539   9.631  0.9650 -0.2959 -2.3971
  148SAPE   H4Y16385   5.282   3.590   9.662 -2.9164 -2.1573  0.8109
  148SAPE   C3516386   5.307   3.422   9.523 -0.0669 -0.4531 -0.3827
  148SAPE   H5X16387   5.199   3.399   9.535 -0.3471  1.0948  0.3481
  148SAPE   H5Y16388   5.361   3.326   9.509  0.2300 -0.1413 -1.5108
  148SAPE   C3616389   5.334   3.495   9.389  0.5403  0.0567  0.5019
  148SAPE   H6X16390   5.434   3.541   9.379  1.2626 -1.1574  1.7840
  148SAPE   H6Y16391   5.252   3.570   9.392 -0.7819 -1.3454  1.7571
  148SAPE   C3716392   5.292   3.386   9.285  0.2821 -0.2570  0.4750
  148SAPE   H7X16393   5.203   3.325   9.312 -0.4444 -0.3905 -2.0351
  148SAPE   H7Y16394   5.378   3.317   9.267  0.1656 -0.4277  0.5598
  148SAPE   C3816395   5.276   3.444   9.142  0.0302 -0.3028 -0.1048
  148SAPE   H8X16396   5.376   3.483   9.114 -0.1327  0.2450  0.0746
  148SAPE   H8Y16397   5.218   3.538   9.140  0.8150  0.2074  0.4569
  148SAPE   C3916398   5.226   3.339   9.041  0.7378 -0.2461  0.4750
  148SAPE   H9X16399   5.125   3.304   9.070  1.4628 -0.3619  3.1669
  148SAPE   H9Y16400   5.297   3.254   9.041 -0.2236 -1.1272  2.5604
  148SAPE  C31016401   5.211   3.389   8.899  0.6503  0.9438  0.3030
  148SAPE  H10X16402   5.312   3.420   8.864  0.1913  0.5671 -1.4343
  148SAPE  H10Y16403   5.140   3.474   8.891 -1.6284 -0.7939  0.9036
  148SAPE  C31116404   5.147   3.271   8.821  0.6267 -0.0386  0.4778
  148SAPE  H11X16405   5.050   3.241   8.867  0.1052  0.9369  0.0499
  148SAPE  H11Y16406   5.216   3.184   8.827  1.5891  0.6563 -0.1282
  148SAPE  C31216407   5.121   3.300   8.676 -0.6416 -0.0041 -0.5215
  148SAPE  H12X16408   5.049   3.385   8.673 -0.4982  0.1085 -0.8238
  148SAPE  H12Y16409   5.070   3.219   8.620 -2.3542  0.9220 -0.3782
  148SAPE  C31316410   5.245   3.337   8.588  0.3008 -0.0063 -0.3066
  148SAPE  H13X16411   5.285   3.242   8.547  1.9770 -0.7329  2.7127
  148SAPE  H13Y16412   5.322   3.379   8.657 -0.1891  1.5333 -0.6653
  148SAPE  C31416413   5.215   3.444   8.485  0.5165 -0.5300  0.2601
  148SAPE  H14X16414   5.213   3.544   8.534 -1.8093 -0.2063 -0.3715
  148SAPE  H14Y16415   5.113   3.433   8.442 -0.4097 -0.5165  2.2957
  148SAPE  C31516416   5.312   3.444   8.362  0.4941  0.7255  0.5799
  148SAPE  H15X16417   5.408   3.469   8.412  0.7108  0.4813  0.2894
  148SAPE  H15Y16418   5.280   3.524   8.292 -1.0854 -1.1397 -0.9501
  148SAPE  C31616419   5.323   3.316   8.277  0.7765 -0.0616 -1.1696
  148SAPE  H16X16420   5.225   3.288   8.232  0.9156 -0.6108 -1.1285
  148SAPE  H16Y16421   5.365   3.236   8.342  0.6299  0.4712 -0.3958
  148SAPE  C31716422   5.406   3.330   8.152  0.1913 -0.2648 -0.2239
  148SAPE  H17X16423   5.510   3.342   8.187 -0.4853  1.2783  1.4018
  148SAPE  H17Y16424   5.367   3.409   8.083  0.0256 -2.1041 -2.3767
  148SAPE  C31816425   5.405   3.194   8.070 -0.1211 -0.1856  0.2510
  148SAPE  H18X16426   5.484   3.206   7.993 -0.6872  1.1937 -0.1359
  148SAPE  H18Y16427   5.308   3.167   8.025 -0.4081  0.6743  0.3364
  148SAPE  H18Z16428   5.432   3.120   8.149 -0.6320  1.1356  1.7207
  149SAPE     N16429   6.531   4.965  10.786 -0.2524  0.6349  0.5276
  149SAPE   HN116430   6.562   4.992  10.881 -1.7975  0.4946  1.0970
  149SAPE   HN216431   6.447   5.024  10.767  1.2222  2.6652  0.1069
  149SAPE   HN316432   6.508   4.863  10.779  1.1048  0.3602 -0.4643
  149SAPE   C1216433   6.636   4.981  10.683 -0.0617  0.3594  0.5249
  149SAPE  H12A16434   6.677   5.083  10.699  0.1233  0.4403 -0.3958
  149SAPE  H12B16435   6.592   4.963  10.583 -1.1607  0.9090  0.8998
  149SAPE   C1116436   6.745   4.873  10.707  0.8987 -0.1098 -0.0479
  149SAPE  H11A16437   6.810   4.843  10.622 -0.7019 -3.2947 -0.2733
  149SAPE  H11B16438   6.697   4.782  10.748  2.2706  0.4296  3.0248
  149SAPE     P16439   6.965   4.994  10.797  0.5910 -0.2385  0.0026
  149SAPE   O1316440   6.993   5.049  10.934  0.0635 -0.2810 -0.2231
  149SAPE   O1416441   7.073   4.922  10.730  0.1679  0.8803 -0.4268
  149SAPE   O1216442   6.834   4.910  10.806  0.0659 -0.3971 -0.0003
  149SAPE   O1116443   6.930   5.120  10.692 -0.1203  0.4669  0.1311
  149SAPE    C116444   7.032   5.220  10.680 -0.4686 -0.3249  1.1424
  149SAPE    HA16445   7.011   5.309  10.743 -2.3988  0.9066 -1.0706
  149SAPE    HB16446   7.132   5.182  10.707  0.6693  2.4728  1.1957
  149SAPE    C216447   7.048   5.251  10.527  0.1153 -0.7886 -0.0935
  149SAPE    HS16448   7.151   5.290  10.511 -0.1522 -0.6955 -1.6380
  149SAPE   O2116449   6.953   5.351  10.492 -0.0395  0.2220  0.0312
  149SAPE   C2116450   6.998   5.480  10.505  1.0321  0.1496 -0.2126
  149SAPE   O2216451   7.099   5.512  10.566  0.2417  0.1075  0.0266
  149SAPE   C2216452   6.894   5.569  10.431  0.8902  0.4700  0.1400
  149SAPE   H2R16453   6.867   5.522  10.334  0.0783  2.0568 -0.4426
  149SAPE   H2S16454   6.803   5.579  10.494  0.7963  0.1081  0.0609
  149SAPE    C316455   7.028   5.135  10.432  0.0443  0.9737  0.6100
  149SAPE    HX16456   6.924   5.096  10.427  1.2000 -2.2549 -1.6115
  149SAPE    HY16457   7.090   5.056  10.479 -2.4706 -1.7589 -0.3181
  149SAPE   O3116458   7.065   5.165  10.294 -0.1997  0.4936 -0.0987
  149SAPE   C3116459   6.972   5.213  10.207 -0.0927 -0.0323  0.1423
  149SAPE   O3216460   6.853   5.226  10.238 -0.0274 -0.1092  0.1048
  149SAPE   C3216461   7.033   5.249  10.077  0.1023  0.4140 -0.3031
  149SAPE   H2X16462   6.990   5.182   9.999  1.0124  1.7707 -2.0297
  149SAPE   H2Y16463   7.143   5.239  10.069 -0.1718 -2.2780 -2.2067
  149SAPE   C2316464   6.966   5.702  10.396  0.6251  0.3683  0.2967
  149SAPE   H3R16465   7.055   5.703  10.330 -1.0754  0.2874 -2.1548
  149SAPE   H3S16466   6.971   5.758  10.492 -2.1714 -2.5687  2.3473
  149SAPE   C2416467   6.860   5.791  10.313  0.2452 -0.4909  0.0122
  149SAPE   H4R16468   6.775   5.810  10.381  0.1506 -1.4259  0.1590
  149SAPE   H4S16469   6.825   5.724  10.231 -0.8388  2.5256 -2.1931
  149SAPE   C2516470   6.922   5.919  10.254 -0.5157  0.0565  0.0662
  149SAPE   H5R16471   6.927   6.007  10.320  0.5072  1.1000 -1.3449
  149SAPE   C2616472   6.952   5.942  10.125  0.5744 -0.7169  0.3145
  149SAPE   H6R16473   6.997   6.040  10.100 -0.4500 -0.6005 -1.1598
  149SAPE   C2716474   6.933   5.852  10.006 -0.0162  1.1055  0.8464
  149SAPE   H7R16475   6.906   5.748  10.033 -1.5038  1.0369 -0.7392
  149SAPE   H7S16476   7.029   5.834   9.953 -0.4631 -1.1910  0.7239
  149SAPE   C2816477   6.817   5.918   9.936 -0.0229 -0.0950  0.2680
  149SAPE   H8R16478   6.728   5.939   9.997  0.3912 -2.3484  1.8106
  149SAPE   C2916479   6.811   5.933   9.799  0.2014 -0.6436 -0.0269
  149SAPE   H9R16480   6.737   5.995   9.747 -0.0904  0.2128  1.3627
  149SAPE  C21016481   6.914   5.871   9.707  0.2982  0.0767  0.7311
  149SAPE  H10R16482   6.926   5.765   9.737  0.2393  0.4099  1.9704
  149SAPE  H10S16483   7.012   5.919   9.725  0.5286  0.8400 -2.0256
  149SAPE  C21116484   6.869   5.901   9.566 -0.0673 -0.7987  0.2094
  149SAPE  H11R16485   6.868   6.004   9.527 -0.1180 -0.7170  0.4252
  149SAPE  C21216486   6.803   5.818   9.483 -0.3059 -0.1246 -0.2315
  149SAPE  H12R16487   6.782   5.857   9.383  0.1142 -0.5951 -0.5096
  149SAPE  C21316488   6.767   5.668   9.513  0.2876  0.2984 -0.3904
  149SAPE  H13R16489   6.656   5.662   9.508  0.2710  0.9105 -0.9077
  149SAPE  H13S16490   6.792   5.653   9.620 -1.0519 -0.0985 -0.1082
  149SAPE  C21416491   6.843   5.571   9.433 -0.2237 -0.0443 -0.1931
  149SAPE  H14R16492   6.940   5.554   9.482 -0.5099 -0.4355  0.2505
  149SAPE  C21516493   6.801   5.498   9.328  0.2731 -0.0271 -0.3602
  149SAPE  H15R16494   6.867   5.427   9.276  0.8508 -0.5997  1.1052
  149SAPE  C21616495   6.668   5.508   9.265 -0.1443 -0.3353  0.6235
  149SAPE  H16R16496   6.630   5.612   9.259 -1.0819 -0.7269 -0.6716
  149SAPE  H16S16497   6.595   5.449   9.324 -0.5492 -1.8984 -1.3155
  149SAPE  C21716498   6.645   5.469   9.114  0.6324  0.4319 -0.0210
  149SAPE  H17R16499   6.690   5.371   9.086 -1.4462 -0.2750 -1.0465
  149SAPE  H17S16500   6.711   5.545   9.068  0.5986  0.9131  0.7074
  149SAPE  C21816501   6.499   5.467   9.061 -0.1362 -0.2331  0.1456
  149SAPE  H18R16502   6.474   5.575   9.053 -0.0418 -0.3385 -2.7716
  149SAPE  H18S16503   6.434   5.412   9.132 -0.6964 -1.0046 -0.9263
  149SAPE  C21916504   6.483   5.419   8.917 -1.3037  0.3507 -0.1119
  149SAPE  H19R16505   6.552   5.484   8.858 -1.8276  1.1965  0.1786
  149SAPE  H19S16506   6.382   5.450   8.883 -0.1385  0.4242 -3.9558
  149SAPE  C22016507   6.514   5.270   8.887  0.1805 -0.9112 -0.1892
  149SAPE  H20R16508   6.624   5.256   8.893  0.1193 -1.3032  0.0238
  149SAPE  H20S16509   6.485   5.245   8.783 -0.3972  0.0870 -0.2817
  149SAPE  H20T16510   6.470   5.204   8.964  0.3191 -1.6338 -0.7136
  149SAPE   C3316511   6.981   5.385  10.023  0.6920  0.0614 -0.8041
  149SAPE   H3X16512   7.018   5.471  10.083  2.0637 -0.0767 -1.4010
  149SAPE   H3Y16513   6.871   5.385  10.037  0.7320 -1.0501 -0.4477
  149SAPE   C3416514   7.016   5.415   9.876  0.1045  0.0142  0.0262
  149SAPE   H4X16515   6.920   5.433   9.824  0.6146  2.4161 -0.2139
  149SAPE   H4Y16516   7.070   5.323   9.842  0.4340  0.0371  0.4841
  149SAPE   C3516517   7.110   5.531   9.864  0.7959 -0.8688 -0.6921
  149SAPE   H5X16518   7.198   5.520   9.931  0.3295 -1.9272 -0.2239
  149SAPE   H5Y16519   7.056   5.619   9.905  0.5743 -2.7756  3.6483
  149SAPE   C3616520   7.151   5.569   9.717  0.2209 -0.1814 -0.6663
  149SAPE   H6X16521   7.062   5.602   9.660  1.0948 -0.1559 -2.0660
  149SAPE   H6Y16522   7.187   5.481   9.660  1.1401 -0.1686 -0.1283
  149SAPE   C3716523   7.261   5.675   9.726  0.4177  0.2582  1.0286
  149SAPE   H7X16524   7.346   5.635   9.786 -0.4833 -0.2542  1.9888
  149SAPE   H7Y16525   7.215   5.763   9.776 -0.7496  0.9078 -1.0620
  149SAPE   C3816526   7.306   5.703   9.586 -0.3107  0.8755  0.5606
  149SAPE   H8X16527   7.338   5.606   9.543 -2.9737  0.0575  0.2333
  149SAPE   H8Y16528   7.401   5.761   9.589 -0.1195  0.7333 -1.2997
  149SAPE   C3916529   7.200   5.762   9.496  0.0636 -0.5779  0.6497
  149SAPE   H9X16530   7.170   5.860   9.538  2.1016 -0.1027  1.0602
  149SAPE   H9Y16531   7.105   5.704   9.489  0.6076 -1.6464  1.7709
  149SAPE  C31016532   7.236   5.776   9.345  0.7477 -0.0560  0.5993
  149SAPE  H10X16533   7.259   5.680   9.294  1.6935  1.0362 -1.1158
  149SAPE  H10Y16534   7.330   5.835   9.336  0.4866  0.3645  0.5806
  149SAPE  C31116535   7.124   5.843   9.269  0.3956 -0.2710  0.7418
  149SAPE  H11X16536   7.091   5.939   9.315  2.8599  0.5212  1.0144
  149SAPE  H11Y16537   7.038   5.772   9.275  0.0303  0.2364  1.7052
  149SAPE  C31216538   7.159   5.871   9.118 -0.2213 -0.5405  0.0759
  149SAPE  H12X16539   7.068   5.885   9.055 -0.0154  2.1853  0.2521
  149SAPE  H12Y16540   7.209   5.779   9.083 -1.0074 -0.6754 -0.7485
  149SAPE  C31316541   7.252   5.991   9.096 -0.5413 -0.4221  1.0398
  149SAPE  H13X16542   7.338   5.989   9.167  1.5023 -0.1483 -1.2848
  149SAPE  H13Y16543   7.201   6.085   9.126  0.2888  0.4958 -0.2729
  149SAPE  C31416544   7.305   6.006   8.951  0.0667  0.2675  0.3734
  149SAPE  H14X16545   7.224   6.030   8.878  0.1901  0.4161  0.2838
  149SAPE  H14Y16546   7.343   5.908   8.915  1.8533  1.2853 -0.6665
  149SAPE  C31516547   7.418   6.112   8.944  0.4351 -0.6741 -0.2260
  149SAPE  H15X16548   7.511   6.072   8.991  1.2279 -1.8845 -2.6178
  149SAPE  H15Y16549   7.385   6.209   8.985 -0.1925 -0.8633 -0.2806
  149SAPE  C31616550   7.454   6.141   8.794 -0.2233  0.6735 -0.2161
  149SAPE  H16X16551   7.356   6.189   8.771 -0.6734  0.5068  1.2892
  149SAPE  H16Y16552   7.462   6.042   8.745  1.3113  0.6026  0.1397
  149SAPE  C31716553   7.563   6.240   8.767 -1.3485 -1.2508 -1.6580
  149SAPE  H17X16554   7.660   6.203   8.806 -1.8487 -1.3633 -0.4742
  149SAPE  H17Y16555   7.535   6.327   8.830  3.3393  0.1558 -1.1759
  149SAPE  C31816556   7.572   6.298   8.627 -0.1408  0.8893 -0.2749
  149SAPE  H18X16557   7.474   6.284   8.576 -1.4458 -0.0027  2.2886
  149SAPE  H18Y16558   7.649   6.251   8.563 -0.7558 -0.0898 -0.3129
  149SAPE  H18Z16559   7.581   6.409   8.619  2.1740  0.7538 -0.2266
  150SAPE     N16560   1.373   5.863  11.131  0.0376 -0.5165  0.1005
  150SAPE   HN116561   1.457   5.905  11.086 -0.5543 -0.2720 -0.8127
  150SAPE   HN216562   1.353   5.920  11.216 -0.2562 -0.0095 -0.3035
  150SAPE   HN316563   1.393   5.765  11.160  0.8642  0.0455  1.5401
  150SAPE   C1216564   1.248   5.862  11.046  0.4434 -0.1475 -0.2127
  150SAPE  H12A16565   1.227   5.967  11.014 -3.7334 -0.5359  0.6982
  150SAPE  H12B16566   1.162   5.843  11.114  2.9399 -0.0397  3.2432
  150SAPE   C1116567   1.241   5.754  10.933 -0.8638 -0.4131  0.5504
  150SAPE  H11A16568   1.142   5.756  10.882  0.0708  1.4920 -1.3314
  150SAPE  H11B16569   1.255   5.659  10.989  0.3933  0.3406  1.5592
  150SAPE     P16570   1.470   5.684  10.835 -0.2653 -0.1359 -0.5163
  150SAPE   O1316571   1.588   5.763  10.877 -0.1073  0.1604  0.2118
  150SAPE   O1416572   1.445   5.554  10.905  0.0093  0.6146 -0.0874
  150SAPE   O1216573   1.346   5.780  10.836  0.3348 -0.1132 -0.3572
  150SAPE   O1116574   1.467   5.668  10.672 -0.2217  0.1294 -0.3588
  150SAPE    C116575   1.582   5.665  10.589 -0.0860 -0.2848 -0.2289
  150SAPE    HA16576   1.577   5.757  10.527 -2.6047  0.4177  0.9253
  150SAPE    HB16577   1.665   5.690  10.658 -1.8924  3.5165  0.8193
  150SAPE    C216578   1.585   5.533  10.505 -0.3602 -0.8486  1.0653
  150SAPE    HS16579   1.689   5.506  10.479 -0.3569 -1.6259  1.8412
  150SAPE   O2116580   1.506   5.560  10.381 -0.0407  0.1500  0.1701
  150SAPE   C2116581   1.584   5.602  10.278 -0.5873  0.1730 -0.1779
  150SAPE   O2216582   1.695   5.641  10.298 -0.0833 -0.2847  0.1582
  150SAPE   C2216583   1.506   5.623  10.154 -0.1505 -0.3375  0.4077
  150SAPE   H2R16584   1.430   5.543  10.144  0.2050 -0.7616  1.0463
  150SAPE   H2S16585   1.451   5.719  10.155  0.8392  0.2541 -0.2831
  150SAPE    C316586   1.533   5.405  10.573 -0.6078 -0.0979  0.1998
  150SAPE    HX16587   1.430   5.431  10.606 -1.3293  2.1394 -3.3403
  150SAPE    HY16588   1.577   5.382  10.673 -0.8900 -0.4409  0.2483
  150SAPE   O3116589   1.544   5.293  10.491  0.0831 -0.0845 -0.1870
  150SAPE   C3116590   1.453   5.268  10.409  0.6935  0.3559  0.1113
  150SAPE   O3216591   1.345   5.323  10.404 -0.1703 -0.7527  0.4767
  150SAPE   C3216592   1.505   5.150  10.335  0.3344 -0.0713  0.6608
  150SAPE   H2X16593   1.483   5.070  10.409  0.1203  0.3718  1.0847
  150SAPE   H2Y16594   1.615   5.143  10.323 -0.0118 -1.7891 -2.5981
  150SAPE   C2316595   1.594   5.622  10.026  0.2393  0.0502  0.0483
  150SAPE   H3R16596   1.607   5.515  10.000  1.5831  0.3602 -0.6855
  150SAPE   H3S16597   1.697   5.662  10.037  0.9387 -0.5280 -3.1778
  150SAPE   C2416598   1.513   5.693   9.911 -1.1700  0.2310 -0.6982
  150SAPE   H4R16599   1.581   5.715   9.827 -3.2227  0.1803 -2.4599
  150SAPE   H4S16600   1.493   5.798   9.943  0.1537  1.3901 -3.4261
  150SAPE   C2516601   1.401   5.616   9.849  0.2347  0.2900 -0.1507
  150SAPE   H5R16602   1.308   5.621   9.907  0.8841 -1.1427  1.0938
  150SAPE   C2616603   1.399   5.554   9.729 -1.3871 -0.5955 -0.9023
  150SAPE   H6R16604   1.318   5.480   9.722 -2.0265 -0.4255  2.7263
  150SAPE   C2716605   1.506   5.556   9.619  0.5808 -0.1994 -0.3872
  150SAPE   H7R16606   1.580   5.639   9.633  1.1570 -0.6650 -0.6291
  150SAPE   H7S16607   1.459   5.585   9.523  1.2993 -3.7967 -1.9716
  150SAPE   C2816608   1.590   5.431   9.620  0.2812 -0.2687  1.0051
  150SAPE   H8R16609   1.613   5.389   9.719 -1.5464 -0.6420  1.3132
  150SAPE   C2916610   1.631   5.370   9.506  0.5504  0.2834  0.0275
  150SAPE   H9R16611   1.689   5.276   9.504 -0.3879 -0.4050 -4.1927
  150SAPE  C21016612   1.616   5.413   9.359 -0.5627 -0.3400 -0.7280
  150SAPE  H10R16613   1.509   5.404   9.334 -0.6365 -1.0929 -0.1649
  150SAPE  H10S16614   1.669   5.344   9.291 -0.8360  1.9702 -3.4576
  150SAPE  C21116615   1.664   5.553   9.337  0.1163 -0.0668  0.6472
  150SAPE  H11R16616   1.700   5.613   9.422  0.8637  1.2621 -0.5699
  150SAPE  C21216617   1.632   5.628   9.221 -0.0711  0.1796  0.5206
  150SAPE  H12R16618   1.657   5.735   9.212  0.8423 -0.1034 -0.5203
  150SAPE  C21316619   1.558   5.561   9.112  0.0326 -0.1631 -0.7068
  150SAPE  H13R16620   1.459   5.609   9.128  0.7580  2.0357 -2.2835
  150SAPE  H13S16621   1.559   5.450   9.116  0.8391 -0.2853 -3.0678
  150SAPE  C21416622   1.617   5.605   8.984  0.1206 -0.3972 -0.0335
  150SAPE  H14R16623   1.727   5.599   8.987  0.0529 -1.4144  2.1960
  150SAPE  C21516624   1.545   5.629   8.874  0.2225 -0.0928  0.2809
  150SAPE  H15R16625   1.594   5.643   8.776 -0.7388 -1.5430 -0.4391
  150SAPE  C21616626   1.396   5.613   8.862 -0.1732 -0.6061 -0.4968
  150SAPE  H16R16627   1.386   5.638   8.755 -2.1114 -1.0719 -0.4479
  150SAPE  H16S16628   1.332   5.683   8.920 -1.9669 -1.5680 -1.2417
  150SAPE  C21716629   1.347   5.475   8.880  0.3173 -0.2264 -0.0334
  150SAPE  H17R16630   1.370   5.442   8.984 -4.1537 -0.2866  1.1450
  150SAPE  H17S16631   1.404   5.412   8.810  2.3520  1.2386  0.2083
  150SAPE  C21816632   1.199   5.451   8.862 -0.2469 -0.3352  0.6442
  150SAPE  H18R16633   1.168   5.502   8.768  0.0684  1.2616  1.3621
  150SAPE  H18S16634   1.132   5.513   8.926  0.3021 -0.3619  1.2575
  150SAPE  C21916635   1.165   5.305   8.859  0.2589  1.2546 -0.0488
  150SAPE  H19R16636   1.218   5.249   8.939 -0.5490  0.4415 -0.0738
  150SAPE  H19S16637   1.201   5.266   8.762  0.8299  0.6122  0.4095
  150SAPE  C22016638   1.015   5.276   8.880 -0.2587 -0.3326  0.3805
  150SAPE  H20R16639   0.952   5.333   8.808 -0.0007  1.2982  1.3814
  150SAPE  H20S16640   0.981   5.294   8.985 -2.9762  0.4833 -0.5461
  150SAPE  H20T16641   1.001   5.171   8.848 -0.3128  0.0398 -0.8896
  150SAPE   C3316642   1.406   5.116  10.213 -0.2088 -0.3157  0.0489
  150SAPE   H3X16643   1.299   5.100  10.238 -0.2801  0.8308  0.5547
  150SAPE   H3Y16644   1.442   5.020  10.170 -0.1157 -0.2689  0.0220
  150SAPE   C3416645   1.410   5.230  10.103 -0.5395 -0.0181  0.5257
  150SAPE   H4X16646   1.502   5.293  10.101 -0.5792  0.0332  0.1589
  150SAPE   H4Y16647   1.323   5.296  10.118  0.3643  1.6637 -1.1794
  150SAPE   C3516648   1.385   5.177   9.959 -0.1169  0.5834  0.2018
  150SAPE   H5X16649   1.472   5.110   9.941  1.0082  1.2170  2.7668
  150SAPE   H5Y16650   1.379   5.270   9.898  2.3555  0.2219 -0.7431
  150SAPE   C3616651   1.253   5.107   9.942  0.2938  0.1429  0.3392
  150SAPE   H6X16652   1.178   5.189   9.953  1.5646  1.3900 -0.0354
  150SAPE   H6Y16653   1.229   5.047  10.033  0.3480  0.6569  0.6971
  150SAPE   C3716654   1.236   5.033   9.806  0.1009 -0.1286  0.1609
  150SAPE   H7X16655   1.140   4.978   9.808 -0.3308  0.6098  0.1574
  150SAPE   H7Y16656   1.323   4.965   9.798  1.4703  1.6295 -0.9047
  150SAPE   C3816657   1.233   5.124   9.691  0.6198 -0.3098  1.0410
  150SAPE   H8X16658   1.331   5.168   9.663  0.5035 -1.2612 -1.1024
  150SAPE   H8Y16659   1.159   5.207   9.693  0.5519 -0.2212 -1.5595
  150SAPE   C3916660   1.190   5.039   9.567  0.1625 -0.0821 -0.7073
  150SAPE   H9X16661   1.079   5.038   9.580  0.3603 -1.2516  1.4985
  150SAPE   H9Y16662   1.218   4.932   9.577 -0.5730 -0.2024  0.2926
  150SAPE  C31016663   1.240   5.084   9.430  0.0753 -0.4295 -0.3222
  150SAPE  H10X16664   1.350   5.089   9.442  0.3330  0.5337 -2.6358
  150SAPE  H10Y16665   1.187   5.178   9.404 -0.3360 -0.5267  0.1396
  150SAPE  C31116666   1.225   4.984   9.321 -0.0662  0.3672  0.3732
  150SAPE  H11X16667   1.117   4.958   9.322  0.2364 -1.0598 -0.6648
  150SAPE  H11Y16668   1.270   4.886   9.347 -1.3167 -0.9794 -2.2105
  150SAPE  C31216669   1.298   5.026   9.188  0.1774 -0.4918 -0.5370
  150SAPE  H12X16670   1.401   5.052   9.220  0.4969 -0.0897 -1.8539
  150SAPE  H12Y16671   1.250   5.117   9.147 -1.9997  0.3329  3.3178
  150SAPE  C31316672   1.298   4.912   9.087  0.1961 -0.0488 -0.4977
  150SAPE  H13X16673   1.194   4.890   9.056 -0.3649  0.8661  0.6543
  150SAPE  H13Y16674   1.330   4.816   9.132  1.4301  0.8188  0.5605
  150SAPE  C31416675   1.386   4.933   8.962 -1.1377 -0.4937 -0.4531
  150SAPE  H14X16676   1.479   4.972   9.008 -1.7324  1.3371 -0.7228
  150SAPE  H14Y16677   1.337   5.010   8.899 -0.9676 -1.3796 -1.7118
  150SAPE  C31516678   1.394   4.809   8.874 -0.7278 -0.3560  1.2597
  150SAPE  H15X16679   1.289   4.788   8.843 -0.4719  1.5872 -1.1772
  150SAPE  H15Y16680   1.436   4.724   8.931 -1.1605 -0.6814  1.0951
  150SAPE  C31616681   1.485   4.840   8.750  0.7651  1.0648 -0.5174
  150SAPE  H16X16682   1.589   4.859   8.786  1.2887 -1.1579 -0.7209
  150SAPE  H16Y16683   1.447   4.937   8.714 -2.0636  0.2382  0.0394
  150SAPE  C31716684   1.488   4.729   8.643  0.1303 -0.0838  0.6208
  150SAPE  H17X16685   1.566   4.758   8.570 -0.2344 -0.0471  0.2439
  150SAPE  H17Y16686   1.386   4.729   8.599  1.1578  1.6388 -2.0147
  150SAPE  C31816687   1.522   4.594   8.703  0.0612  0.5807  0.3242
  150SAPE  H18X16688   1.598   4.606   8.784 -1.2659 -2.3685  2.1592
  150SAPE  H18Y16689   1.555   4.519   8.629  1.1997 -0.9077  2.2221
  150SAPE  H18Z16690   1.428   4.546   8.737 -0.6020  1.0672 -0.7909
  151SAPE     N16691   0.485   2.033  10.358 -0.3470  0.0879  0.6496
  151SAPE   HN116692   0.518   1.995  10.449  0.5269  0.8791  0.6751
  151SAPE   HN216693   0.575   2.059  10.313  0.8525 -2.1322  1.5681
  151SAPE   HN316694   0.425   2.117  10.366 -1.1360 -0.1015 -2.1485
  151SAPE   C1216695   0.406   1.940  10.273  0.2645  0.7351 -0.1295
  151SAPE  H12A16696   0.407   1.985  10.171  3.0448  1.1782  0.0268
  151SAPE  H12B16697   0.300   1.939  10.306  0.4685 -2.5464  0.7648
  151SAPE   C1116698   0.473   1.801  10.262  1.1822 -0.0389  0.2575
  151SAPE  H11A16699   0.414   1.742  10.189  1.8333 -0.0125 -0.3000
  151SAPE  H11B16700   0.466   1.747  10.358 -1.9602 -1.3279 -0.5869
  151SAPE     P16701   0.717   1.709  10.231  0.0992  0.5004 -0.1417
  151SAPE   O1316702   0.837   1.777  10.285 -0.0118 -0.4544  0.3719
  151SAPE   O1416703   0.661   1.611  10.328  0.2576  0.2749 -0.1167
  151SAPE   O1216704   0.601   1.812  10.200  0.2965 -0.1004  0.4666
  151SAPE   O1116705   0.741   1.621  10.099  0.3675 -0.6319  0.6734
  151SAPE    C116706   0.632   1.592  10.011  0.2168 -0.5394  0.3450
  151SAPE    HA16707   0.647   1.494   9.962  1.2508  0.6806 -1.8918
  151SAPE    HB16708   0.533   1.583  10.062 -1.1230  0.5398 -1.8942
  151SAPE    C216709   0.625   1.696   9.895 -0.4065  0.1832 -0.2102
  151SAPE    HS16710   0.616   1.799   9.935  1.1078 -0.0479  0.8354
  151SAPE   O2116711   0.528   1.660   9.799  0.4758 -0.3378  0.4348
  151SAPE   C2116712   0.405   1.703   9.816  0.6528 -0.3409  0.5887
  151SAPE   O2216713   0.374   1.791   9.900  0.4081  0.8870  0.4225
  151SAPE   C2216714   0.306   1.631   9.727  0.4054  0.2504  0.3216
  151SAPE   H2R16715   0.368   1.571   9.656  1.4438  3.0454 -1.3267
  151SAPE   H2S16716   0.248   1.559   9.788  0.1811 -0.0460 -0.2301
  151SAPE    C316717   0.756   1.691   9.813 -0.4525  0.4680  0.1821
  151SAPE    HX16718   0.792   1.589   9.786  2.6046  1.9029 -1.7686
  151SAPE    HY16719   0.836   1.724   9.883  0.0614 -2.0536  0.8924
  151SAPE   O3116720   0.748   1.770   9.694  0.7009 -0.6350  0.2571
  151SAPE   C3116721   0.722   1.700   9.577 -0.4368  0.0100 -0.2920
  151SAPE   O3216722   0.684   1.584   9.568 -0.0163  0.1969 -0.2781
  151SAPE   C3216723   0.725   1.793   9.461 -0.4322  0.4084  0.1586
  151SAPE   H2X16724   0.826   1.837   9.452 -0.6423  1.1607  1.2202
  151SAPE   H2Y16725   0.639   1.862   9.469  0.8216  1.9504  0.8083
  151SAPE   C2316726   0.203   1.724   9.652  0.1939 -0.1534 -0.1171
  151SAPE   H3R16727   0.142   1.776   9.729  1.2304 -0.1150  0.6947
  151SAPE   H3S16728   0.124   1.657   9.611 -0.1831 -0.4267  1.0178
  151SAPE   C2416729   0.263   1.822   9.551  0.4254  0.3016  0.2086
  151SAPE   H4R16730   0.345   1.873   9.606  1.8927 -1.3070 -0.3926
  151SAPE   H4S16731   0.190   1.904   9.533 -2.4176 -1.8711  1.1701
  151SAPE   C2516732   0.322   1.754   9.431 -0.2787 -0.0327  0.1726
  151SAPE   H5R16733   0.414   1.697   9.452 -1.4354 -2.1101 -0.1381
  151SAPE   C2616734   0.272   1.747   9.306 -0.3986  0.0928  0.2716
  151SAPE   H6R16735   0.334   1.708   9.224  1.5816  3.1227  0.1767
  151SAPE   C2716736   0.155   1.823   9.252  0.2616 -0.6442  0.6351
  151SAPE   H7R16737   0.121   1.902   9.322  0.0495 -0.8074  0.7188
  151SAPE   H7S16738   0.072   1.750   9.263  1.1663 -1.5263  1.8090
  151SAPE   C2816739   0.140   1.869   9.107  0.1107  0.3016 -0.9919
  151SAPE   H8R16740   0.131   1.789   9.032  0.7420  0.8204 -1.6395
  151SAPE   C2916741   0.121   1.994   9.069 -0.2305 -0.5521  0.6069
  151SAPE   H9R16742   0.093   2.020   8.966 -1.4917  1.9784  1.4897
  151SAPE  C21016743   0.123   2.120   9.155 -0.3046 -0.1759  0.7736
  151SAPE  H10R16744   0.228   2.158   9.156 -0.5279  0.4928  0.0878
  151SAPE  H10S16745   0.109   2.091   9.261 -0.3051  1.9006  1.3770
  151SAPE  C21116746   0.038   2.233   9.124  0.9229 -0.6356 -0.7682
  151SAPE  H11R16747  -0.052   2.259   9.182  0.0468 -2.7382 -1.0784
  151SAPE  C21216748   0.046   2.311   9.017 -0.2947 -0.3397 -0.0374
  151SAPE  H12R16749  -0.021   2.398   9.014 -0.1327 -0.1240 -4.4655
  151SAPE  C21316750   0.156   2.309   8.906 -0.4801 -0.1873 -0.1883
  151SAPE  H13R16751   0.167   2.202   8.876 -2.8804 -0.3573 -0.6625
  151SAPE  H13S16752   0.239   2.343   8.972 -0.5574  0.0716 -0.2240
  151SAPE  C21416753   0.167   2.406   8.784  0.2046  0.3715  0.4789
  151SAPE  H14R16754   0.246   2.482   8.776 -0.8274  1.4974  0.7118
  151SAPE  C21516755   0.084   2.404   8.674 -0.4415 -0.2520 -0.7401
  151SAPE  H15R16756   0.108   2.469   8.589  0.7126 -0.8985 -0.9226
  151SAPE  C21616757  -0.034   2.313   8.640 -0.8308  0.3994  0.1295
  151SAPE  H16R16758  -0.073   2.267   8.733  0.0071 -1.8376 -0.5621
  151SAPE  H16S16759   0.010   2.233   8.577  0.0147  0.9495 -0.0075
  151SAPE  C21716760  -0.142   2.394   8.566  0.2537 -1.0071 -0.3795
  151SAPE  H17R16761  -0.104   2.423   8.465 -0.7559 -0.4287 -0.6063
  151SAPE  H17S16762  -0.165   2.487   8.622  0.2609 -0.1497 -1.7545
  151SAPE  C21816763  -0.276   2.322   8.558 -0.1544 -0.1555 -0.0886
  151SAPE  H18R16764  -0.324   2.316   8.658 -2.9871  0.8410 -1.2691
  151SAPE  H18S16765  -0.256   2.216   8.532  2.2658  0.6501 -1.9262
  151SAPE  C21916766  -0.374   2.389   8.454 -0.2342  0.1495 -0.2780
  151SAPE  H19R16767  -0.332   2.379   8.352  0.7759  3.8635 -0.3585
  151SAPE  H19S16768  -0.378   2.497   8.481 -1.2804  0.0180  0.1777
  151SAPE  C22016769  -0.509   2.321   8.465  0.0370  0.0869  0.1661
  151SAPE  H20R16770  -0.505   2.210   8.466  0.0169  0.0503 -1.3842
  151SAPE  H20S16771  -0.578   2.347   8.381  0.5997 -1.3238 -0.7808
  151SAPE  H20T16772  -0.558   2.359   8.557 -0.9263 -1.9081  0.5357
  151SAPE   C3316773   0.692   1.719   9.328 -0.3501 -0.1678  0.1973
  151SAPE   H3X16774   0.586   1.687   9.338 -2.0023  4.2348 -1.0904
  151SAPE   H3Y16775   0.752   1.627   9.309 -0.1517  0.3453 -1.8448
  151SAPE   C3416776   0.699   1.811   9.205  0.1689 -0.1535 -0.6890
  151SAPE   H4X16777   0.805   1.843   9.200  0.0111  0.7721  0.9585
  151SAPE   H4Y16778   0.631   1.899   9.213 -0.7248 -0.7724 -1.2994
  151SAPE   C3516779   0.656   1.734   9.083 -0.1311 -0.5030  0.0870
  151SAPE   H5X16780   0.554   1.693   9.091  0.7368 -2.6504  0.9653
  151SAPE   H5Y16781   0.732   1.655   9.064  1.5884  1.3151 -1.1202
  151SAPE   C3616782   0.643   1.818   8.953  0.0300 -0.1595 -0.4642
  151SAPE   H6X16783   0.736   1.877   8.941  0.0960  0.1928  1.3860
  151SAPE   H6Y16784   0.556   1.886   8.960  0.6810  0.9154 -2.2368
  151SAPE   C3716785   0.610   1.741   8.822  0.0019 -0.6856 -0.8689
  151SAPE   H7X16786   0.505   1.704   8.830 -1.0108  2.2304  0.8582
  151SAPE   H7Y16787   0.681   1.658   8.803  0.2942 -0.7849  0.5144
  151SAPE   C3816788   0.612   1.839   8.703 -0.5236 -0.4996 -0.2369
  151SAPE   H8X16789   0.562   1.932   8.737  0.7017 -0.2318  0.9412
  151SAPE   H8Y16790   0.560   1.790   8.618 -1.4495  0.8051 -0.4558
  151SAPE   C3916791   0.752   1.883   8.669  0.3693  0.3537 -0.1599
  151SAPE   H9X16792   0.806   1.786   8.672  1.3354  0.8408 -1.2552
  151SAPE   H9Y16793   0.802   1.950   8.742 -0.5721  0.9636 -0.0477
  151SAPE  C31016794   0.762   1.944   8.527 -0.0516 -0.1885  0.3034
  151SAPE  H10X16795   0.861   1.990   8.506  0.5119 -1.3324  0.3703
  151SAPE  H10Y16796   0.687   2.026   8.532 -1.6177 -1.4707 -1.1228
  151SAPE  C31116797   0.737   1.851   8.404 -0.4518 -0.7609  0.3461
  151SAPE  H11X16798   0.640   1.796   8.396 -1.3956  1.0652 -1.8020
  151SAPE  H11Y16799   0.820   1.777   8.409 -0.0612 -0.2522  2.7801
  151SAPE  C31216800   0.760   1.926   8.277  1.0136  0.1237  0.0291
  151SAPE  H12X16801   0.847   1.993   8.296  0.7352  0.8170 -1.0542
  151SAPE  H12Y16802   0.668   1.983   8.252  0.3129 -0.3410  1.4505
  151SAPE  C31316803   0.788   1.827   8.166  0.5299 -0.3769 -0.4513
  151SAPE  H13X16804   0.705   1.756   8.148  0.2901 -0.7276  1.7122
  151SAPE  H13Y16805   0.880   1.769   8.191  0.1870 -0.8542 -0.2796
  151SAPE  C31416806   0.817   1.903   8.044  0.5433 -0.8775  0.1730
  151SAPE  H14X16807   0.896   1.979   8.056 -0.7098  0.2480  1.6655
  151SAPE  H14Y16808   0.730   1.965   8.012  0.6740  0.1924  1.7809
  151SAPE  C31516809   0.853   1.807   7.934  0.3609 -0.4673 -0.3396
  151SAPE  H15X16810   0.768   1.738   7.919  0.2335 -0.7881  1.5829
  151SAPE  H15Y16811   0.944   1.752   7.967  2.2651  4.1105  3.0787
  151SAPE  C31616812   0.907   1.878   7.806 -0.0027 -0.5012 -0.5123
  151SAPE  H16X16813   0.939   1.797   7.737  1.2512 -0.0349 -0.5060
  151SAPE  H16Y16814   0.996   1.943   7.819 -1.1178  0.9894 -0.0032
  151SAPE  C31716815   0.793   1.950   7.735  0.3909  0.2330  0.2123
  151SAPE  H17X16816   0.781   2.044   7.792 -1.9413  0.5878 -0.7616
  151SAPE  H17Y16817   0.696   1.897   7.732  1.1556 -1.2288  0.1581
  151SAPE  C31816818   0.824   1.990   7.583 -0.2862 -0.0966 -0.4457
  151SAPE  H18X16819   0.847   1.893   7.532  0.4644 -0.5306  0.6687
  151SAPE  H18Y16820   0.917   2.052   7.586  0.5850 -1.3843  0.3517
  151SAPE  H18Z16821   0.737   2.049   7.548  0.3311  0.8536 -0.4215
  152SAPE     N16822   2.890   2.218  10.592  0.3316  0.1451 -0.1041
  152SAPE   HN116823   2.943   2.227  10.681  1.6243  2.1873 -1.0010
  152SAPE   HN216824   2.797   2.255  10.619  0.6370  0.9448 -0.1049
  152SAPE   HN316825   2.875   2.118  10.569  1.5665 -0.2907  0.8544
  152SAPE   C1216826   2.968   2.288  10.477 -0.0526  0.3565  0.0145
  152SAPE  H12A16827   2.929   2.248  10.382 -0.5830 -0.7560  0.6772
  152SAPE  H12B16828   3.073   2.255  10.494 -0.1556 -0.8356 -1.5220
  152SAPE   C1116829   2.965   2.444  10.488 -0.1435 -0.8093 -0.8294
  152SAPE  H11A16830   3.001   2.487  10.392  0.3789 -0.4183 -0.4628
  152SAPE  H11B16831   3.034   2.476  10.568 -0.3452 -0.1500 -0.9111
  152SAPE     P16832   2.801   2.637  10.569  0.5571 -0.1586  0.0663
  152SAPE   O1316833   2.703   2.630  10.676  0.0171 -0.0056  0.5067
  152SAPE   O1416834   2.934   2.703  10.605  0.6510  0.2643  0.1718
  152SAPE   O1216835   2.837   2.485  10.511 -0.2158 -0.1326 -0.0640
  152SAPE   O1116836   2.736   2.718  10.445 -0.1557  0.1115  0.1316
  152SAPE    C116837   2.683   2.661  10.329 -0.1844 -0.0373 -0.1121
  152SAPE    HA16838   2.675   2.550  10.326 -2.3876  0.0865 -2.7902
  152SAPE    HB16839   2.583   2.700  10.303 -0.8608 -2.1799 -0.9801
  152SAPE    C216840   2.782   2.688  10.208 -0.5500  0.2940 -0.0037
  152SAPE    HS16841   2.865   2.620  10.237 -1.1715 -0.0263  1.1013
  152SAPE   O2116842   2.814   2.829  10.211  0.2837 -0.0757 -0.4092
  152SAPE   C2116843   2.932   2.857  10.177 -0.2700 -0.0431 -0.7752
  152SAPE   O2216844   3.032   2.782  10.174 -0.3574  0.4917 -0.0033
  152SAPE   C2216845   2.930   3.000  10.120  0.3516 -0.3700 -0.4615
  152SAPE   H2R16846   2.843   3.015  10.051 -0.7462  1.7418  1.2620
  152SAPE   H2S16847   2.918   3.068  10.207 -0.9265 -0.6328 -0.4039
  152SAPE    C316848   2.717   2.650  10.066  0.3974 -0.4265  0.8520
  152SAPE    HX16849   2.629   2.717  10.059  2.0422  1.6294 -1.6838
  152SAPE    HY16850   2.682   2.546  10.087  2.0760 -0.7546  2.2871
  152SAPE   O3116851   2.814   2.661   9.961 -0.1762  0.0772 -0.1473
  152SAPE   C3116852   2.898   2.556   9.948  0.6338  0.2501 -0.6390
  152SAPE   O3216853   2.899   2.455  10.016 -0.7874  0.3210 -0.9842
  152SAPE   C3216854   2.982   2.583   9.822  0.3037  0.3310  0.6299
  152SAPE   H2X16855   3.031   2.680   9.842 -0.0858  0.3771  1.3803
  152SAPE   H2Y16856   2.909   2.604   9.740 -0.5280 -2.2076  0.6275
  152SAPE   C2316857   3.063   3.035  10.049 -0.3435  0.1144 -0.1425
  152SAPE   H3R16858   3.148   3.003  10.113 -1.2627 -1.1938  0.4694
  152SAPE   H3S16859   3.076   3.144  10.035 -0.1335  0.6012  3.0938
  152SAPE   C2416860   3.079   2.969   9.910 -0.0362 -0.1790  0.0626
  152SAPE   H4R16861   2.986   2.989   9.852  0.2655 -1.7887 -1.0510
  152SAPE   H4S16862   3.073   2.859   9.927 -1.0081  0.0125  1.1119
  152SAPE   C2516863   3.202   3.021   9.837  0.4059  0.6754 -0.1202
  152SAPE   H5R16864   3.289   3.007   9.903 -0.3568 -3.8733  0.2130
  152SAPE   C2616865   3.211   3.065   9.711 -0.4449 -0.2864 -0.2391
  152SAPE   H6R16866   3.309   3.096   9.673 -0.6932 -1.1479 -1.6193
  152SAPE   C2716867   3.094   3.064   9.626  0.5480 -0.5549  0.0877
  152SAPE   H7R16868   3.106   3.143   9.548  1.9251  1.9028  2.5881
  152SAPE   H7S16869   3.011   3.108   9.686  2.1104  0.3591  1.6799
  152SAPE   C2816870   3.044   2.940   9.564  0.2949  0.2936 -0.2706
  152SAPE   H8R16871   2.956   2.900   9.616  1.3093 -0.2518  1.0740
  152SAPE   C2916872   3.064   2.896   9.440  0.3700  0.6097 -0.2987
  152SAPE   H9R16873   3.022   2.803   9.398 -0.4379  1.8980 -2.5596
  152SAPE  C21016874   3.145   2.958   9.330 -0.6797 -0.9530  0.3077
  152SAPE  H10R16875   3.176   2.874   9.264 -1.5054 -0.6892 -0.4266
  152SAPE  H10S16876   3.239   3.002   9.370 -0.2852 -0.3574 -1.2038
  152SAPE  C21116877   3.077   3.059   9.240  0.0910 -1.1264  0.4420
  152SAPE  H11R16878   3.080   3.163   9.277  0.7182 -0.3069 -1.7907
  152SAPE  C21216879   3.018   3.042   9.118  0.2559  0.4180  0.0872
  152SAPE  H12R16880   2.982   3.125   9.055  0.5617 -0.4737 -1.2816
  152SAPE  C21316881   3.009   2.907   9.053  0.0730 -0.3668  0.0271
  152SAPE  H13R16882   2.907   2.898   9.011 -0.1732 -4.2770  1.0231
  152SAPE  H13S16883   3.019   2.827   9.130  2.6824  2.1060  2.4710
  152SAPE  C21416884   3.103   2.879   8.937  0.2359  0.0408  0.3492
  152SAPE  H14R16885   3.193   2.822   8.965 -0.7735 -1.8546 -0.0806
  152SAPE  C21516886   3.103   2.931   8.810  0.0649  0.4574 -0.4227
  152SAPE  H15R16887   3.172   2.891   8.733  2.5005 -0.0772  1.8931
  152SAPE  C21616888   2.997   3.023   8.777  0.5463 -0.3710  0.5538
  152SAPE  H16R16889   2.922   3.051   8.854 -4.6107  1.3554 -4.4224
  152SAPE  H16S16890   2.935   2.962   8.708  0.9508 -0.5684  0.3593
  152SAPE  C21716891   3.030   3.155   8.700 -0.2098  0.7071  0.5104
  152SAPE  H17R16892   3.102   3.126   8.621 -2.6415 -0.4097 -1.4614
  152SAPE  H17S16893   3.087   3.215   8.775 -0.3510  0.4226  0.8505
  152SAPE  C21816894   2.911   3.234   8.647 -0.9717  0.5803  0.1834
  152SAPE  H18R16895   2.953   3.311   8.578 -3.9207  1.4767 -0.7642
  152SAPE  H18S16896   2.861   3.277   8.736 -2.1147 -0.7873  0.2365
  152SAPE  C21916897   2.812   3.147   8.567 -0.2682 -0.0116 -0.1479
  152SAPE  H19R16898   2.762   3.087   8.646 -0.4982  2.7127  1.9603
  152SAPE  H19S16899   2.862   3.081   8.494  0.3290  0.9537 -0.6298
  152SAPE  C22016900   2.715   3.228   8.485  0.7079 -0.0637  0.1702
  152SAPE  H20R16901   2.753   3.329   8.457  1.9549 -1.1226 -2.3232
  152SAPE  H20S16902   2.615   3.242   8.530  0.7361 -0.5708  0.3918
  152SAPE  H20T16903   2.697   3.179   8.387 -0.1923  0.8363 -0.1335
  152SAPE   C3316904   3.087   2.467   9.794 -0.2221 -0.0317  0.2707
  152SAPE   H3X16905   3.034   2.369   9.788  1.5339 -0.9354 -2.3395
  152SAPE   H3Y16906   3.161   2.454   9.875 -2.1725  0.1263  2.1738
  152SAPE   C3416907   3.157   2.502   9.662 -0.3461  0.2430 -0.0876
  152SAPE   H4X16908   3.246   2.436   9.654  0.0652  0.4561  2.0473
  152SAPE   H4Y16909   3.196   2.606   9.655 -1.6589  0.6495 -2.3547
  152SAPE   C3516910   3.060   2.484   9.542 -0.0112 -0.3826  0.3797
  152SAPE   H5X16911   2.967   2.543   9.557  1.7666  2.9629 -0.7028
  152SAPE   H5Y16912   3.035   2.376   9.536 -1.1448 -0.2306  1.8849
  152SAPE   C3616913   3.128   2.515   9.408  0.0081  0.1471  0.2675
  152SAPE   H6X16914   3.212   2.442   9.407  1.0029  1.2525 -0.2289
  152SAPE   H6Y16915   3.174   2.616   9.404 -2.4845  1.3430 -2.4292
  152SAPE   C3716916   3.034   2.496   9.286 -0.1075  0.4837 -0.5177
  152SAPE   H7X16917   2.945   2.560   9.302  0.3152  1.2509 -1.1634
  152SAPE   H7Y16918   3.009   2.389   9.299 -0.3778  0.8433  3.1763
  152SAPE   C3816919   3.093   2.522   9.153 -0.3163  0.4659 -0.4376
  152SAPE   H8X16920   3.173   2.447   9.136  0.1118  1.3052 -2.3573
  152SAPE   H8Y16921   3.131   2.626   9.150  0.2564  0.2391 -1.1865
  152SAPE   C3916922   2.987   2.504   9.043 -0.9158 -0.4232 -0.3720
  152SAPE   H9X16923   2.897   2.568   9.053  0.0806  1.1278 -0.8620
  152SAPE   H9Y16924   2.944   2.402   9.044  1.1220 -1.5755 -4.5780
  152SAPE  C31016925   3.036   2.505   8.899 -0.2631 -0.1431 -0.5592
  152SAPE  H10X16926   3.122   2.436   8.887  0.4387  0.6817 -0.3999
  152SAPE  H10Y16927   3.074   2.600   8.858 -2.3333  0.5044 -1.1117
  152SAPE  C31116928   2.924   2.458   8.808 -0.5047 -0.3190 -0.6529
  152SAPE  H11X16929   2.855   2.394   8.866  0.2011 -0.5496 -0.0645
  152SAPE  H11Y16930   2.965   2.408   8.717 -0.3423  0.0522 -0.7828
  152SAPE  C31216931   2.846   2.582   8.755 -0.2930  0.0672 -0.7067
  152SAPE  H12X16932   2.911   2.639   8.686 -2.3156  1.4310 -1.5977
  152SAPE  H12Y16933   2.810   2.645   8.839  1.1016  0.2049 -0.1913
  152SAPE  C31316934   2.734   2.538   8.674 -0.4927  0.1306  0.0865
  152SAPE  H13X16935   2.665   2.475   8.734 -1.7097  1.5521  0.2622
  152SAPE  H13Y16936   2.773   2.482   8.587 -0.3839  2.7997 -1.6808
  152SAPE  C31416937   2.653   2.653   8.621  0.4218 -0.4421  0.2567
  152SAPE  H14X16938   2.705   2.709   8.540 -0.8262 -0.8040 -0.8251
  152SAPE  H14Y16939   2.642   2.730   8.700  0.2411  0.8588 -0.9792
  152SAPE  C31516940   2.522   2.603   8.559  0.0994  0.7520 -0.0866
  152SAPE  H15X16941   2.469   2.553   8.643  1.4601 -1.7227 -0.5763
  152SAPE  H15Y16942   2.545   2.521   8.488  0.3544 -0.0509  0.8936
  152SAPE  C31616943   2.426   2.698   8.485  0.1571  0.8218 -0.0015
  152SAPE  H16X16944   2.488   2.748   8.407 -0.1762 -1.4741 -1.8336
  152SAPE  H16Y16945   2.393   2.778   8.555 -0.1289  0.7392 -0.0423
  152SAPE  C31716946   2.310   2.622   8.423 -0.1218  0.2492  0.0485
  152SAPE  H17X16947   2.262   2.545   8.488 -0.0019 -0.9004 -1.1683
  152SAPE  H17Y16948   2.350   2.559   8.341  2.3091  0.5383  0.9363
  152SAPE  C31816949   2.203   2.711   8.362 -0.0965 -0.0336 -0.5498
  152SAPE  H18X16950   2.171   2.801   8.419 -2.0607 -1.3572  0.5606
  152SAPE  H18Y16951   2.112   2.653   8.333 -0.5394  0.1424  0.4386
  152SAPE  H18Z16952   2.249   2.757   8.272  1.1468  0.4743  0.3216
  153SAPE     N16953   1.800   2.896  10.456 -0.4803 -0.2502 -0.0435
  153SAPE   HN116954   1.856   2.830  10.397 -0.5464  0.9111 -1.4394
  153SAPE   HN216955   1.803   2.985  10.403 -0.6300 -0.2579 -0.0647
  153SAPE   HN316956   1.842   2.904  10.551 -0.3758 -2.4485  0.1501
  153SAPE   C1216957   1.655   2.872  10.473 -0.4369 -0.1943  0.4356
  153SAPE  H12A16958   1.629   2.767  10.501 -1.7123  0.5241  2.1627
  153SAPE  H12B16959   1.612   2.897  10.374  0.3505 -2.7843 -0.6548
  153SAPE   C1116960   1.584   2.963  10.574  0.1400 -0.3060 -0.1252
  153SAPE  H11A16961   1.630   2.948  10.674 -1.8205 -2.1403  0.5619
  153SAPE  H11B16962   1.478   2.930  10.582  0.0983  0.1025  1.4941
  153SAPE     P16963   1.498   3.207  10.575  0.0215 -0.1751 -0.1368
  153SAPE   O1316964   1.444   3.183  10.707  0.0754  0.0785  0.1330
  153SAPE   O1416965   1.576   3.326  10.550 -0.1543  0.0257 -0.0844
  153SAPE   O1216966   1.601   3.093  10.540 -0.7315 -0.8143 -0.4334
  153SAPE   O1116967   1.379   3.189  10.472  0.9345 -0.2417  0.4104
  153SAPE    C116968   1.416   3.167  10.338  0.3395  0.3396  0.4143
  153SAPE    HA16969   1.493   3.088  10.324 -2.2415 -1.9604 -1.9951
  153SAPE    HB16970   1.319   3.139  10.292 -0.0308  1.1506  0.6802
  153SAPE    C216971   1.458   3.298  10.263  0.1534 -0.0009  0.5465
  153SAPE    HS16972   1.552   3.325  10.314  2.5145 -2.9929 -1.8325
  153SAPE   O2116973   1.350   3.401  10.273  0.0112 -0.1440  0.5467
  153SAPE   C2116974   1.390   3.518  10.297  0.4204 -0.4940  0.0123
  153SAPE   O2216975   1.502   3.563  10.292 -0.3741 -0.5282  0.0608
  153SAPE   C2216976   1.265   3.604  10.330  0.5783  0.0717  0.1888
  153SAPE   H2R16977   1.187   3.592  10.252 -0.1665 -0.4337  0.9867
  153SAPE   H2S16978   1.218   3.564  10.422  0.4335  1.9434  0.9847
  153SAPE    C316979   1.485   3.283  10.109 -0.8064  0.0572  0.2521
  153SAPE    HX16980   1.387   3.264  10.060  0.3512  0.5583 -2.3741
  153SAPE    HY16981   1.551   3.195  10.098 -2.8175 -1.5122  0.0616
  153SAPE   O3116982   1.537   3.396  10.039 -0.3252 -0.1440 -0.3912
  153SAPE   C3116983   1.666   3.417  10.047  0.7848 -0.5792 -0.6010
  153SAPE   O3216984   1.746   3.347  10.105 -0.2586  0.0269 -0.3834
  153SAPE   C3216985   1.711   3.539   9.964 -0.9138 -0.2177 -0.1127
  153SAPE   H2X16986   1.811   3.554  10.010 -1.8411 -0.5652  2.1901
  153SAPE   H2Y16987   1.650   3.625   9.997  2.4481  1.3084  2.7584
  153SAPE   C2316988   1.291   3.759  10.339  0.0319 -0.7546 -0.4962
  153SAPE   H3R16989   1.369   3.780  10.415  0.0936 -1.8108 -0.2578
  153SAPE   H3S16990   1.202   3.811  10.379  0.9011 -0.0752  0.6215
  153SAPE   C2416991   1.329   3.829  10.198  0.6024 -0.3704 -0.8174
  153SAPE   H4R16992   1.437   3.807  10.188  0.4534 -0.4918 -2.3070
  153SAPE   H4S16993   1.317   3.937  10.224  0.5227 -0.4550 -0.4918
  153SAPE   C2516994   1.233   3.791  10.087 -1.3124 -0.1287 -0.2670
  153SAPE   H5R16995   1.129   3.813  10.115 -1.1543 -0.7859  0.9062
  153SAPE   C2616996   1.252   3.735   9.970 -0.4197  0.0941 -0.0078
  153SAPE   H6R16997   1.166   3.720   9.904 -1.2551  0.6316  0.9185
  153SAPE   C2716998   1.387   3.707   9.913  0.0198 -0.0517  0.7682
  153SAPE   H7R16999   1.440   3.633   9.979  1.1358  1.8145  2.0689
  153SAPE   H7S17000   1.445   3.802   9.918  2.3213 -1.2920 -0.5471
  153SAPE   C2817001   1.390   3.651   9.770  0.0457  0.7804  0.1340
  153SAPE   H8R17002   1.411   3.543   9.762  0.9229  0.8442  1.2323
  153SAPE   C2917003   1.377   3.729   9.660  0.0838  0.4316  0.2749
  153SAPE   H9R17004   1.394   3.680   9.563  2.6477 -0.3290  1.0362
  153SAPE  C21017005   1.352   3.880   9.659 -1.0070  1.4410 -0.5890
  153SAPE  H10R17006   1.412   3.923   9.576  0.8619 -1.7103 -1.0355
  153SAPE  H10S17007   1.404   3.923   9.747 -0.9680 -2.0470  1.2185
  153SAPE  C21117008   1.207   3.925   9.636 -0.4776 -0.4704 -0.2129
  153SAPE  H11R17009   1.148   3.901   9.726 -2.8867 -0.2808 -1.6440
  153SAPE  C21217010   1.141   3.983   9.533  0.6953 -0.1821  0.3475
  153SAPE  H12R17011   1.034   4.006   9.542 -0.1639 -3.0796 -1.0553
  153SAPE  C21317012   1.213   4.017   9.401  0.5151  0.0829 -0.2845
  153SAPE  H13R17013   1.291   4.094   9.417 -0.5736  1.5584 -1.6854
  153SAPE  H13S17014   1.131   4.061   9.340  0.6724  0.1683 -0.4362
  153SAPE  C21417015   1.283   3.913   9.317  0.1051  0.5910  0.0037
  153SAPE  H14R17016   1.353   3.853   9.377 -2.3031 -1.1889  1.1872
  153SAPE  C21517017   1.262   3.880   9.189  0.0536  0.4606  0.4278
  153SAPE  H15R17018   1.321   3.798   9.148 -0.0344 -0.2027  1.5835
  153SAPE  C21617019   1.172   3.947   9.092  0.1850  0.3267 -0.0967
  153SAPE  H16R17020   1.124   4.037   9.135 -1.5276 -1.9515  3.1586
  153SAPE  H16S17021   1.082   3.883   9.080  0.5062 -0.5572  1.8761
  153SAPE  C21717022   1.229   3.988   8.949 -0.4128  0.1166 -0.1573
  153SAPE  H17R17023   1.263   3.891   8.905  2.0291 -1.9521  5.3190
  153SAPE  H17S17024   1.318   4.054   8.957 -1.8579  2.1889 -0.5699
  153SAPE  C21817025   1.123   4.057   8.863  0.0516 -0.7231  0.0704
  153SAPE  H18R17026   1.092   4.156   8.903 -2.3926 -0.4287 -2.2756
  153SAPE  H18S17027   1.040   3.984   8.857 -0.6171  0.0990 -1.2304
  153SAPE  C21917028   1.165   4.073   8.710 -0.2966 -0.2513 -0.6610
  153SAPE  H19R17029   1.190   3.970   8.677 -1.8058  0.1965 -3.5254
  153SAPE  H19S17030   1.246   4.148   8.699 -2.7007  2.6808  0.1105
  153SAPE  C22017031   1.058   4.120   8.603  0.4747 -1.0844 -1.3282
  153SAPE  H20R17032   0.974   4.047   8.597  0.5050 -1.1625 -0.8440
  153SAPE  H20S17033   1.108   4.145   8.507  1.4747  0.0436 -0.5491
  153SAPE  H20T17034   1.010   4.216   8.633  1.0753 -0.6136 -1.8421
  153SAPE   C3317035   1.725   3.512   9.809  0.5250  0.9207 -0.2357
  153SAPE   H3X17036   1.619   3.487   9.786  0.3864 -1.4454  2.5192
  153SAPE   H3Y17037   1.781   3.420   9.785  1.6766  1.0259  1.8503
  153SAPE   C3417038   1.779   3.625   9.722 -0.1831 -0.4933  0.2273
  153SAPE   H4X17039   1.883   3.647   9.755 -0.0838 -0.5282 -0.0635
  153SAPE   H4Y17040   1.718   3.718   9.727 -0.5293 -0.3200 -3.9561
  153SAPE   C3517041   1.787   3.579   9.581 -0.0597  0.6478 -0.4159
  153SAPE   H5X17042   1.782   3.468   9.572 -0.3333  0.4843  1.4236
  153SAPE   H5Y17043   1.882   3.610   9.532 -0.5183 -0.0725 -1.8467
  153SAPE   C3617044   1.675   3.641   9.497 -0.1894 -0.0580 -0.8293
  153SAPE   H6X17045   1.660   3.748   9.524 -0.9897  0.0814 -1.7526
  153SAPE   H6Y17046   1.580   3.586   9.516  0.5730 -1.8806 -2.0160
  153SAPE   C3717047   1.705   3.624   9.353  0.1129  0.0100 -0.1008
  153SAPE   H7X17048   1.721   3.515   9.337  1.1510 -0.1490  1.7932
  153SAPE   H7Y17049   1.799   3.674   9.322 -0.3126  1.2959  0.6268
  153SAPE   C3817050   1.598   3.678   9.253 -0.3460 -0.1920  0.4882
  153SAPE   H8X17051   1.609   3.788   9.251  0.5325 -0.2737  0.3914
  153SAPE   H8Y17052   1.500   3.650   9.297 -0.9694 -2.6625 -2.1155
  153SAPE   C3917053   1.606   3.621   9.110 -0.4453 -0.4201  0.0967
  153SAPE   H9X17054   1.584   3.512   9.115 -0.7041 -0.4721 -1.4907
  153SAPE   H9Y17055   1.712   3.632   9.081 -1.1883 -0.6282 -3.0352
  153SAPE  C31017056   1.534   3.703   9.003  0.3959  0.8676 -0.7735
  153SAPE  H10X17057   1.552   3.811   9.022 -0.2876  0.6665  1.3826
  153SAPE  H10Y17058   1.423   3.705   9.007  0.3976  1.3739 -0.8242
  153SAPE  C31117059   1.582   3.675   8.860 -0.2451  0.4162  0.1736
  153SAPE  H11X17060   1.692   3.690   8.862  0.0298 -1.3125 -0.1830
  153SAPE  H11Y17061   1.527   3.746   8.793 -1.1956  0.3457  0.8498
  153SAPE  C31217062   1.543   3.534   8.806 -0.1762 -0.3821 -0.6143
  153SAPE  H12X17063   1.432   3.524   8.801 -0.1937 -0.4322 -0.1090
  153SAPE  H12Y17064   1.581   3.453   8.871 -0.7164  0.1627  0.4039
  153SAPE  C31317065   1.605   3.507   8.667 -0.0483 -0.0516  0.0288
  153SAPE  H13X17066   1.559   3.583   8.601 -0.5342 -2.0245 -2.0297
  153SAPE  H13Y17067   1.571   3.406   8.635  0.3930 -0.4337  0.7399
  153SAPE  C31417068   1.753   3.507   8.646  0.5079 -0.4889 -0.4327
  153SAPE  H14X17069   1.796   3.444   8.727 -0.3022  0.0023  0.3959
  153SAPE  H14Y17070   1.800   3.606   8.665  1.3608 -0.6944 -1.3888
  153SAPE  C31517071   1.803   3.454   8.510  0.4206 -0.5595 -0.5685
  153SAPE  H15X17072   1.913   3.473   8.511  0.7287 -2.1785 -0.3623
  153SAPE  H15Y17073   1.753   3.509   8.428  0.3492  0.8377  0.3734
  153SAPE  C31617074   1.797   3.297   8.509  0.5447  0.1475 -0.3720
  153SAPE  H16X17075   1.694   3.259   8.525  0.8650 -1.8006 -2.3953
  153SAPE  H16Y17076   1.867   3.250   8.580  1.5223 -0.2347 -1.5568
  153SAPE  C31717077   1.839   3.239   8.374 -0.4211 -0.0953  0.3358
  153SAPE  H17X17078   1.843   3.128   8.380 -2.0350 -0.1159  1.7806
  153SAPE  H17Y17079   1.936   3.281   8.340  0.2998 -1.2326  0.9309
  153SAPE  C31817080   1.738   3.272   8.253  0.5612 -0.2431  0.0534
  153SAPE  H18X17081   1.735   3.382   8.236  1.6311 -0.2254 -0.0848
  153SAPE  H18Y17082   1.639   3.222   8.260  0.6510 -0.4206  0.0526
  153SAPE  H18Z17083   1.797   3.242   8.163  0.5908  1.3527 -0.4886
  154SAPE     N17084   2.656   2.963  10.438 -0.2246  0.2616  0.2004
  154SAPE   HN117085   2.618   3.005  10.351  2.6875  1.9687 -0.3539
  154SAPE   HN217086   2.753   2.997  10.451 -0.4278  0.0261  3.2207
  154SAPE   HN317087   2.667   2.860  10.431 -0.3856  0.1769  1.0115
  154SAPE   C1217088   2.594   3.009  10.564 -0.1363 -0.2061  0.8173
  154SAPE  H12A17089   2.641   2.958  10.651  0.7667  0.8514  0.9728
  154SAPE  H12B17090   2.491   2.968  10.570 -0.1382 -0.3266  0.0505
  154SAPE   C1117091   2.602   3.161  10.578  0.0119  0.3336 -0.3427
  154SAPE  H11A17092   2.527   3.188  10.656 -1.0709  0.6164 -1.4466
  154SAPE  H11B17093   2.567   3.209  10.484  1.2273  1.6241 -0.1666
  154SAPE     P17094   2.848   3.244  10.514 -0.0358 -0.1417  0.2759
  154SAPE   O1317095   2.957   3.324  10.571 -0.5702 -0.1929 -0.0133
  154SAPE   O1417096   2.894   3.112  10.450 -0.6300 -0.2246 -0.0629
  154SAPE   O1217097   2.736   3.209  10.626 -0.0820  0.4144  0.1163
  154SAPE   O1117098   2.761   3.338  10.411 -0.0164  0.2187 -0.0615
  154SAPE    C117099   2.719   3.465  10.449 -0.8952  0.2465 -0.3544
  154SAPE    HA17100   2.660   3.458  10.543 -0.8296 -1.6694 -0.4256
  154SAPE    HB17101   2.810   3.524  10.476 -1.1551  0.4114  0.1805
  154SAPE    C217102   2.628   3.528  10.343  0.2334 -0.1877  0.6281
  154SAPE    HS17103   2.534   3.474  10.322  0.3393 -0.3360  0.5316
  154SAPE   O2117104   2.710   3.525  10.217 -0.2672 -0.7033 -0.6066
  154SAPE   C2117105   2.699   3.419  10.140  0.2269 -0.2725 -0.6396
  154SAPE   O2217106   2.622   3.323  10.159  0.1405  0.1903  0.0175
  154SAPE   C2217107   2.800   3.429  10.027  0.6387  0.2639  0.1610
  154SAPE   H2R17108   2.807   3.533   9.989 -2.3933  0.6576  0.4526
  154SAPE   H2S17109   2.899   3.390  10.059  0.7052  0.5971  0.3657
  154SAPE    C317110   2.583   3.683  10.376 -0.0433 -0.3416 -0.5944
  154SAPE    HX17111   2.673   3.742  10.402  0.5291 -0.6551 -1.7597
  154SAPE    HY17112   2.536   3.681  10.476 -1.4607 -0.2026 -1.2297
  154SAPE   O3117113   2.507   3.754  10.277 -0.1966 -0.5488 -0.0014
  154SAPE   C3117114   2.376   3.739  10.299  0.3420 -0.1064 -0.8079
  154SAPE   O3217115   2.325   3.645  10.363  0.4055  0.0337 -0.1522
  154SAPE   C3217116   2.302   3.866  10.246  0.3851 -0.5083 -0.7539
  154SAPE   H2X17117   2.334   3.951  10.310  1.0296 -1.5158  0.2801
  154SAPE   H2Y17118   2.195   3.856  10.273  0.8366  1.0679  2.0188
  154SAPE   C2317119   2.753   3.336   9.906 -0.0791  0.0876 -0.5963
  154SAPE   H3R17120   2.749   3.227   9.928 -0.3324  0.4167  1.1057
  154SAPE   H3S17121   2.809   3.345   9.811 -1.8488  0.9003 -1.6084
  154SAPE   C2417122   2.615   3.372   9.836  0.4750  0.3409 -0.4120
  154SAPE   H4R17123   2.529   3.375   9.906  1.0531 -0.7153  0.3598
  154SAPE   H4S17124   2.585   3.294   9.764 -0.5024  0.1341  0.2029
  154SAPE   C2517125   2.615   3.505   9.769  0.0449  0.0165 -0.3206
  154SAPE   H5R17126   2.672   3.582   9.823  2.0903 -1.4850 -0.2001
  154SAPE   C2617127   2.588   3.534   9.640 -0.0388 -0.5933 -0.0583
  154SAPE   H6R17128   2.587   3.640   9.609  1.2211  0.5099  3.2539
  154SAPE   C2717129   2.536   3.441   9.536 -0.4393 -1.1428  0.1323
  154SAPE   H7R17130   2.448   3.385   9.573  0.4962 -1.9498  1.2257
  154SAPE   H7S17131   2.601   3.352   9.523  1.4045  0.1575  0.0020
  154SAPE   C2817132   2.490   3.496   9.399 -0.5086  0.2569  0.8326
  154SAPE   H8R17133   2.551   3.577   9.356  0.4917 -1.2478 -0.6782
  154SAPE   C2917134   2.390   3.450   9.328  0.5143  0.1155 -0.2899
  154SAPE   H9R17135   2.376   3.481   9.223  1.4286 -3.6573 -1.6973
  154SAPE  C21017136   2.306   3.336   9.367  0.1335 -0.2135  0.1015
  154SAPE  H10R17137   2.351   3.266   9.441  0.1269  0.9425  1.2381
  154SAPE  H10S17138   2.280   3.273   9.280 -0.0434  0.6670 -0.4998
  154SAPE  C21117139   2.176   3.392   9.422 -0.2401 -0.1848  0.7388
  154SAPE  H11R17140   2.178   3.412   9.530 -1.8784  1.2536  0.5418
  154SAPE  C21217141   2.058   3.399   9.361  0.1485 -0.0318  0.4898
  154SAPE  H12R17142   1.970   3.444   9.408 -0.6512 -2.1354  1.0999
  154SAPE  C21317143   2.024   3.363   9.215  0.5291  0.4946  0.0502
  154SAPE  H13R17144   2.115   3.322   9.167  0.4342 -1.4405  1.3826
  154SAPE  H13S17145   1.992   3.456   9.164  0.2572  0.3311 -0.0733
  154SAPE  C21417146   1.916   3.261   9.220  0.0034  0.1951  0.2058
  154SAPE  H14R17147   1.836   3.279   9.294  1.2235 -0.8777  1.8729
  154SAPE  C21517148   1.905   3.159   9.133  0.3268  0.0572 -0.3303
  154SAPE  H15R17149   1.823   3.086   9.148  0.1414  0.6281  1.6553
  154SAPE  C21617150   1.990   3.122   9.015 -0.4751  0.2815 -0.6201
  154SAPE  H16R17151   2.061   3.050   9.061  0.3765  1.3111 -0.2750
  154SAPE  H16S17152   2.047   3.209   8.976 -0.1753  0.4697  0.2005
  154SAPE  C21717153   1.902   3.079   8.903  0.8511  0.7878  0.3999
  154SAPE  H17R17154   1.829   3.157   8.873 -2.6837 -2.6539 -0.9017
  154SAPE  H17S17155   1.834   3.001   8.944  0.8300  0.7794  0.3488
  154SAPE  C21817156   1.976   3.017   8.787 -0.2257 -0.3604  0.0824
  154SAPE  H18R17157   2.081   2.982   8.800  0.7326  1.6829 -1.5506
  154SAPE  H18S17158   1.975   3.101   8.714 -1.3332  1.7791  2.3949
  154SAPE  C21917159   1.882   2.910   8.727 -1.1361 -0.2490 -0.5904
  154SAPE  H19R17160   1.778   2.946   8.714 -1.6561 -0.8533  1.5883
  154SAPE  H19S17161   1.870   2.828   8.801 -1.7698  0.5103  0.1705
  154SAPE  C22017162   1.944   2.841   8.605  0.4344 -0.7114 -0.2180
  154SAPE  H20R17163   2.034   2.783   8.637  2.3562  2.5320  0.7402
  154SAPE  H20S17164   1.971   2.916   8.527  0.1734  0.0618  0.4246
  154SAPE  H20T17165   1.871   2.770   8.560  1.1332  0.0051 -2.6605
  154SAPE   C3317166   2.335   3.896  10.096  0.8961  0.3202 -0.2481
  154SAPE   H3X17167   2.437   3.936  10.078 -0.1556  2.3836 -2.1197
  154SAPE   H3Y17168   2.265   3.978  10.069  0.9860 -0.3958 -2.9301
  154SAPE   C3417169   2.305   3.776  10.007  0.9832 -0.0108 -0.6249
  154SAPE   H4X17170   2.211   3.723  10.035  0.3698  0.8075 -1.0974
  154SAPE   H4Y17171   2.387   3.701  10.010  1.6437  0.6958 -0.4576
  154SAPE   C3517172   2.278   3.806   9.863 -0.4646  0.7170  0.1972
  154SAPE   H5X17173   2.384   3.824   9.835 -0.1677  0.8250  1.3355
  154SAPE   H5Y17174   2.212   3.896   9.855 -0.3910  0.7981  0.4872
  154SAPE   C3617175   2.232   3.690   9.774  0.5469  0.4698  0.2880
  154SAPE   H6X17176   2.121   3.688   9.769  0.5844 -1.0735 -1.0980
  154SAPE   H6Y17177   2.276   3.591   9.801  0.2544  0.5620  1.1251
  154SAPE   C3717178   2.277   3.700   9.624 -0.0449  0.5360 -0.2594
  154SAPE   H7X17179   2.236   3.608   9.577  0.0758  0.0115  0.6298
  154SAPE   H7Y17180   2.388   3.707   9.615 -0.0786  1.5819  0.0367
  154SAPE   C3817181   2.226   3.823   9.552  0.0740  0.1845  0.7481
  154SAPE   H8X17182   2.275   3.916   9.586  0.0318  0.0532  1.1749
  154SAPE   H8Y17183   2.116   3.827   9.569  0.2868 -1.4794  2.8589
  154SAPE   C3917184   2.226   3.811   9.396  0.0067 -0.4094 -0.1006
  154SAPE   H9X17185   2.199   3.708   9.363 -2.2309  0.3878 -0.9426
  154SAPE   H9Y17186   2.329   3.815   9.352 -0.6575  1.0964 -1.6402
  154SAPE  C31017187   2.157   3.920   9.320  0.3218 -0.5864  0.4903
  154SAPE  H10X17188   2.188   4.021   9.355  2.0962 -0.1701 -2.0015
  154SAPE  H10Y17189   2.046   3.915   9.329  0.2060 -1.5660 -1.1080
  154SAPE  C31117190   2.182   3.909   9.172 -0.0231  0.2893 -0.4188
  154SAPE  H11X17191   2.290   3.903   9.150 -0.5221  1.0400 -3.7354
  154SAPE  H11Y17192   2.150   4.005   9.124  0.6013  0.5218 -0.3685
  154SAPE  C31217193   2.101   3.798   9.109 -0.0955 -0.0641 -0.5414
  154SAPE  H12X17194   1.990   3.809   9.117 -0.1083  1.7412 -2.3243
  154SAPE  H12Y17195   2.129   3.703   9.159  0.6733  0.8893  0.9009
  154SAPE  C31317196   2.148   3.776   8.967 -0.0602  0.2844  0.9720
  154SAPE  H13X17197   2.102   3.682   8.932  3.9527 -2.5068  2.4388
  154SAPE  H13Y17198   2.257   3.751   8.966 -0.2213 -0.4351  1.0032
  154SAPE  C31417199   2.111   3.882   8.866  0.1670 -0.1786  0.0579
  154SAPE  H14X17200   2.130   3.839   8.765 -0.1444  1.3675 -0.6913
  154SAPE  H14Y17201   2.179   3.967   8.884 -0.8674  0.3032  1.9385
  154SAPE  C31517202   1.971   3.950   8.868 -0.3765 -0.0177 -0.2151
  154SAPE  H15X17203   1.959   3.990   8.971 -0.1238  1.4471 -0.7239
  154SAPE  H15Y17204   1.893   3.871   8.862 -0.0872 -0.3602  0.4934
  154SAPE  C31617205   1.952   4.057   8.762  0.8438  0.1205 -0.5146
  154SAPE  H16X17206   1.974   4.019   8.660 -0.9330  0.2605 -0.9912
  154SAPE  H16Y17207   2.021   4.142   8.778  0.7548 -0.2404  2.3990
  154SAPE  C31717208   1.802   4.117   8.753 -0.4482  0.1180 -1.1105
  154SAPE  H17X17209   1.812   4.198   8.678 -0.3826  2.5397  1.3300
  154SAPE  H17Y17210   1.784   4.170   8.849  2.2061 -0.1399 -0.3947
  154SAPE  C31817211   1.691   4.021   8.714 -0.1655 -0.5122 -0.1240
  154SAPE  H18X17212   1.677   3.945   8.794  0.1304  1.4718  1.8773
  154SAPE  H18Y17213   1.722   3.966   8.622 -1.1234 -0.8131 -0.2753
  154SAPE  H18Z17214   1.596   4.075   8.696  0.0693 -0.4842 -1.4079
  155SAPE     N17215   3.226   3.161  10.723 -0.3788  0.2209  0.2698
  155SAPE   HN117216   3.193   3.138  10.627 -0.4238  0.4544  0.2272
  155SAPE   HN217217   3.140   3.183  10.778 -0.7941 -1.2213  0.2506
  155SAPE   HN317218   3.278   3.250  10.711  1.0472 -0.7963 -1.5915
  155SAPE   C1217219   3.310   3.060  10.798 -0.0166 -0.3399 -0.2183
  155SAPE  H12A17220   3.264   2.959  10.797  0.6138 -0.6463  0.4380
  155SAPE  H12B17221   3.338   3.099  10.898  0.9142 -1.8186  0.1235
  155SAPE   C1117222   3.445   3.028  10.722  0.3887  0.3806  0.2459
  155SAPE  H11A17223   3.416   2.979  10.626 -0.3602 -0.1735  0.7459
  155SAPE  H11B17224   3.494   2.941  10.771  1.7069  0.1719 -1.3224
  155SAPE     P17225   3.657   3.119  10.612  0.1006 -0.1997 -0.1904
  155SAPE   O1317226   3.721   3.248  10.590  0.5122 -0.1406 -0.2636
  155SAPE   O1417227   3.749   3.019  10.673  0.2536 -0.7865  0.1258
  155SAPE   O1217228   3.529   3.137  10.704  0.5189 -0.4921 -0.2260
  155SAPE   O1117229   3.594   3.066  10.475 -0.9421 -1.0401 -0.3798
  155SAPE    C117230   3.498   3.152  10.405 -0.1783  0.5397  0.1113
  155SAPE    HA17231   3.424   3.084  10.357  0.6391  0.2884 -0.8189
  155SAPE    HB17232   3.432   3.206  10.476 -0.5534  0.6044 -0.2809
  155SAPE    C217233   3.558   3.236  10.285 -0.0177 -0.7877  0.6384
  155SAPE    HS17234   3.610   3.328  10.321  0.6803 -1.0590  0.3324
  155SAPE   O2117235   3.457   3.267  10.186  0.1962 -0.8255  0.9879
  155SAPE   C2117236   3.354   3.345  10.220  0.1956  0.5210 -0.7760
  155SAPE   O2217237   3.337   3.384  10.335 -0.6287 -0.2251  0.0769
  155SAPE   C2217238   3.260   3.371  10.101 -0.7772  0.1081 -0.1727
  155SAPE   H2R17239   3.204   3.276  10.088  1.0999 -1.0567 -0.0791
  155SAPE   H2S17240   3.195   3.459  10.120 -1.1172  0.2163 -1.7263
  155SAPE    C317241   3.672   3.158  10.218 -0.2508 -0.0619 -0.4334
  155SAPE    HX17242   3.650   3.052  10.195 -2.7951  0.2024  0.4181
  155SAPE    HY17243   3.754   3.147  10.291 -2.2342 -1.5507  1.7238
  155SAPE   O3117244   3.711   3.217  10.089 -0.2140 -0.0901 -0.2902
  155SAPE   C3117245   3.646   3.177   9.975 -0.7276 -0.3327 -0.2541
  155SAPE   O3217246   3.570   3.083   9.966 -0.1489 -0.1728 -0.6771
  155SAPE   C3217247   3.701   3.263   9.857 -0.0882 -0.6323 -0.3679
  155SAPE   H2X17248   3.810   3.247   9.851 -0.2367 -1.9870  0.2043
  155SAPE   H2Y17249   3.692   3.373   9.873  0.0652 -1.0342  3.4523
  155SAPE   C2317250   3.340   3.393   9.972 -0.3872 -0.4532  0.2415
  155SAPE   H3R17251   3.393   3.298   9.949 -0.5358 -0.5655  0.3523
  155SAPE   H3S17252   3.419   3.467   9.996 -1.2180  0.1813  1.1336
  155SAPE   C2417253   3.262   3.449   9.855  0.7640 -0.3602  0.4273
  155SAPE   H4R17254   3.180   3.379   9.829 -1.8484  2.3523  0.9339
  155SAPE   H4S17255   3.323   3.442   9.762  0.5554  1.0687  0.1560
  155SAPE   C2517256   3.197   3.586   9.869 -0.2306  0.0535  0.4454
  155SAPE   H5R17257   3.241   3.640   9.954  2.2810  2.2386 -2.0361
  155SAPE   C2617258   3.123   3.658   9.789 -0.7965  0.5036 -0.5610
  155SAPE   H6R17259   3.098   3.762   9.817  0.5842  1.1108 -1.4857
  155SAPE   C2717260   3.073   3.625   9.649  0.9895  0.9309  0.1366
  155SAPE   H7R17261   3.068   3.726   9.603 -0.3838  0.3011 -1.1766
  155SAPE   H7S17262   2.966   3.603   9.671  0.7739  3.8920  2.6806
  155SAPE   C2817263   3.143   3.532   9.553  0.7659 -0.8123  0.2676
  155SAPE   H8R17264   3.253   3.541   9.557  0.6767  0.7427  0.1153
  155SAPE   C2917265   3.087   3.457   9.461  0.1271 -0.0958 -0.1845
  155SAPE   H9R17266   3.151   3.389   9.403  0.0140 -0.3575 -0.0049
  155SAPE  C21017267   2.936   3.469   9.445 -0.4328  0.0656 -0.2714
  155SAPE  H10R17268   2.895   3.572   9.454  0.9970  0.8253 -1.9565
  155SAPE  H10S17269   2.890   3.408   9.526 -2.5428  1.7571 -0.0760
  155SAPE  C21117270   2.906   3.408   9.314  0.1728  0.0327 -0.2614
  155SAPE  H11R17271   2.858   3.310   9.328  0.7525 -0.1216  0.7873
  155SAPE  C21217272   2.898   3.465   9.193  0.8779 -0.1393 -0.6106
  155SAPE  H12R17273   2.878   3.402   9.105  0.0574 -0.7669  0.0134
  155SAPE  C21317274   2.920   3.611   9.156 -0.1763  0.3366  0.5490
  155SAPE  H13R17275   2.886   3.673   9.241 -0.1284  1.1780 -0.0315
  155SAPE  H13S17276   2.840   3.634   9.082  0.9067 -1.7778 -1.3989
  155SAPE  C21417277   3.066   3.638   9.123 -0.1232 -0.5685  0.1069
  155SAPE  H14R17278   3.136   3.602   9.200 -0.8590  0.8120  1.4623
  155SAPE  C21517279   3.107   3.683   9.003  0.2694  0.9796 -0.5693
  155SAPE  H15R17280   3.215   3.687   8.983  0.4641 -0.7276 -0.0140
  155SAPE  C21617281   3.021   3.708   8.879 -0.3996 -0.8498 -0.6398
  155SAPE  H16R17282   3.061   3.803   8.839 -1.2482 -0.5477 -0.7919
  155SAPE  H16S17283   2.913   3.723   8.900  0.1788  3.3677  0.1329
  155SAPE  C21717284   3.029   3.590   8.784 -0.4473 -0.6430 -0.0740
  155SAPE  H17R17285   3.002   3.496   8.838  2.9314 -1.5500  0.2636
  155SAPE  H17S17286   3.133   3.567   8.753 -0.4617 -2.6210  1.1432
  155SAPE  C21817287   2.937   3.611   8.660 -0.7276 -0.5691 -0.9267
  155SAPE  H18R17288   2.835   3.622   8.702 -0.7523 -2.9694 -0.1672
  155SAPE  H18S17289   2.946   3.517   8.602  1.8951  0.1416 -1.8323
  155SAPE  C21917290   2.972   3.729   8.571 -0.3936  0.2970  0.0907
  155SAPE  H19R17291   3.063   3.707   8.511  1.5799  2.6341  2.0485
  155SAPE  H19S17292   2.991   3.816   8.637  2.4079 -1.0911  1.2662
  155SAPE  C22017293   2.866   3.770   8.474  0.2738  0.7827 -0.2927
  155SAPE  H20R17294   2.791   3.834   8.525  2.7335  2.1490  1.8655
  155SAPE  H20S17295   2.816   3.680   8.434  2.1381  0.7652 -2.8324
  155SAPE  H20T17296   2.909   3.823   8.386 -0.7739 -0.5546 -1.6581
  155SAPE   C3317297   3.633   3.217   9.724  1.0547 -0.4465  0.4408
  155SAPE   H3X17298   3.523   3.212   9.732  0.9393 -2.9545 -1.5487
  155SAPE   H3Y17299   3.655   3.113   9.690 -0.7358 -0.9052  0.5928
  155SAPE   C3417300   3.672   3.304   9.598 -0.1032 -0.2779 -0.8819
  155SAPE   H4X17301   3.783   3.304   9.601 -0.0844  1.7117 -0.0639
  155SAPE   H4Y17302   3.635   3.408   9.616 -0.1396 -0.4514  0.0550
  155SAPE   C3517303   3.619   3.238   9.463 -0.6391 -0.1851 -0.3137
  155SAPE   H5X17304   3.651   3.131   9.457  1.1982  0.3119 -0.1041
  155SAPE   H5Y17305   3.659   3.297   9.378 -2.9819 -0.5517 -1.7510
  155SAPE   C3617306   3.460   3.247   9.464 -0.5378 -1.2882  0.9391
  155SAPE   H6X17307   3.430   3.325   9.536  4.1381  0.3884  1.3935
  155SAPE   H6Y17308   3.420   3.146   9.488  0.7148 -1.5822  1.8757
  155SAPE   C3717309   3.413   3.268   9.317  0.3030 -0.1317 -0.0954
  155SAPE   H7X17310   3.454   3.362   9.275  1.8170 -0.3728  0.7513
  155SAPE   H7Y17311   3.302   3.268   9.318  0.3023  0.7019 -0.0898
  155SAPE   C3817312   3.457   3.161   9.209  0.0909 -0.3734  1.0964
  155SAPE   H8X17313   3.418   3.060   9.234 -0.8988  0.1808  1.8703
  155SAPE   H8Y17314   3.567   3.167   9.198  0.1420 -1.8761  0.5421
  155SAPE   C3917315   3.397   3.206   9.071  0.7054  0.0020  0.1587
  155SAPE   H9X17316   3.287   3.194   9.068  0.6264  0.7219 -0.0843
  155SAPE   H9Y17317   3.444   3.146   8.990  0.5280 -2.3006  1.6685
  155SAPE  C31017318   3.429   3.351   9.026  0.3032  0.9991  0.4232
  155SAPE  H10X17319   3.537   3.374   9.031  0.7885 -0.7336 -0.9703
  155SAPE  H10Y17320   3.371   3.426   9.083  1.3946  1.6003  0.7658
  155SAPE  C31117321   3.399   3.378   8.883 -0.4758 -0.2369 -0.2438
  155SAPE  H11X17322   3.431   3.484   8.868 -0.1341 -0.1828  0.8029
  155SAPE  H11Y17323   3.290   3.368   8.866 -0.5341 -1.3694  0.6671
  155SAPE  C31217324   3.489   3.310   8.781 -0.6768 -0.2052  0.2130
  155SAPE  H12X17325   3.476   3.200   8.785 -1.2614 -0.1933 -1.0255
  155SAPE  H12Y17326   3.596   3.336   8.795 -0.6986  2.1284 -2.8842
  155SAPE  C31317327   3.459   3.352   8.641  0.6382 -0.7039  0.1146
  155SAPE  H13X17328   3.486   3.458   8.619 -0.8000 -0.3284  0.0184
  155SAPE  H13Y17329   3.348   3.343   8.639  0.5658 -0.3999  1.4681
  155SAPE  C31417330   3.512   3.268   8.525 -0.8021  0.4164  1.0659
  155SAPE  H14X17331   3.493   3.160   8.544  0.1324  0.0116 -0.1601
  155SAPE  H14Y17332   3.621   3.282   8.512 -0.9543  1.3576  0.6932
  155SAPE  C31517333   3.457   3.286   8.384  0.2197  0.8766 -0.0852
  155SAPE  H15X17334   3.482   3.388   8.349  0.9447 -0.1289 -2.7911
  155SAPE  H15Y17335   3.346   3.285   8.387  0.1843  2.9104  0.1274
  155SAPE  C31617336   3.515   3.190   8.283  0.0102  0.2218 -0.6689
  155SAPE  H16X17337   3.467   3.092   8.306  0.4679  0.2183  0.3105
  155SAPE  H16Y17338   3.625   3.182   8.299  0.0114  1.1655 -0.1652
  155SAPE  C31717339   3.507   3.235   8.136  0.0657 -0.0911  0.3651
  155SAPE  H17X17340   3.569   3.327   8.133  0.1358 -0.1701 -0.9297
  155SAPE  H17Y17341   3.403   3.266   8.114 -0.4827 -2.2257 -0.3432
  155SAPE  C31817342   3.556   3.131   8.039 -0.8490  0.1148 -0.4891
  155SAPE  H18X17343   3.585   3.179   7.943  0.5428  1.1283  0.3846
  155SAPE  H18Y17344   3.484   3.049   8.022 -2.4178  1.2238  0.5333
  155SAPE  H18Z17345   3.652   3.102   8.088 -0.1786  1.6697 -0.8022
  156SAPE     N17346   0.035   1.735  10.710 -0.2260  0.0442  0.1145
  156SAPE   HN117347   0.012   1.660  10.778 -0.8859  0.9455  0.9109
  156SAPE   HN217348   0.125   1.713  10.663  0.2645  1.5692  0.2736
  156SAPE   HN317349   0.046   1.824  10.763  0.2538  0.3892 -0.5443
  156SAPE   C1217350  -0.069   1.775  10.597 -0.0513  0.1387 -0.0447
  156SAPE  H12A17351  -0.158   1.805  10.657 -2.1654 -2.6081 -1.5215
  156SAPE  H12B17352  -0.077   1.687  10.530  2.0176  1.4199 -2.1244
  156SAPE   C1117353  -0.018   1.891  10.515 -0.3176 -0.7194  0.1525
  156SAPE  H11A17354  -0.081   1.896  10.424  1.0741 -2.1205 -0.9151
  156SAPE  H11B17355   0.080   1.861  10.474  0.1622 -0.9682  1.4358
  156SAPE     P17356   0.095   2.119  10.534 -0.1162 -0.0159  0.1850
  156SAPE   O1317357   0.066   2.246  10.605  0.8387  0.4498  0.4351
  156SAPE   O1417358   0.230   2.064  10.553 -0.2513 -0.4683 -0.6007
  156SAPE   O1217359  -0.018   2.019  10.582 -0.3544 -0.1286  0.2369
  156SAPE   O1117360   0.070   2.145  10.384 -0.2820  0.0593  0.5583
  156SAPE    C117361  -0.054   2.202  10.349 -0.2656 -0.5843 -0.4946
  156SAPE    HA17362  -0.131   2.122  10.347  0.5087 -1.3507 -0.1408
  156SAPE    HB17363  -0.089   2.289  10.409 -0.5485  0.7395 -2.4807
  156SAPE    C217364  -0.059   2.281  10.215 -1.0006  0.1021 -0.2004
  156SAPE    HS17365  -0.008   2.378  10.231  2.0299 -1.4740  0.7143
  156SAPE   O2117366  -0.201   2.289  10.184 -0.0301  0.0599 -0.0420
  156SAPE   C2117367  -0.242   2.404  10.153  0.2396 -0.5698 -0.7110
  156SAPE   O2217368  -0.189   2.513  10.166 -0.8955 -0.0813 -0.7506
  156SAPE   C2217369  -0.384   2.412  10.099 -0.0822  0.4827  0.1247
  156SAPE   H2R17370  -0.462   2.397  10.177 -1.7350  0.9377 -1.3881
  156SAPE   H2S17371  -0.409   2.508  10.050  0.6391 -1.1977 -3.8909
  156SAPE    C317372   0.010   2.200  10.104  0.0175  0.0020 -0.0539
  156SAPE    HX17373  -0.029   2.096  10.103 -3.1940  0.9817  3.2325
  156SAPE    HY17374   0.116   2.208  10.137 -0.1887  0.4728  0.5161
  156SAPE   O3117375  -0.010   2.287   9.989 -0.6041  0.4245  0.2446
  156SAPE   C3117376   0.059   2.243   9.884  0.5036  0.0645 -0.5575
  156SAPE   O3217377   0.142   2.151   9.892  0.2183  0.0700 -0.2466
  156SAPE   C3217378   0.041   2.335   9.758  0.5194 -0.1694 -0.2658
  156SAPE   H2X17379   0.109   2.423   9.766 -1.3739  1.2061  2.7215
  156SAPE   H2Y17380  -0.067   2.364   9.758  0.3119 -0.8697  1.2183
  156SAPE   C2317381  -0.387   2.315   9.980  0.0901  0.3563 -0.0011
  156SAPE   H3R17382  -0.497   2.306   9.973  0.1624  0.5298 -1.9210
  156SAPE   H3S17383  -0.342   2.221  10.019  2.3740  1.4593  0.1846
  156SAPE   C2417384  -0.329   2.369   9.855  0.3438 -0.1904  0.8014
  156SAPE   H4R17385  -0.322   2.279   9.791 -0.2470 -0.2853  0.8656
  156SAPE   H4S17386  -0.224   2.405   9.865  0.4072 -0.5114  1.3521
  156SAPE   C2517387  -0.419   2.471   9.781 -0.1496  0.6070 -0.2248
  156SAPE   H5R17388  -0.512   2.426   9.743  1.1968 -2.7114  0.0227
  156SAPE   C2617389  -0.391   2.600   9.754 -0.0477  0.1080  0.4262
  156SAPE   H6R17390  -0.467   2.656   9.698  0.3032 -0.5327 -0.7305
  156SAPE   C2717391  -0.262   2.676   9.773  0.0580 -0.2312  0.5077
  156SAPE   H7R17392  -0.240   2.736   9.683  1.6181  2.2732  2.4314
  156SAPE   H7S17393  -0.181   2.600   9.774  0.8695  0.5527 -1.4485
  156SAPE   C2817394  -0.254   2.759   9.897 -0.3561 -0.4619  0.1295
  156SAPE   H8R17395  -0.265   2.709   9.994  0.1950 -0.6469  0.0963
  156SAPE   C2917396  -0.214   2.889   9.902  0.3451 -0.4411 -0.6045
  156SAPE   H9R17397  -0.200   2.938  10.000  0.3036  1.1847 -1.3718
  156SAPE  C21017398  -0.179   2.976   9.781  0.5118 -0.0141  0.2579
  156SAPE  H10R17399  -0.184   3.083   9.810 -1.1044  0.0530 -0.1587
  156SAPE  H10S17400  -0.258   2.958   9.705 -0.1622 -2.7141  1.4649
  156SAPE  C21117401  -0.049   2.941   9.716  0.3224 -0.1908 -0.5293
  156SAPE  H11R17402   0.023   2.903   9.789 -1.2018 -3.0227 -0.3256
  156SAPE  C21217403  -0.016   2.977   9.601  0.1999 -0.5896 -0.3022
  156SAPE  H12R17404   0.089   2.971   9.571 -0.0062  2.0215 -1.8668
  156SAPE  C21317405  -0.104   3.044   9.496  0.3497  0.2222 -0.1968
  156SAPE  H13R17406  -0.040   3.106   9.430  0.7263  0.2860  0.2271
  156SAPE  H13S17407  -0.173   3.109   9.553  0.7796 -1.4149  2.3445
  156SAPE  C21417408  -0.190   2.948   9.415 -0.7169 -0.3137 -0.4502
  156SAPE  H14R17409  -0.216   2.852   9.462 -0.1978 -0.6074 -0.7446
  156SAPE  C21517410  -0.238   2.960   9.294 -0.8760  0.3297  0.6080
  156SAPE  H15R17411  -0.276   2.868   9.249  1.9925 -0.7303  0.1482
  156SAPE  C21617412  -0.222   3.069   9.191  0.0361  0.1873  0.5250
  156SAPE  H16R17413  -0.201   3.168   9.236  0.6574  0.5342 -0.5007
  156SAPE  H16S17414  -0.311   3.080   9.126  1.8498  1.6239 -1.8401
  156SAPE  C21717415  -0.094   3.042   9.098  0.2158  0.4296 -1.2291
  156SAPE  H17R17416  -0.098   2.936   9.064 -3.9278  0.3632 -1.0733
  156SAPE  H17S17417  -0.004   3.056   9.161 -0.4317 -1.5832  0.2290
  156SAPE  C21817418  -0.104   3.131   8.975  0.1944  0.0467 -0.2321
  156SAPE  H18R17419  -0.137   3.233   9.002 -0.3005 -0.0606 -0.4159
  156SAPE  H18S17420  -0.188   3.091   8.914 -0.8377  0.5493  0.8277
  156SAPE  C21917421   0.026   3.117   8.891 -0.1462  0.2965 -0.2952
  156SAPE  H19R17422   0.022   3.015   8.846  0.2726 -0.8053  2.0433
  156SAPE  H19S17423   0.113   3.145   8.954 -0.3554 -2.4326  1.4015
  156SAPE  C22017424   0.047   3.208   8.769 -0.4147 -0.6495 -0.3068
  156SAPE  H20R17425   0.041   3.313   8.802 -1.6985 -0.5676 -0.7499
  156SAPE  H20S17426  -0.043   3.202   8.704 -1.1215  1.0294  0.4668
  156SAPE  H20T17427   0.144   3.196   8.716 -0.8666  0.7604 -1.5130
  156SAPE   C3317428   0.066   2.263   9.619  0.0075  0.1254 -0.5261
  156SAPE   H3X17429   0.020   2.163   9.609 -0.8665  0.2976  1.2712
  156SAPE   H3Y17430   0.177   2.264   9.617  0.0696  3.1978 -0.2482
  156SAPE   C3417431   0.021   2.355   9.506  0.2402 -0.3497 -0.3984
  156SAPE   H4X17432   0.052   2.305   9.412  0.6166  0.1975 -0.5726
  156SAPE   H4Y17433   0.054   2.460   9.523 -3.3723  1.0445 -1.0308
  156SAPE   C3517434  -0.131   2.366   9.487  0.8956 -0.4234 -0.3359
  156SAPE   H5X17435  -0.178   2.415   9.575  1.0127  0.0362 -0.5254
  156SAPE   H5Y17436  -0.179   2.269   9.466  1.1195 -0.3916 -1.0101
  156SAPE   C3617437  -0.164   2.473   9.376 -0.4823 -0.5096  1.0777
  156SAPE   H6X17438  -0.111   2.435   9.287 -0.8111 -3.3412  1.9942
  156SAPE   H6Y17439  -0.128   2.574   9.405 -1.3428  0.6158 -1.5175
  156SAPE   C3717440  -0.312   2.502   9.348  0.3525  0.3859 -0.0977
  156SAPE   H7X17441  -0.332   2.605   9.312  0.4825  0.3700 -0.2187
  156SAPE   H7Y17442  -0.375   2.489   9.438 -2.7869  0.7854 -2.1054
  156SAPE   C3817443  -0.381   2.412   9.244 -0.4830 -0.3479 -0.2606
  156SAPE   H8X17444  -0.478   2.391   9.294  0.1502 -2.8246  0.0836
  156SAPE   H8Y17445  -0.318   2.320   9.237 -0.4120 -0.6827  3.1359
  156SAPE   C3917446  -0.410   2.482   9.110 -0.4220  0.2680 -0.2158
  156SAPE   H9X17447  -0.450   2.585   9.123 -0.2596  0.1235  1.6303
  156SAPE   H9Y17448  -0.489   2.432   9.048 -3.6608  1.2917  2.7557
  156SAPE  C31017449  -0.280   2.486   9.029  0.3559  0.5605  0.5892
  156SAPE  H10X17450  -0.244   2.383   9.007 -1.7706 -0.8031  2.9171
  156SAPE  H10Y17451  -0.202   2.526   9.098  2.3261 -0.4311 -0.9500
  156SAPE  C31117452  -0.277   2.569   8.895  0.0784 -0.0793  0.9093
  156SAPE  H11X17453  -0.364   2.536   8.834 -0.3559 -0.4613  1.7251
  156SAPE  H11Y17454  -0.192   2.540   8.830 -0.8800  0.1183 -0.4702
  156SAPE  C31217455  -0.285   2.724   8.912  0.2268 -0.7514 -0.1187
  156SAPE  H12X17456  -0.185   2.759   8.944  0.7651 -0.8606 -1.6014
  156SAPE  H12Y17457  -0.357   2.756   8.991 -1.1219 -1.7522 -0.8967
  156SAPE  C31317458  -0.332   2.793   8.786 -0.0462 -0.7755  0.6369
  156SAPE  H13X17459  -0.344   2.895   8.828 -3.7985 -0.9785  0.4276
  156SAPE  H13Y17460  -0.440   2.776   8.767 -0.5590  0.3045  2.3639
  156SAPE  C31417461  -0.234   2.819   8.674 -0.3455 -0.1891 -0.0018
  156SAPE  H14X17462  -0.233   2.727   8.613  0.1724  0.7581 -1.4630
  156SAPE  H14Y17463  -0.127   2.833   8.704 -0.3687 -0.4954  0.2219
  156SAPE  C31517464  -0.263   2.935   8.585  0.6691 -0.4245 -0.5397
  156SAPE  H15X17465  -0.210   2.923   8.488 -1.2894 -2.2147 -1.4753
  156SAPE  H15Y17466  -0.224   3.029   8.630 -1.0028  0.8418 -1.6035
  156SAPE  C31617467  -0.414   2.944   8.548  0.5078  0.2709 -0.5860
  156SAPE  H16X17468  -0.461   2.980   8.642  1.6174  3.2280 -1.0593
  156SAPE  H16Y17469  -0.456   2.848   8.512  1.2372 -0.3265  0.1102
  156SAPE  C31717470  -0.453   3.049   8.448  1.0408 -0.9743  0.0812
  156SAPE  H17X17471  -0.405   3.026   8.351 -0.8688 -2.5251 -0.5557
  156SAPE  H17Y17472  -0.413   3.141   8.495  1.3924 -0.2898 -1.5094
  156SAPE  C31817473  -0.607   3.074   8.421  0.5725  0.6630 -0.0666
  156SAPE  H18X17474  -0.647   2.975   8.389 -0.8230  0.9187  0.8294
  156SAPE  H18Y17475  -0.622   3.159   8.351  1.0356 -0.3757 -1.4726
  156SAPE  H18Z17476  -0.651   3.104   8.518 -2.0601  1.4185 -1.4024
  157SAPE     N17477   6.653   2.316  10.745  0.2601 -0.2559  0.0761
  157SAPE   HN117478   6.707   2.306  10.657  0.6750  0.5925  0.2244
  157SAPE   HN217479   6.610   2.410  10.734  0.4777 -0.0761  0.6878
  157SAPE   HN317480   6.718   2.331  10.825 -0.2785  1.7583  0.1957
  157SAPE   C1217481   6.556   2.204  10.765  0.2413  0.0181  0.3041
  157SAPE  H12A17482   6.475   2.236  10.833 -0.4206  1.5821 -1.1370
  157SAPE  H12B17483   6.612   2.112  10.791 -2.0684 -2.3596 -2.4474
  157SAPE   C1117484   6.501   2.166  10.622  0.2780 -0.0592 -0.2313
  157SAPE  H11A17485   6.436   2.076  10.629  0.3963 -0.2384 -1.1976
  157SAPE  H11B17486   6.594   2.141  10.566  0.7985 -2.5662  1.5655
  157SAPE     P17487   6.282   2.294  10.578  0.0269  0.0923 -0.1256
  157SAPE   O1317488   6.237   2.262  10.717  0.2376  0.3816 -0.1284
  157SAPE   O1417489   6.245   2.433  10.538  0.4724 -0.3346  0.1590
  157SAPE   O1217490   6.435   2.280  10.566  0.5866 -0.1028 -0.5822
  157SAPE   O1117491   6.224   2.181  10.477 -0.0195  0.4221  0.4682
  157SAPE    C117492   6.297   2.156  10.354  0.7585  0.0176 -0.4667
  157SAPE    HA17493   6.266   2.217  10.266  0.4398 -2.7301 -2.3726
  157SAPE    HB17494   6.408   2.164  10.364  0.7615  0.7320 -0.9387
  157SAPE    C217495   6.269   2.010  10.308 -0.3371 -0.6675 -0.4384
  157SAPE    HS17496   6.329   1.995  10.215 -0.7162 -0.3388 -0.7422
  157SAPE   O2117497   6.131   1.977  10.289  0.1093  0.2264  0.0083
  157SAPE   C2117498   6.081   2.015  10.171 -0.1514  0.7008 -0.3871
  157SAPE   O2217499   6.143   2.069  10.083  0.1329  0.3317  0.0785
  157SAPE   C2217500   5.933   1.985  10.176 -0.0571  0.2904  0.5466
  157SAPE   H2R17501   5.925   1.878  10.207  0.9184 -0.6049 -1.9965
  157SAPE   H2S17502   5.899   2.048  10.260  0.3159  1.8403 -0.4156
  157SAPE    C317503   6.328   1.903  10.409  0.0642 -0.8093  0.0587
  157SAPE    HX17504   6.270   1.935  10.499  2.3133  1.2255  0.8699
  157SAPE    HY17505   6.438   1.909  10.421 -0.2012  0.3426  2.6274
  157SAPE   O3117506   6.277   1.763  10.382 -0.8758 -0.1857 -0.4488
  157SAPE   C3117507   6.343   1.690  10.294 -0.3690 -0.7177 -0.5960
  157SAPE   O3217508   6.439   1.732  10.232 -0.2012 -0.4710  0.5142
  157SAPE   C3217509   6.282   1.553  10.270  0.0325  0.9849  0.3143
  157SAPE   H2X17510   6.280   1.498  10.367  0.4639 -0.2665 -0.3629
  157SAPE   H2Y17511   6.339   1.493  10.197  0.1429 -0.8979  1.8579
  157SAPE   C2317512   5.849   2.012  10.053  0.3180 -0.7843  0.0432
  157SAPE   H3R17513   5.869   2.113  10.009  0.3557 -1.0058 -0.4561
  157SAPE   H3S17514   5.748   1.999  10.097 -0.4967  0.7121 -1.2722
  157SAPE   C2417515   5.866   1.910   9.945 -1.0569 -0.1883 -0.2907
  157SAPE   H4R17516   5.860   1.810   9.994  0.3331  0.1081  0.5142
  157SAPE   H4S17517   5.963   1.929   9.894 -0.9613 -0.3504 -0.1705
  157SAPE   C2517518   5.752   1.923   9.842  0.1770  0.3171 -0.6713
  157SAPE   H5R17519   5.648   1.936   9.876  1.2682  0.6018  3.0560
  157SAPE   C2617520   5.771   1.936   9.709  0.0023 -0.5894 -0.1512
  157SAPE   H6R17521   5.677   1.944   9.652 -1.3548 -0.5309  1.9614
  157SAPE   C2717522   5.904   1.936   9.634  0.6274  0.3657  0.7784
  157SAPE   H7R17523   5.922   1.839   9.584  0.7576  0.5467  0.4749
  157SAPE   H7S17524   5.994   1.939   9.699  0.1527  1.7733  1.4254
  157SAPE   C2817525   5.912   2.046   9.529  0.2551 -0.4841  0.2289
  157SAPE   H8R17526   5.950   2.143   9.566 -0.3042 -0.5892  1.0880
  157SAPE   C2917527   5.875   2.035   9.401 -0.0296  0.5110  0.6487
  157SAPE   H9R17528   5.871   2.124   9.336 -0.4661 -1.5975 -2.4305
  157SAPE  C21017529   5.828   1.912   9.327  0.6092  0.0368  0.1096
  157SAPE  H10R17530   5.723   1.925   9.292  1.4914 -0.5908 -3.0627
  157SAPE  H10S17531   5.827   1.827   9.400  0.1359 -2.4545 -2.5952
  157SAPE  C21117532   5.911   1.869   9.212 -0.3874 -0.2330  0.6247
  157SAPE  H11R17533   5.992   1.798   9.231  1.6695  2.0573  0.8259
  157SAPE  C21217534   5.891   1.924   9.088 -0.4284  0.1666  0.2396
  157SAPE  H12R17535   5.963   1.901   9.008  0.3553  3.4391 -0.1068
  157SAPE  C21317536   5.783   2.019   9.042  0.1431 -0.4700  0.0405
  157SAPE  H13R17537   5.836   2.099   8.986  1.5793  0.2474  2.2637
  157SAPE  H13S17538   5.716   2.069   9.116  0.5649  0.9153 -0.4916
  157SAPE  C21417539   5.687   1.943   8.959  0.2391  0.3381  0.1777
  157SAPE  H14R17540   5.658   1.842   8.991 -0.8996  0.7981  0.6642
  157SAPE  C21517541   5.627   1.998   8.853 -0.4250  0.1284 -0.3497
  157SAPE  H15R17542   5.546   1.940   8.807 -2.5589  2.0080  0.7586
  157SAPE  C21617543   5.642   2.134   8.793  0.1118  0.0854  0.1261
  157SAPE  H16R17544   5.749   2.140   8.764  0.0422  1.3363  0.0470
  157SAPE  H16S17545   5.624   2.220   8.861 -1.4852 -0.8148  0.8772
  157SAPE  C21717546   5.557   2.162   8.667  0.1740  0.2799  1.0722
  157SAPE  H17R17547   5.453   2.130   8.691  0.2257 -1.5808 -0.9762
  157SAPE  H17S17548   5.580   2.089   8.588 -1.9522  1.7212 -1.0250
  157SAPE  C21817549   5.553   2.305   8.611  0.2553  0.3559  0.4096
  157SAPE  H18R17550   5.520   2.308   8.505  1.5455  1.3006 -0.0016
  157SAPE  H18S17551   5.654   2.352   8.611 -0.1589  1.5400 -2.9395
  157SAPE  C21917552   5.467   2.404   8.692 -0.8944 -0.0064  0.2855
  157SAPE  H19R17553   5.475   2.504   8.644  3.2608 -0.3357 -0.1158
  157SAPE  H19S17554   5.511   2.404   8.794  0.9855  1.9106 -0.4365
  157SAPE  C22017555   5.315   2.361   8.687 -0.5326 -0.2157 -0.5138
  157SAPE  H20R17556   5.289   2.345   8.580  3.5700 -0.6480 -1.6158
  157SAPE  H20S17557   5.253   2.445   8.725 -0.2658  1.0193 -2.6407
  157SAPE  H20T17558   5.303   2.260   8.730 -1.4844 -0.2094 -0.7548
  157SAPE   C3317559   6.133   1.562  10.231 -0.4731  0.7185  0.5043
  157SAPE   H3X17560   6.078   1.617  10.311 -1.7352  1.3304 -0.7362
  157SAPE   H3Y17561   6.101   1.456  10.224  1.9158  0.0167 -1.2697
  157SAPE   C3417562   6.112   1.630  10.099  0.2852  0.3582 -0.2626
  157SAPE   H4X17563   6.167   1.726  10.106  0.2068  0.2939  2.6068
  157SAPE   H4Y17564   6.006   1.654  10.079  0.5602  0.6506 -1.4370
  157SAPE   C3517565   6.165   1.548   9.978 -0.4641 -0.8306 -0.9859
  157SAPE   H5X17566   6.131   1.443   9.991 -1.8518 -0.3792 -0.8220
  157SAPE   H5Y17567   6.276   1.560   9.980 -0.7085  2.0569 -0.0530
  157SAPE   C3617568   6.113   1.607   9.844  0.3570  0.3459 -0.3157
  157SAPE   H6X17569   6.160   1.708   9.851  0.6959  0.2325 -0.9486
  157SAPE   H6Y17570   6.005   1.624   9.828  0.1435  1.1267  1.5716
  157SAPE   C3717571   6.167   1.523   9.731  0.9572  0.4102 -0.3766
  157SAPE   H7X17572   6.140   1.416   9.741 -0.2141  0.7048 -0.2617
  157SAPE   H7Y17573   6.276   1.540   9.740  0.7621  1.6528 -0.2204
  157SAPE   C3817574   6.115   1.569   9.601 -0.1197  0.5906  0.0267
  157SAPE   H8X17575   6.139   1.677   9.595  0.7841  0.3351 -2.6881
  157SAPE   H8Y17576   6.005   1.566   9.588  0.1382 -0.1722 -2.8651
  157SAPE   C3917577   6.184   1.493   9.489 -0.5615 -0.0133  0.0349
  157SAPE   H9X17578   6.149   1.388   9.493  0.7798 -0.5280 -1.0234
  157SAPE   H9Y17579   6.293   1.498   9.505 -0.2239  0.0157 -2.0494
  157SAPE  C31017580   6.167   1.551   9.351 -0.2453  0.4593  0.2596
  157SAPE  H10X17581   6.203   1.656   9.352 -1.3345  0.8417 -0.2413
  157SAPE  H10Y17582   6.061   1.555   9.320 -0.4089 -0.9618  0.5317
  157SAPE  C31117583   6.236   1.463   9.237  0.1019 -0.1217  0.2713
  157SAPE  H11X17584   6.175   1.372   9.221 -0.6717 -0.1227  2.7896
  157SAPE  H11Y17585   6.339   1.427   9.256 -0.0346  0.0734  1.4437
  157SAPE  C31217586   6.232   1.533   9.097  0.1584 -0.4796  0.0607
  157SAPE  H12X17587   6.301   1.621   9.096 -1.9691  1.2832  0.5325
  157SAPE  H12Y17588   6.132   1.581   9.087  1.3257  3.0806  2.9707
  157SAPE  C31317589   6.283   1.445   8.983 -1.2235  0.6890 -0.5052
  157SAPE  H13X17590   6.210   1.362   8.969  2.8171 -3.2258 -0.6908
  157SAPE  H13Y17591   6.383   1.402   9.003 -0.3120  1.9673 -2.0554
  157SAPE  C31417592   6.298   1.520   8.849 -0.2156  0.0796  0.0511
  157SAPE  H14X17593   6.367   1.604   8.875  0.4868 -1.1129  2.2920
  157SAPE  H14Y17594   6.206   1.561   8.803 -0.9042 -1.1554  0.3032
  157SAPE  C31517595   6.368   1.437   8.746 -0.1315  0.1772 -0.7089
  157SAPE  H15X17596   6.305   1.349   8.721 -1.9249  0.5645  1.9468
  157SAPE  H15Y17597   6.467   1.403   8.785 -0.7255 -0.7918  0.0024
  157SAPE  C31617598   6.394   1.519   8.623 -0.3838  0.2674  0.0454
  157SAPE  H16X17599   6.475   1.594   8.632 -1.5189  1.8432 -1.9613
  157SAPE  H16Y17600   6.304   1.570   8.582  1.1552  2.5215 -0.6603
  157SAPE  C31717601   6.447   1.432   8.510 -0.0756 -0.6307 -0.1489
  157SAPE  H17X17602   6.480   1.506   8.433  0.7421 -3.0987 -2.3252
  157SAPE  H17Y17603   6.354   1.383   8.473 -2.5619  3.6093 -0.1865
  157SAPE  C31817604   6.558   1.332   8.557  0.0573  0.0924 -0.4838
  157SAPE  H18X17605   6.571   1.258   8.475  1.2160 -0.9168  0.5871
  157SAPE  H18Y17606   6.526   1.273   8.645 -3.2220 -1.0208 -2.2256
  157SAPE  H18Z17607   6.646   1.398   8.575 -2.1681  2.6867  1.9423
  158SAPE     N17608   1.566   2.156  10.857 -0.4785 -0.9659 -0.2700
  158SAPE   HN117609   1.545   2.097  10.941  0.5798 -0.2184  0.5455
  158SAPE   HN217610   1.668   2.163  10.839  0.2217 -2.3015  2.5825
  158SAPE   HN317611   1.546   2.256  10.878 -0.0016 -0.8082 -0.5422
  158SAPE   C1217612   1.489   2.118  10.733 -0.1722  0.4791 -0.0926
  158SAPE  H12A17613   1.384   2.104  10.767 -0.3994 -0.1119 -0.9903
  158SAPE  H12B17614   1.530   2.020  10.700  0.5372  0.2646  1.3174
  158SAPE   C1117615   1.505   2.232  10.631  0.1040 -0.6832  0.0690
  158SAPE  H11A17616   1.409   2.210  10.579  0.3024  0.1462 -0.6821
  158SAPE  H11B17617   1.593   2.227  10.563 -1.5268  1.2837 -2.3843
  158SAPE     P17618   1.499   2.481  10.606  0.0684  0.0720  0.5163
  158SAPE   O1317619   1.455   2.600  10.685  0.2874  0.8884  0.3721
  158SAPE   O1417620   1.627   2.492  10.540  0.1869 -0.1035 -0.3033
  158SAPE   O1217621   1.490   2.356  10.699  0.2639 -0.5016 -0.6224
  158SAPE   O1117622   1.393   2.448  10.497 -0.1829 -0.3022 -0.1393
  158SAPE    C117623   1.378   2.536  10.383  0.1187 -0.4876 -0.1274
  158SAPE    HA17624   1.270   2.536  10.358 -0.4214 -1.0078  2.0189
  158SAPE    HB17625   1.411   2.642  10.390 -1.7969  0.0677  1.2975
  158SAPE    C217626   1.454   2.467  10.265  0.9757 -0.1175  0.4213
  158SAPE    HS17627   1.562   2.456  10.287  0.7814 -2.6644  0.3866
  158SAPE   O2117628   1.428   2.534  10.141 -0.3595  0.1206  0.2404
  158SAPE   C2117629   1.523   2.630  10.118  0.8813 -0.6997 -0.4134
  158SAPE   O2217630   1.614   2.665  10.192  1.2425 -0.3924 -0.0725
  158SAPE   C2217631   1.468   2.728  10.007 -0.4224  0.5148 -0.3821
  158SAPE   H2R17632   1.490   2.676   9.911  2.3576  0.5482  0.1582
  158SAPE   H2S17633   1.363   2.755  10.030 -0.0873  0.8682  0.8032
  158SAPE    C317634   1.426   2.318  10.257 -0.1288 -0.1057 -0.8115
  158SAPE    HX17635   1.323   2.291  10.225  0.4158 -1.2267 -1.7097
  158SAPE    HY17636   1.438   2.282  10.361  1.3178  0.4430 -0.7585
  158SAPE   O3117637   1.521   2.246  10.171 -0.7441 -0.7735 -0.1758
  158SAPE   C3117638   1.533   2.117  10.192  0.2687  0.7175 -0.1365
  158SAPE   O3217639   1.481   2.051  10.283  0.4544 -0.4323 -0.4742
  158SAPE   C3217640   1.632   2.059  10.094 -0.1148  0.2089 -1.2246
  158SAPE   H2X17641   1.731   2.099  10.124  0.3071 -2.4838  1.4199
  158SAPE   H2Y17642   1.612   2.094   9.990  0.4897  2.0209 -0.7605
  158SAPE   C2317643   1.544   2.861  10.014  0.0899 -0.0871 -0.5355
  158SAPE   H3R17644   1.653   2.840  10.015 -0.0704 -0.9160  0.5287
  158SAPE   H3S17645   1.516   2.923  10.102  0.3035 -0.2119 -0.3802
  158SAPE   C2417646   1.498   2.936   9.887 -0.0842  0.2525 -0.8510
  158SAPE   H4R17647   1.392   2.963   9.905  0.1546  0.4109  0.3974
  158SAPE   H4S17648   1.500   2.861   9.805  2.0282 -0.9410  0.2159
  158SAPE   C2517649   1.575   3.057   9.853  0.1520  0.4554 -0.1671
  158SAPE   H5R17650   1.652   3.093   9.923 -1.0542 -1.2557  2.1504
  158SAPE   C2617651   1.563   3.121   9.734  0.7483  0.9812 -0.3270
  158SAPE   H6R17652   1.622   3.213   9.724  1.1474  0.5929 -1.7963
  158SAPE   C2717653   1.473   3.081   9.622 -0.2913 -0.0743  0.3485
  158SAPE   H7R17654   1.432   2.982   9.652 -1.8657  0.9294  1.6175
  158SAPE   H7S17655   1.533   3.069   9.529 -2.2816 -0.4584 -0.9392
  158SAPE   C2817656   1.356   3.173   9.593 -0.1492  0.5450  0.0059
  158SAPE   H8R17657   1.276   3.167   9.668 -0.3212 -2.7330 -0.3059
  158SAPE   C2917658   1.338   3.255   9.487  0.0096 -0.1532  0.5966
  158SAPE   H9R17659   1.242   3.308   9.473  0.1796  0.2219  0.8167
  158SAPE  C21017660   1.435   3.275   9.371 -0.2464  0.0030  0.3667
  158SAPE  H10R17661   1.490   3.180   9.354 -0.1650 -0.3487  2.3315
  158SAPE  H10S17662   1.517   3.344   9.399 -1.7983  1.1057  2.4822
  158SAPE  C21117663   1.362   3.328   9.245  0.6531 -0.2449 -0.2081
  158SAPE  H11R17664   1.310   3.424   9.259  0.5116 -0.0129 -1.9733
  158SAPE  C21217665   1.350   3.271   9.126 -0.1263  0.1728 -0.1609
  158SAPE  H12R17666   1.295   3.320   9.045  0.3808 -0.4518 -0.8960
  158SAPE  C21317667   1.415   3.133   9.088 -0.5610 -0.4211 -0.4787
  158SAPE  H13R17668   1.336   3.061   9.057 -1.6398  1.0840 -1.3672
  158SAPE  H13S17669   1.468   3.080   9.170 -2.4063 -1.5579  0.0372
  158SAPE  C21417670   1.509   3.156   8.972 -0.5231 -0.3062 -0.5658
  158SAPE  H14R17671   1.578   3.232   9.012 -0.7231 -1.4293  2.1082
  158SAPE  C21517672   1.514   3.127   8.841  0.0542  0.2906  0.4677
  158SAPE  H15R17673   1.604   3.160   8.786 -0.3896 -1.8328 -1.7435
  158SAPE  C21617674   1.418   3.054   8.755  0.5382  0.1399 -0.1685
  158SAPE  H16R17675   1.324   3.035   8.810  0.6626  0.4231  0.1467
  158SAPE  H16S17676   1.459   2.953   8.732 -0.4708 -0.2739 -0.2080
  158SAPE  C21717677   1.400   3.143   8.634  1.0044  0.1323  0.1828
  158SAPE  H17R17678   1.495   3.148   8.578  0.6885 -2.5313 -0.7263
  158SAPE  H17S17679   1.385   3.246   8.674 -0.1854 -0.2711  0.8418
  158SAPE  C21817680   1.276   3.107   8.555  0.0628 -0.3470  0.6498
  158SAPE  H18R17681   1.188   3.142   8.613  0.4840  0.8172  0.6238
  158SAPE  H18S17682   1.277   2.997   8.544  1.7803 -0.3328  0.3820
  158SAPE  C21917683   1.288   3.170   8.409 -0.0647  0.3984  0.2465
  158SAPE  H19R17684   1.390   3.165   8.364 -1.3824  0.8620 -3.0546
  158SAPE  H19S17685   1.263   3.278   8.418  1.1808  0.6845  0.5392
  158SAPE  C22017686   1.194   3.107   8.305  0.7434  0.9613  0.1807
  158SAPE  H20R17687   1.221   3.153   8.208 -0.2195  0.8069 -0.1713
  158SAPE  H20S17688   1.085   3.116   8.323 -0.0584 -3.5400 -1.0652
  158SAPE  H20T17689   1.199   2.999   8.278 -1.3118  1.2436 -1.6258
  158SAPE   C3317690   1.637   1.903  10.118  0.4917  0.7148  0.9792
  158SAPE   H3X17691   1.673   1.884  10.221  1.2926 -0.2676  0.5406
  158SAPE   H3Y17692   1.718   1.885  10.044 -1.5738  2.6241 -2.0332
  158SAPE   C3417693   1.518   1.821  10.064 -0.8880  0.3653  0.3991
  158SAPE   H4X17694   1.421   1.860  10.102 -0.6257 -0.0011  1.4626
  158SAPE   H4Y17695   1.524   1.713  10.087  0.5933 -0.0988 -1.8399
  158SAPE   C3517696   1.509   1.828   9.906 -0.4302  0.1541 -0.0626
  158SAPE   H5X17697   1.521   1.931   9.865  0.0413  0.1799  0.1257
  158SAPE   H5Y17698   1.408   1.792   9.878 -1.3524  1.1952  1.6870
  158SAPE   C3617699   1.608   1.743   9.827  0.0269 -0.1167  0.5900
  158SAPE   H6X17700   1.644   1.650   9.875  3.3853 -0.7210 -2.6291
  158SAPE   H6Y17701   1.707   1.792   9.810 -0.0067 -0.6187 -1.2486
  158SAPE   C3717702   1.554   1.697   9.694 -0.2701 -0.5373  0.0666
  158SAPE   H7X17703   1.470   1.630   9.720  1.9889 -3.3106  0.7243
  158SAPE   H7Y17704   1.628   1.638   9.636 -0.6734 -0.4608 -0.5329
  158SAPE   C3817705   1.510   1.812   9.594  0.8130  0.3889  0.8347
  158SAPE   H8X17706   1.578   1.897   9.619  3.2281 -0.9551 -0.7703
  158SAPE   H8Y17707   1.404   1.838   9.615  0.2946  0.3186 -1.4386
  158SAPE   C3917708   1.531   1.756   9.449 -1.4402 -0.3246  0.0109
  158SAPE   H9X17709   1.479   1.657   9.455 -1.9515 -0.0628 -0.0314
  158SAPE   H9Y17710   1.640   1.743   9.436 -1.1379  1.9939 -0.1370
  158SAPE  C31017711   1.454   1.837   9.340 -0.2902  0.6226 -0.4413
  158SAPE  H10X17712   1.489   1.942   9.328 -1.6938  1.3426  1.3107
  158SAPE  H10Y17713   1.347   1.855   9.363 -0.7649  0.2104 -2.1477
  158SAPE  C31117714   1.450   1.763   9.201 -1.0156  0.1387 -0.5277
  158SAPE  H11X17715   1.392   1.669   9.201 -1.3883  0.3402  1.1248
  158SAPE  H11Y17716   1.557   1.748   9.177 -0.2534  1.3682  1.8359
  158SAPE  C31217717   1.378   1.853   9.103  0.2530 -0.6899  0.1387
  158SAPE  H12X17718   1.430   1.951   9.110 -0.4635 -0.1667 -1.4061
  158SAPE  H12Y17719   1.276   1.868   9.144 -0.4057 -1.9235 -0.9692
  158SAPE  C31317720   1.377   1.793   8.964  0.0747 -0.1372 -0.2245
  158SAPE  H13X17721   1.326   1.694   8.968  1.2038 -0.7491 -0.6984
  158SAPE  H13Y17722   1.483   1.784   8.933  0.1063  1.6218 -0.7506
  158SAPE  C31417723   1.310   1.875   8.857  0.0691  0.5309 -0.3141
  158SAPE  H14X17724   1.348   1.980   8.854 -1.1191  0.9750 -0.1808
  158SAPE  H14Y17725   1.203   1.880   8.885 -0.1229 -1.9383 -0.3924
  158SAPE  C31517726   1.333   1.819   8.719  0.5568 -0.1392  0.5444
  158SAPE  H15X17727   1.340   1.711   8.742 -1.1248 -0.5586 -0.6816
  158SAPE  H15Y17728   1.428   1.859   8.677 -0.2224  1.5496  0.3059
  158SAPE  C31617729   1.199   1.818   8.634  0.0363  0.2324 -0.7345
  158SAPE  H16X17730   1.160   1.922   8.627 -0.6998 -0.1226 -2.5082
  158SAPE  H16Y17731   1.117   1.756   8.676 -0.9943  1.4160 -0.9470
  158SAPE  C31717732   1.213   1.785   8.487  1.0251  0.2783  0.1227
  158SAPE  H17X17733   1.114   1.795   8.437  1.4049  0.6436 -0.5698
  158SAPE  H17Y17734   1.241   1.678   8.479  0.1081  0.1331 -1.7040
  158SAPE  C31817735   1.313   1.865   8.404 -0.5076  0.3124  0.1590
  158SAPE  H18X17736   1.410   1.880   8.455  0.2607  2.1915 -1.7121
  158SAPE  H18Y17737   1.274   1.969   8.393 -0.8309  0.1334 -0.4320
  158SAPE  H18Z17738   1.318   1.823   8.301 -2.4847  0.5680 -0.0859
  159SAPE     N17739   6.365   5.745   6.352 -0.1198  0.1928  0.2358
  159SAPE   HN117740   6.274   5.778   6.391 -0.1152 -0.2046  0.6024
  159SAPE   HN217741   6.403   5.801   6.274  1.4058 -0.0070  0.8062
  159SAPE   HN317742   6.352   5.653   6.304  1.2545  0.7373 -1.2716
  159SAPE   C1217743   6.468   5.737   6.458 -0.4792 -0.0694 -0.3403
  159SAPE  H12A17744   6.554   5.673   6.429 -0.7778 -0.8611  0.4737
  159SAPE  H12B17745   6.419   5.693   6.547 -0.4230 -0.4009 -0.4714
  159SAPE   C1117746   6.507   5.883   6.503  0.5335 -1.0497  0.2175
  159SAPE  H11A17747   6.597   5.910   6.444  0.4407 -1.0379  0.0811
  159SAPE  H11B17748   6.535   5.881   6.611  0.6720  1.2644  0.2768
  159SAPE     P17749   6.414   6.125   6.456 -0.1720 -0.0188  0.8021
  159SAPE   O1317750   6.557   6.157   6.452  0.3725 -0.0371 -0.0912
  159SAPE   O1417751   6.343   6.155   6.330  0.1721  0.3822 -0.0448
  159SAPE   O1217752   6.395   5.980   6.488  0.5607 -0.2814  0.4366
  159SAPE   O1117753   6.337   6.205   6.569  0.1254  0.1035 -0.2575
  159SAPE    C117754   6.371   6.200   6.705  0.5844  0.7023  0.0379
  159SAPE    HA17755   6.480   6.177   6.711  1.0837  2.8888  0.2139
  159SAPE    HB17756   6.359   6.297   6.757  2.0552  0.5123  0.8017
  159SAPE    C217757   6.311   6.093   6.787 -0.5232  0.7332  0.3487
  159SAPE    HS17758   6.290   6.005   6.723 -1.3726  0.6792  0.6832
  159SAPE   O2117759   6.190   6.150   6.840  0.1255 -0.3921 -0.5032
  159SAPE   C2117760   6.097   6.061   6.880 -0.3888 -0.1450  0.1065
  159SAPE   O2217761   6.106   5.940   6.887  0.4436 -0.4730  0.6613
  159SAPE   C2217762   5.979   6.130   6.947 -0.5012 -0.5783  0.0101
  159SAPE   H2R17763   5.995   6.237   6.970  2.9903 -0.8827 -0.4202
  159SAPE   H2S17764   5.899   6.131   6.870 -0.0201  0.2428 -0.4991
  159SAPE    C317765   6.405   6.038   6.902 -1.0866 -0.1268 -0.1660
  159SAPE    HX17766   6.501   6.008   6.853 -1.1992 -0.9853  0.1124
  159SAPE    HY17767   6.367   5.943   6.944 -0.1817  0.4524  2.1299
  159SAPE   O3117768   6.441   6.142   6.996  0.0528 -0.5395  0.1959
  159SAPE   C3117769   6.370   6.126   7.111 -0.2512  0.1633  1.0960
  159SAPE   O3217770   6.281   6.044   7.126 -0.2657  0.2092  0.2948
  159SAPE   C3217771   6.417   6.222   7.219 -0.1455  0.3428 -0.7074
  159SAPE   H2X17772   6.399   6.329   7.193  2.9915  1.0841 -0.2865
  159SAPE   H2Y17773   6.527   6.205   7.227 -0.4004 -0.7646  0.6425
  159SAPE   C2317774   5.940   6.062   7.077 -0.3817  0.1036 -0.6211
  159SAPE   H3R17775   6.029   6.078   7.141 -2.7671  0.3529  2.9462
  159SAPE   H3S17776   5.948   5.952   7.060 -0.9314  0.0808 -0.7627
  159SAPE   C2417777   5.818   6.110   7.150  0.4009 -0.2580  0.2646
  159SAPE   H4R17778   5.811   6.051   7.245 -0.0467 -0.4684  0.1038
  159SAPE   H4S17779   5.726   6.090   7.091 -0.4170  0.0610  1.3985
  159SAPE   C2517780   5.823   6.253   7.180  0.5118 -0.5294  0.8585
  159SAPE   H5R17781   5.818   6.316   7.090 -0.0542  1.0319  1.9370
  159SAPE   C2617782   5.829   6.317   7.298  0.0788  0.7082  0.2350
  159SAPE   H6R17783   5.851   6.424   7.292  1.5748  0.3750 -0.6676
  159SAPE   C2717784   5.832   6.254   7.442  0.1890  0.3029 -0.1143
  159SAPE   H7R17785   5.933   6.271   7.484 -0.3256 -1.0879  1.8102
  159SAPE   H7S17786   5.820   6.144   7.449  1.7170 -0.1310 -2.7345
  159SAPE   C2817787   5.725   6.323   7.525 -0.8252 -0.0173 -0.6389
  159SAPE   H8R17788   5.623   6.326   7.483 -2.5697  2.3941  3.2808
  159SAPE   C2917789   5.746   6.362   7.652 -0.5285  0.8253 -0.4342
  159SAPE   H9R17790   5.661   6.404   7.708 -1.0035 -2.6313  1.7991
  159SAPE  C21017791   5.874   6.370   7.741 -0.0327 -0.7361 -0.1094
  159SAPE  H10R17792   5.902   6.477   7.752  0.2539 -0.4321 -2.9969
  159SAPE  H10S17793   5.965   6.326   7.695 -0.6974 -0.7713 -1.4272
  159SAPE  C21117794   5.846   6.292   7.871  0.0725 -0.1838  0.2017
  159SAPE  H11R17795   5.768   6.214   7.873  0.4554 -0.5645  1.3321
  159SAPE  C21217796   5.924   6.307   7.978 -0.0165  0.4397  0.0553
  159SAPE  H12R17797   5.896   6.254   8.071 -0.9961  2.1037  0.7536
  159SAPE  C21317798   6.035   6.402   7.988  0.4742  0.0958  0.4433
  159SAPE  H13R17799   6.083   6.432   7.892  1.4982 -2.7653 -0.0340
  159SAPE  H13S17800   6.121   6.351   8.036 -0.0564 -1.6384 -0.3779
  159SAPE  C21417801   5.999   6.523   8.075  0.1476 -0.5710 -1.0009
  159SAPE  H14R17802   5.900   6.561   8.045  1.5718  2.0580 -2.8691
  159SAPE  C21517803   6.074   6.575   8.176  0.3360  1.0138 -0.1837
  159SAPE  H15R17804   6.047   6.669   8.227  3.0236  2.1203 -0.6069
  159SAPE  C21617805   6.206   6.524   8.226  0.2963  0.8748 -0.1712
  159SAPE  H16R17806   6.263   6.618   8.243  0.6388  0.8785 -1.2930
  159SAPE  H16S17807   6.252   6.453   8.154 -2.2884 -2.0193  0.8533
  159SAPE  C21717808   6.190   6.449   8.359  0.3936  0.1484  0.4048
  159SAPE  H17R17809   6.137   6.526   8.419 -3.1222 -0.2096 -1.9406
  159SAPE  H17S17810   6.290   6.425   8.400  0.7666  1.1327  0.1038
  159SAPE  C21817811   6.113   6.318   8.352  0.1040  0.3272 -0.8073
  159SAPE  H18R17812   6.174   6.249   8.289  4.1850  2.0424  0.9246
  159SAPE  H18S17813   6.017   6.330   8.297 -0.4502 -3.7758 -1.0469
  159SAPE  C21917814   6.083   6.241   8.486 -0.6514 -0.5321 -1.0226
  159SAPE  H19R17815   6.013   6.160   8.458 -1.4306 -0.4661  0.6050
  159SAPE  H19S17816   6.035   6.316   8.553 -0.1126 -1.4079  0.3846
  159SAPE  C22017817   6.213   6.179   8.545 -0.1923 -0.5809 -0.1793
  159SAPE  H20R17818   6.182   6.110   8.626  0.3263  0.6491  1.1029
  159SAPE  H20S17819   6.284   6.259   8.576 -0.8504  0.1278 -0.4755
  159SAPE  H20T17820   6.248   6.124   8.455  1.4747  1.4374 -0.8461
  159SAPE   C3317821   6.353   6.185   7.351 -0.3782  0.0702  0.2422
  159SAPE   H3X17822   6.366   6.074   7.352  0.3643  0.1540  0.3376
  159SAPE   H3Y17823   6.243   6.201   7.362 -0.9022 -3.0919  0.5764
  159SAPE   C3417824   6.432   6.257   7.464  0.1891  0.3662  0.3298
  159SAPE   H4X17825   6.396   6.362   7.466  0.7571  0.6667 -2.1657
  159SAPE   H4Y17826   6.541   6.259   7.447  0.2591 -1.5189  0.3463
  159SAPE   C3517827   6.405   6.186   7.589  0.3040 -0.2081 -0.4163
  159SAPE   H5X17828   6.481   6.215   7.665  1.1136 -0.7371 -1.0135
  159SAPE   H5Y17829   6.404   6.075   7.585  2.7610 -0.3219  0.5068
  159SAPE   C3617830   6.262   6.222   7.654 -0.4666 -0.4451  0.6496
  159SAPE   H6X17831   6.180   6.199   7.584 -0.6126 -3.0044  1.5545
  159SAPE   H6Y17832   6.250   6.332   7.671 -0.4378 -0.2271 -0.6735
  159SAPE   C3717833   6.229   6.134   7.779 -0.0069 -0.7587  0.7546
  159SAPE   H7X17834   6.200   6.031   7.749 -0.3393 -0.6500  0.6973
  159SAPE   H7Y17835   6.141   6.181   7.829  0.5334 -0.7546  1.7365
  159SAPE   C3817836   6.352   6.133   7.882 -0.1728 -0.0548  0.0117
  159SAPE   H8X17837   6.387   6.237   7.897 -1.6609  0.5671 -0.6014
  159SAPE   H8Y17838   6.427   6.072   7.829 -0.3071 -0.0782 -0.1528
  159SAPE   C3917839   6.307   6.063   8.015 -0.3751  0.2113  0.0513
  159SAPE   H9X17840   6.310   5.952   8.004 -0.1262  0.1971  0.2562
  159SAPE   H9Y17841   6.199   6.084   8.034  0.1696  1.3965  2.0764
  159SAPE  C31017842   6.396   6.091   8.135 -0.1570  0.1215 -0.5828
  159SAPE  H10X17843   6.360   6.029   8.220 -1.4765  1.1278 -0.3834
  159SAPE  H10Y17844   6.366   6.196   8.154 -1.0998  0.0248 -1.4069
  159SAPE  C31117845   6.553   6.072   8.130 -0.0966  0.2301  0.1239
  159SAPE  H11X17846   6.596   6.111   8.035  1.2748 -0.4281  0.4533
  159SAPE  H11Y17847   6.574   5.963   8.116  1.6247  0.7535 -2.1229
  159SAPE  C31217848   6.632   6.118   8.249 -0.3287  0.6750 -0.1634
  159SAPE  H12X17849   6.593   6.217   8.282  0.3143  1.3058 -1.2289
  159SAPE  H12Y17850   6.738   6.126   8.217  0.2824  1.0190  1.8020
  159SAPE  C31317851   6.626   6.013   8.362  0.0083 -0.2860 -0.8171
  159SAPE  H13X17852   6.648   5.913   8.318 -0.6386 -1.7750  2.0439
  159SAPE  H13Y17853   6.525   6.008   8.407  0.5064 -1.3618  0.2254
  159SAPE  C31417854   6.717   6.049   8.482 -0.8718  0.5313 -0.2918
  159SAPE  H14X17855   6.677   6.145   8.520 -1.6235 -0.6984  2.3182
  159SAPE  H14Y17856   6.823   6.054   8.449  0.7493  0.6045  4.3106
  159SAPE  C31517857   6.713   5.945   8.592 -0.1651  0.5443 -0.0284
  159SAPE  H15X17858   6.784   5.865   8.563  0.9074  0.6998  2.0094
  159SAPE  H15Y17859   6.616   5.891   8.595  0.6110 -0.8373  1.3788
  159SAPE  C31617860   6.750   5.992   8.733 -0.6120  0.0261  0.5844
  159SAPE  H16X17861   6.676   6.073   8.752  0.3947  0.6820  1.7939
  159SAPE  H16Y17862   6.850   6.040   8.733 -0.5864 -0.0279  0.5691
  159SAPE  C31717863   6.757   5.878   8.842  0.9970 -0.1606  1.9255
  159SAPE  H17X17864   6.665   5.819   8.826  0.8619  0.3729  0.6080
  159SAPE  H17Y17865   6.751   5.927   8.942  0.5241  2.7283  0.6077
  159SAPE  C31817866   6.877   5.790   8.832  0.1021  0.1799  0.1662
  159SAPE  H18X17867   6.969   5.853   8.832  0.9056 -0.9076  1.8354
  159SAPE  H18Y17868   6.867   5.738   8.735 -0.6426 -0.2017  0.4368
  159SAPE  H18Z17869   6.890   5.716   8.914  0.6258  0.2885  0.1875
  160SAPE     N17870   4.416   0.913   6.146  0.4041  0.4683 -0.5506
  160SAPE   HN117871   4.466   0.823   6.155  1.5686  0.9105 -2.1623
  160SAPE   HN217872   4.316   0.892   6.124 -0.7385  2.4591  2.1170
  160SAPE   HN317873   4.455   0.952   6.058  0.0095  0.3857 -0.7637
  160SAPE   C1217874   4.441   1.003   6.262 -0.0077  0.5114 -0.1770
  160SAPE  H12A17875   4.378   0.970   6.348  0.2830 -0.7980 -0.4467
  160SAPE  H12B17876   4.416   1.109   6.239 -0.8810  1.0158  2.5748
  160SAPE   C1117877   4.584   0.984   6.313 -0.7776 -0.1132 -0.2416
  160SAPE  H11A17878   4.594   0.875   6.330  0.8814 -0.0218 -0.5091
  160SAPE  H11B17879   4.592   1.031   6.414 -1.4405 -0.9899  0.2382
  160SAPE     P17880   4.780   1.159   6.232 -0.0794  0.0435  0.4807
  160SAPE   O1317881   4.882   1.165   6.126 -0.6061 -0.9231 -0.0349
  160SAPE   O1417882   4.691   1.271   6.246 -0.0946 -0.1146 -0.1014
  160SAPE   O1217883   4.696   1.029   6.227  0.1410  0.2331 -0.6027
  160SAPE   O1117884   4.845   1.145   6.370 -0.0156  0.1699 -0.2737
  160SAPE    C117885   4.903   1.019   6.413  0.0064 -0.0089 -0.4421
  160SAPE    HA17886   4.874   0.930   6.352  2.2877 -1.7989  0.9008
  160SAPE    HB17887   5.013   1.026   6.398  0.1946  0.4116  1.0515
  160SAPE    C217888   4.869   0.986   6.558  0.4644 -0.0970 -0.3469
  160SAPE    HS17889   4.764   0.951   6.556  1.2058 -2.4558 -1.0880
  160SAPE   O2117890   4.887   1.103   6.643 -0.0962 -0.4852 -0.0464
  160SAPE   C2117891   4.784   1.163   6.690  0.1711 -0.7885  0.4283
  160SAPE   O2217892   4.668   1.140   6.655  0.1418 -0.2222 -0.4121
  160SAPE   C2217893   4.829   1.281   6.785 -0.6137 -0.1808  0.3776
  160SAPE   H2R17894   4.926   1.259   6.835 -1.9982 -1.3929  2.7142
  160SAPE   H2S17895   4.844   1.366   6.715  0.3923  0.4276  1.3023
  160SAPE    C317896   4.963   0.876   6.621  0.7290 -0.7008  0.0412
  160SAPE    HX17897   5.070   0.903   6.606  1.6455 -2.6602  2.5188
  160SAPE    HY17898   4.946   0.777   6.573 -1.1877 -0.5644  0.3691
  160SAPE   O3117899   4.924   0.850   6.759 -0.5245 -0.3464  0.0757
  160SAPE   C3117900   5.016   0.832   6.846 -0.5359  0.1473 -0.3528
  160SAPE   O3217901   5.137   0.837   6.823  0.2594  0.0631 -0.4510
  160SAPE   C3217902   4.951   0.794   6.974 -0.5301  0.2707 -0.2181
  160SAPE   H2X17903   4.877   0.714   6.955 -3.2668  1.6509  3.3505
  160SAPE   H2Y17904   4.896   0.885   7.008  1.1188  0.8233  1.1491
  160SAPE   C2317905   4.709   1.321   6.875 -0.3587  0.4353 -0.1337
  160SAPE   H3R17906   4.706   1.247   6.959  1.3105  2.4628  1.8489
  160SAPE   H3S17907   4.615   1.323   6.816  0.4717  0.7341 -1.4727
  160SAPE   C2417908   4.728   1.455   6.950  0.1667 -0.3192  0.6729
  160SAPE   H4R17909   4.641   1.481   7.015 -0.4368 -2.6760  0.8938
  160SAPE   H4S17910   4.723   1.530   6.868  0.2063  0.5758  1.4822
  160SAPE   C2517911   4.859   1.467   7.026 -0.9723  0.5204  0.3984
  160SAPE   H5R17912   4.937   1.523   6.971 -3.0921  2.5213 -0.7390
  160SAPE   C2617913   4.883   1.427   7.150  0.3678 -0.7367 -0.1494
  160SAPE   H6R17914   4.988   1.418   7.182  0.7171  0.0367 -1.0255
  160SAPE   C2717915   4.780   1.377   7.251 -0.6106 -0.3671 -0.7089
  160SAPE   H7R17916   4.673   1.405   7.241 -0.9247 -0.1577  2.3011
  160SAPE   H7S17917   4.809   1.422   7.349 -0.8210 -0.5392 -0.5659
  160SAPE   C2817918   4.798   1.226   7.264 -0.1500 -0.1700  0.8020
  160SAPE   H8R17919   4.801   1.169   7.170  0.5089 -0.6836  1.1286
  160SAPE   C2917920   4.810   1.156   7.375 -0.0707  0.2839  0.0192
  160SAPE   H9R17921   4.822   1.047   7.366  2.7302  0.6430 -2.2283
  160SAPE  C21017922   4.806   1.213   7.522 -0.6746  0.0691  0.3184
  160SAPE  H10R17923   4.698   1.222   7.544 -0.8502  0.2604 -0.5854
  160SAPE  H10S17924   4.847   1.317   7.522  2.0458 -0.8705 -1.9690
  160SAPE  C21117925   4.875   1.115   7.619  0.3652  0.6399  0.0097
  160SAPE  H11R17926   4.846   1.009   7.609  1.4404  0.1548  1.6966
  160SAPE  C21217927   4.957   1.156   7.716  0.8061  0.3067  0.1269
  160SAPE  H12R17928   5.009   1.072   7.765  0.6171 -1.4472 -2.4367
  160SAPE  C21317929   5.018   1.288   7.742  0.2807 -0.5516 -0.3891
  160SAPE  H13R17930   4.946   1.368   7.715 -1.6550 -2.8059 -2.3573
  160SAPE  H13S17931   5.107   1.288   7.675  0.3849 -0.3514 -0.2511
  160SAPE  C21417932   5.070   1.292   7.879 -0.2701  0.2787 -0.9157
  160SAPE  H14R17933   5.026   1.225   7.955  2.4976 -2.8544 -1.8310
  160SAPE  C21517934   5.184   1.357   7.908 -0.5668  0.3411  0.2902
  160SAPE  H15R17935   5.199   1.361   8.017  1.5422 -0.5989  0.0814
  160SAPE  C21617936   5.280   1.442   7.830  0.5945  0.2650 -1.1207
  160SAPE  H16R17937   5.241   1.458   7.727 -0.5127  0.4323 -0.6891
  160SAPE  H16S17938   5.371   1.379   7.827 -0.5998 -1.5796 -0.2335
  160SAPE  C21717939   5.308   1.584   7.895  0.3409 -0.9030  0.3199
  160SAPE  H17R17940   5.238   1.669   7.882  1.7759  0.1056 -1.3505
  160SAPE  H17S17941   5.396   1.632   7.847  1.5732  0.7706  3.9227
  160SAPE  C21817942   5.345   1.571   8.034  0.1004  0.3102  0.3788
  160SAPE  H18R17943   5.414   1.484   8.043  1.0663  1.0252 -0.0226
  160SAPE  H18S17944   5.247   1.549   8.082 -0.5437 -0.8907 -1.3746
  160SAPE  C21917945   5.388   1.704   8.088  0.1939 -0.1674 -0.3200
  160SAPE  H19R17946   5.294   1.763   8.084 -0.2715 -0.7237  1.4576
  160SAPE  H19S17947   5.456   1.748   8.013  0.5606  2.8950  1.6278
  160SAPE  C22017948   5.457   1.710   8.220  0.9581  0.1824  0.0010
  160SAPE  H20R17949   5.519   1.802   8.234  0.1010  0.7412  0.2138
  160SAPE  H20S17950   5.514   1.615   8.228 -0.4947 -0.6964  0.2793
  160SAPE  H20T17951   5.388   1.724   8.306  0.2329 -0.2182 -0.5029
  160SAPE   C3317952   5.055   0.761   7.085  0.0667 -0.2906  0.5359
  160SAPE   H3X17953   5.154   0.807   7.068  0.0937 -0.5222  0.0267
  160SAPE   H3Y17954   5.083   0.654   7.069  3.1315  0.5890 -0.5564
  160SAPE   C3417955   5.004   0.800   7.225 -0.5125 -0.3342 -0.0624
  160SAPE   H4X17956   4.898   0.766   7.228 -0.5832 -0.1169 -0.0252
  160SAPE   H4Y17957   4.994   0.910   7.234 -0.0788 -0.3614  0.8393
  160SAPE   C3517958   5.085   0.739   7.332  0.2864 -0.2170 -0.5362
  160SAPE   H5X17959   5.182   0.792   7.338 -0.2047  0.5042  1.7169
  160SAPE   H5Y17960   5.100   0.629   7.330 -1.2606 -0.4727  0.4284
  160SAPE   C3617961   5.016   0.779   7.470 -0.1445 -0.9141 -0.9428
  160SAPE   H6X17962   4.907   0.758   7.478  0.3960 -3.9605 -0.4251
  160SAPE   H6Y17963   5.018   0.890   7.479 -1.2350 -0.9634  0.1971
  160SAPE   C3717964   5.074   0.699   7.584 -0.3694 -0.3857 -0.1258
  160SAPE   H7X17965   5.180   0.727   7.603 -0.6278  0.4050  0.1675
  160SAPE   H7Y17966   5.065   0.591   7.559 -0.3872 -0.2098 -0.9092
  160SAPE   C3817967   4.987   0.721   7.719 -0.1742  0.0044 -0.0884
  160SAPE   H8X17968   4.898   0.655   7.715  1.9180 -3.0654  0.3343
  160SAPE   H8Y17969   4.967   0.828   7.742  0.0946  0.2585 -1.0248
  160SAPE   C3917970   5.061   0.655   7.840 -0.0312 -0.4653 -0.3438
  160SAPE   H9X17971   5.168   0.685   7.847  1.0376 -4.0303  1.3810
  160SAPE   H9Y17972   5.061   0.544   7.834 -0.1324 -0.6060  1.5674
  160SAPE  C31017973   5.002   0.709   7.974 -0.0391 -0.2529 -0.3202
  160SAPE  H10X17974   5.039   0.644   8.056 -0.5747 -1.3975 -0.9501
  160SAPE  H10Y17975   4.893   0.691   7.978 -0.2306  0.8909  4.1095
  160SAPE  C31117976   5.022   0.857   8.006 -0.5129 -0.1128  0.8958
  160SAPE  H11X17977   4.963   0.914   7.930 -1.4631  3.0952  3.7614
  160SAPE  H11Y17978   5.129   0.883   7.993 -0.7784  0.2847 -0.7265
  160SAPE  C31217979   4.971   0.895   8.148 -0.1426 -0.2132  0.0429
  160SAPE  H12X17980   5.041   0.833   8.209 -0.5960 -0.8664 -0.0866
  160SAPE  H12Y17981   4.869   0.864   8.182  0.0347 -0.8220  0.0329
  160SAPE  C31317982   4.986   1.042   8.189  0.2217  0.3505 -0.1529
  160SAPE  H13X17983   4.903   1.100   8.143 -2.4001 -3.6757 -1.0106
  160SAPE  H13Y17984   5.080   1.079   8.141  2.3189 -2.2794  1.5919
  160SAPE  C31417985   5.005   1.059   8.342  0.5610 -0.0577 -0.3125
  160SAPE  H14X17986   5.065   0.982   8.395 -0.4345 -0.5270  0.1710
  160SAPE  H14Y17987   4.904   1.050   8.389  1.2830 -0.7827  1.1595
  160SAPE  C31517988   5.062   1.195   8.379  0.2532  0.0814 -0.1789
  160SAPE  H15X17989   5.033   1.223   8.482  3.9028  3.8985  0.1165
  160SAPE  H15Y17990   5.012   1.274   8.319 -0.8136  0.7124  1.4627
  160SAPE  C31617991   5.215   1.217   8.374  0.0006 -0.2048  0.2426
  160SAPE  H16X17992   5.242   1.188   8.270 -0.4475  1.3499 -0.3337
  160SAPE  H16Y17993   5.274   1.152   8.442 -0.6088 -1.1092 -0.0805
  160SAPE  C31717994   5.251   1.362   8.399 -0.1563 -0.1927  0.2669
  160SAPE  H17X17995   5.203   1.405   8.490 -1.2197  0.6007 -0.6400
  160SAPE  H17Y17996   5.202   1.423   8.320 -0.4201 -0.5701  0.1370
  160SAPE  C31817997   5.402   1.403   8.406 -0.8080 -0.3940 -0.4838
  160SAPE  H18X17998   5.458   1.362   8.492  2.6094  0.8166 -1.9053
  160SAPE  H18Y17999   5.420   1.513   8.415 -0.2574 -0.4298 -1.0354
  160SAPE  H18Z18000   5.460   1.368   8.318 -0.7107 -1.9268  0.1691
  161SAPE     N18001   0.915   4.542   6.267 -0.3239 -0.2247 -0.7381
  161SAPE   HN118002   0.874   4.637   6.259  0.6822  0.2757 -0.1472
  161SAPE   HN218003   0.833   4.477   6.269 -0.1592 -0.4272  1.3893
  161SAPE   HN318004   0.966   4.524   6.356 -0.2888 -2.5632 -1.1719
  161SAPE   C1218005   1.028   4.512   6.172 -0.0940  0.2507 -0.0471
  161SAPE  H12A18006   1.122   4.564   6.200  0.3580 -0.8923  0.6449
  161SAPE  H12B18007   0.992   4.557   6.077  0.6129  1.0513  0.0543
  161SAPE   C1118008   1.059   4.365   6.164  0.3550  0.8378 -0.0980
  161SAPE  H11A18009   1.128   4.357   6.077  0.0895  1.6823 -0.3997
  161SAPE  H11B18010   0.965   4.309   6.143  0.3460  0.9449 -0.3475
  161SAPE     P18011   1.168   4.184   6.313  0.1118 -0.1158  0.4951
  161SAPE   O1318012   1.186   4.103   6.187  0.0357  0.3906 -0.4254
  161SAPE   O1418013   1.290   4.199   6.392  0.3016 -0.6083  0.9523
  161SAPE   O1218014   1.109   4.319   6.285 -0.3032  0.2622 -0.1963
  161SAPE   O1118015   1.050   4.115   6.395  0.1993 -0.9510 -0.5140
  161SAPE    C118016   0.975   4.196   6.489  0.0833  0.4202 -0.0163
  161SAPE    HA18017   0.937   4.294   6.452 -0.8408  0.2625  0.4794
  161SAPE    HB18018   0.882   4.142   6.518 -0.5605  0.4942 -1.8081
  161SAPE    C218019   1.046   4.206   6.624  0.0909  0.0310 -0.2200
  161SAPE    HS18020   1.142   4.261   6.607  0.2362 -0.8552 -2.4834
  161SAPE   O2118021   1.068   4.073   6.673 -0.1589 -0.0231  0.2957
  161SAPE   C2118022   1.165   4.046   6.744 -0.6530  0.7491 -0.3617
  161SAPE   O2218023   1.257   4.116   6.782  0.0171  0.4904 -0.0283
  161SAPE   C2218024   1.169   3.896   6.780  0.0388 -0.4465  0.1917
  161SAPE   H2R18025   1.094   3.844   6.717 -0.7953  2.0009 -0.9560
  161SAPE   H2S18026   1.271   3.861   6.754  0.7123  2.6182 -1.8036
  161SAPE    C318027   0.967   4.292   6.725 -0.0006  0.0281  0.7930
  161SAPE    HX18028   0.865   4.250   6.733  0.2502 -0.5781  0.8660
  161SAPE    HY18029   0.945   4.391   6.680  0.7397 -0.1000  0.1240
  161SAPE   O3118030   1.029   4.307   6.857  0.5969  0.0976 -0.3281
  161SAPE   C3118031   1.113   4.405   6.880  0.4709 -0.6409  0.7422
  161SAPE   O3218032   1.151   4.485   6.792 -0.2629  0.1202 -0.6014
  161SAPE   C3218033   1.155   4.399   7.022 -0.5708 -0.2309  0.4502
  161SAPE   H2X18034   1.245   4.464   7.030  0.5052 -1.3461 -1.6636
  161SAPE   H2Y18035   1.181   4.293   7.046  0.1822 -0.1096  0.2121
  161SAPE   C2318036   1.145   3.874   6.926  0.2792  0.9847 -0.3966
  161SAPE   H3R18037   1.200   3.946   6.990 -3.0820  2.8996  0.5232
  161SAPE   H3S18038   1.176   3.768   6.940 -1.9235  0.2062 -0.9784
  161SAPE   C2418039   0.996   3.877   6.963 -0.5875  0.2783 -0.4426
  161SAPE   H4R18040   0.976   3.813   7.052 -0.7516  0.5061 -0.3129
  161SAPE   H4S18041   0.933   3.840   6.880 -0.6876 -1.2666  0.2841
  161SAPE   C2518042   0.955   4.013   6.993  0.1177 -0.7632  0.3982
  161SAPE   H5R18043   0.972   4.081   6.908 -2.5226 -0.4336  0.0673
  161SAPE   C2618044   0.910   4.061   7.113  0.2821  0.0928  0.7054
  161SAPE   H6R18045   0.874   4.165   7.112 -1.4010 -0.2706 -4.0627
  161SAPE   C2718046   0.886   3.989   7.244  0.0106  0.1703 -0.5034
  161SAPE   H7R18047   0.828   4.066   7.299  1.1767  0.7225 -0.0159
  161SAPE   H7S18048   0.984   3.988   7.297  1.0788  2.6427 -2.2234
  161SAPE   C2818049   0.821   3.853   7.253 -0.5100 -0.0192 -0.2913
  161SAPE   H8R18050   0.754   3.829   7.169  0.1636 -1.6581 -0.4024
  161SAPE   C2918051   0.822   3.771   7.363  0.6370  0.3574 -0.1903
  161SAPE   H9R18052   0.765   3.677   7.361  1.9595 -0.4830 -2.0006
  161SAPE  C21018053   0.888   3.798   7.492  0.2920 -0.3146 -0.3869
  161SAPE  H10R18054   0.844   3.890   7.535  0.1771 -0.4658 -0.1754
  161SAPE  H10S18055   0.997   3.812   7.478  0.3719 -0.8579 -0.3353
  161SAPE  C21118056   0.881   3.699   7.608  0.0766  0.2065 -0.8559
  161SAPE  H11R18057   0.965   3.629   7.613  0.3547  0.6119  1.1182
  161SAPE  C21218058   0.772   3.695   7.693 -0.1953  0.1436  0.0903
  161SAPE  H12R18059   0.767   3.609   7.762 -0.0410  0.8489  0.9959
  161SAPE  C21318060   0.651   3.782   7.700  0.6120 -0.2367  0.9002
  161SAPE  H13R18061   0.677   3.890   7.698 -1.2720  0.2623 -1.3281
  161SAPE  H13S18062   0.598   3.774   7.797 -1.6664 -0.3860 -0.2811
  161SAPE  C21418063   0.537   3.745   7.600 -0.2311  0.3603 -0.6217
  161SAPE  H14R18064   0.514   3.637   7.599 -0.4004  0.3878 -0.0199
  161SAPE  C21518065   0.476   3.827   7.509 -0.4586 -0.6431 -0.4973
  161SAPE  H15R18066   0.405   3.791   7.434 -0.0004 -2.4836 -0.1002
  161SAPE  C21618067   0.497   3.978   7.494 -0.1566 -0.4546 -0.3666
  161SAPE  H16R18068   0.605   3.994   7.476  0.5462 -2.6017  1.5728
  161SAPE  H16S18069   0.479   4.024   7.593  0.1792 -0.6484 -0.2175
  161SAPE  C21718070   0.414   4.052   7.389 -0.4883  0.0826  0.1228
  161SAPE  H17R18071   0.420   4.163   7.401 -1.6797  0.2282 -0.4426
  161SAPE  H17S18072   0.309   4.022   7.413 -0.7519  0.4030 -0.5879
  161SAPE  C21818073   0.445   4.005   7.245  0.2869 -0.0369 -0.3617
  161SAPE  H18R18074   0.430   3.897   7.225  0.5785 -0.3447  0.9965
  161SAPE  H18S18075   0.550   4.034   7.222  1.7206 -2.7467  2.1296
  161SAPE  C21918076   0.351   4.082   7.151 -0.0184 -0.0338 -0.5258
  161SAPE  H19R18077   0.359   4.192   7.163 -1.1254  0.1360 -1.1948
  161SAPE  H19S18078   0.249   4.046   7.176 -0.5159 -0.2475 -2.6952
  161SAPE  C22018079   0.382   4.046   7.001 -0.2615  0.4086  0.0884
  161SAPE  H20R18080   0.475   4.092   6.959 -1.0412 -0.4982 -2.9140
  161SAPE  H20S18081   0.303   4.083   6.932 -0.3069  0.0651 -0.0420
  161SAPE  H20T18082   0.384   3.936   6.989  1.8484  0.2980  1.0145
  161SAPE   C3318083   1.051   4.447   7.127 -0.8826  0.3779  0.4069
  161SAPE   H3X18084   0.976   4.365   7.134 -0.7863  0.3220  0.7988
  161SAPE   H3Y18085   0.998   4.540   7.094 -1.0334  0.0979 -0.1537
  161SAPE   C3418086   1.112   4.460   7.260 -0.8313  0.0605 -0.1229
  161SAPE   H4X18087   1.187   4.542   7.259 -1.4872  0.6639 -0.6406
  161SAPE   H4Y18088   1.168   4.371   7.297 -3.3636 -0.5883  2.5488
  161SAPE   C3518089   1.013   4.495   7.377  0.5017  0.4737 -0.0461
  161SAPE   H5X18090   0.957   4.401   7.396  3.4225 -1.1403  1.4137
  161SAPE   H5Y18091   0.934   4.570   7.359  0.7189  0.8162  0.3905
  161SAPE   C3618092   1.084   4.542   7.502 -0.6732 -0.6305 -0.1827
  161SAPE   H6X18093   1.158   4.620   7.476  0.2222 -0.8718  1.4548
  161SAPE   H6Y18094   1.145   4.456   7.537  0.7371  0.1367 -0.6615
  161SAPE   C3718095   0.993   4.597   7.614 -0.0099  0.8625  0.2109
  161SAPE   H7X18096   0.931   4.515   7.656  1.3041 -0.1234  0.2859
  161SAPE   H7Y18097   0.929   4.683   7.583 -1.9164 -0.6383 -0.1686
  161SAPE   C3818098   1.064   4.657   7.728 -0.3696  0.2862 -0.0147
  161SAPE   H8X18099   0.992   4.686   7.807  1.3578  0.4686  1.5857
  161SAPE   H8Y18100   1.103   4.753   7.689  1.4073  1.3557  3.9372
  161SAPE   C3918101   1.175   4.570   7.787  0.5813  0.0999 -0.1376
  161SAPE   H9X18102   1.229   4.617   7.872  1.1123  1.7306 -1.3315
  161SAPE   H9Y18103   1.263   4.570   7.720  1.2593  1.5728  0.7004
  161SAPE  C31018104   1.138   4.431   7.844 -0.0954 -0.2663  0.0912
  161SAPE  H10X18105   1.241   4.393   7.859  0.6010  1.6700  0.5426
  161SAPE  H10Y18106   1.102   4.373   7.757 -1.1295  0.1706  0.2101
  161SAPE  C31118107   1.036   4.416   7.959 -0.5856  0.5390  0.4408
  161SAPE  H11X18108   0.945   4.467   7.919 -1.4742 -1.4127 -0.1993
  161SAPE  H11Y18109   1.074   4.455   8.055 -2.8891  0.6909  1.3654
  161SAPE  C31218110   0.994   4.274   8.002  0.1524 -0.1151 -0.1542
  161SAPE  H12X18111   1.087   4.215   8.013  0.7095  0.5634 -1.0585
  161SAPE  H12Y18112   0.927   4.226   7.928  0.3368  3.5651 -3.0078
  161SAPE  C31318113   0.918   4.280   8.138  0.0535  0.1623  0.0099
  161SAPE  H13X18114   0.836   4.350   8.112  1.0740  0.1251 -4.1011
  161SAPE  H13Y18115   0.982   4.321   8.219  2.5234 -2.7017 -0.3400
  161SAPE  C31418116   0.887   4.140   8.194 -0.2299  0.3824  0.2564
  161SAPE  H14X18117   0.983   4.091   8.216  0.7247  1.2965 -1.5911
  161SAPE  H14Y18118   0.841   4.080   8.112 -0.3529  0.9952 -0.1362
  161SAPE  C31518119   0.803   4.136   8.318  0.0385  0.0962  0.1225
  161SAPE  H15X18120   0.850   4.212   8.384 -0.5179  0.3630  0.2145
  161SAPE  H15Y18121   0.798   4.035   8.365 -1.0912  0.1609  0.1714
  161SAPE  C31618122   0.651   4.170   8.301 -0.3985  0.1474  1.2485
  161SAPE  H16X18123   0.606   4.118   8.214 -1.2995 -2.4316  3.1448
  161SAPE  H16Y18124   0.635   4.279   8.286  1.1202  0.2209 -0.1349
  161SAPE  C31718125   0.565   4.129   8.418 -0.5628  0.0194  1.2881
  161SAPE  H17X18126   0.617   4.152   8.514  2.5790  0.0219 -0.2915
  161SAPE  H17Y18127   0.548   4.019   8.426  0.4795 -0.2875 -0.2016
  161SAPE  C31818128   0.433   4.200   8.408 -0.0903  0.3425  0.2768
  161SAPE  H18X18129   0.391   4.162   8.312  1.4597  0.5544 -0.5197
  161SAPE  H18Y18130   0.447   4.310   8.399 -1.2060  0.3560 -2.1284
  161SAPE  H18Z18131   0.365   4.191   8.495  0.2589  0.2125  0.5350
  162SAPE     N18132   5.052   1.544   5.885 -0.1714 -0.1922 -0.4808
  162SAPE   HN118133   5.106   1.509   5.967  0.1315  1.9960  0.3219
  162SAPE   HN218134   4.957   1.502   5.891 -0.2728  0.1954  1.1019
  162SAPE   HN318135   5.096   1.505   5.799 -1.4035 -0.1127 -1.1705
  162SAPE   C1218136   5.063   1.689   5.906  0.4907  0.2235  0.2631
  162SAPE  H12A18137   5.011   1.697   6.004  1.6405 -0.3567  0.9381
  162SAPE  H12B18138   5.018   1.742   5.819  2.3346 -0.5503 -1.2478
  162SAPE   C1118139   5.207   1.726   5.915  0.3150  0.3966 -0.4180
  162SAPE  H11A18140   5.212   1.821   5.973  0.4291  0.6175 -0.7904
  162SAPE  H11B18141   5.258   1.739   5.817  0.7098 -1.1945 -0.4463
  162SAPE     P18142   5.413   1.671   6.070 -0.1934  0.3074 -0.2453
  162SAPE   O1318143   5.530   1.661   5.979 -0.0766  0.4315  0.1257
  162SAPE   O1418144   5.400   1.804   6.135  0.2154  0.2443  0.0727
  162SAPE   O1218145   5.277   1.623   5.993 -0.2201  0.2132  0.1535
  162SAPE   O1118146   5.410   1.561   6.178  0.0240  0.3367 -0.2195
  162SAPE    C118147   5.436   1.427   6.150  0.4176  0.4566 -0.1706
  162SAPE    HA18148   5.340   1.373   6.137  1.8762 -2.2318 -0.3809
  162SAPE    HB18149   5.491   1.400   6.058 -2.1077 -0.7023 -1.4454
  162SAPE    C218150   5.515   1.351   6.267  0.5308  0.2654 -0.0228
  162SAPE    HS18151   5.539   1.245   6.245 -0.0226 -0.0931  1.0051
  162SAPE   O2118152   5.436   1.359   6.387 -0.6863 -0.5485 -0.7174
  162SAPE   C2118153   5.469   1.264   6.476  0.5552 -0.7944  0.1874
  162SAPE   O2218154   5.540   1.166   6.452 -0.3570 -0.5584  0.0235
  162SAPE   C2218155   5.403   1.298   6.612 -0.5082 -0.3346  0.4901
  162SAPE   H2R18156   5.472   1.358   6.675  0.0914  2.0443 -2.2114
  162SAPE   H2S18157   5.311   1.354   6.586 -1.2658 -1.3494  0.9412
  162SAPE    C318158   5.644   1.428   6.287  1.4777  0.3261 -0.0486
  162SAPE    HX18159   5.609   1.532   6.304  0.6699  0.0163  0.2291
  162SAPE    HY18160   5.698   1.417   6.190 -2.2667 -0.6021 -2.2425
  162SAPE   O3118161   5.722   1.376   6.393 -0.5715 -0.2271 -0.0598
  162SAPE   C3118162   5.807   1.458   6.436 -0.5888 -1.2900  0.1765
  162SAPE   O3218163   5.833   1.565   6.383 -0.0241  0.6898 -0.0135
  162SAPE   C3218164   5.886   1.393   6.553  0.5544  0.1275  0.7717
  162SAPE   H2X18165   5.928   1.300   6.509 -0.3322 -0.9914  2.1614
  162SAPE   H2Y18166   5.816   1.352   6.629 -1.8621 -0.7520 -1.7724
  162SAPE   C2318167   5.361   1.173   6.695 -0.4413  0.4275 -0.3648
  162SAPE   H3R18168   5.461   1.146   6.735 -0.2265  0.8698 -0.5951
  162SAPE   H3S18169   5.324   1.091   6.631  1.1116 -0.2276 -0.4563
  162SAPE   C2418170   5.242   1.215   6.780  0.1535  0.2372 -0.0859
  162SAPE   H4R18171   5.209   1.119   6.824  0.6001  0.1060 -0.0259
  162SAPE   H4S18172   5.164   1.251   6.710  0.4564 -1.2037 -1.2097
  162SAPE   C2518173   5.289   1.325   6.881 -0.5379  0.3092  0.2019
  162SAPE   H5R18174   5.353   1.405   6.841 -0.2017 -1.2275 -2.6540
  162SAPE   C2618175   5.264   1.319   7.011 -0.3719 -0.0708  0.1904
  162SAPE   H6R18176   5.313   1.396   7.073 -1.7840 -0.0250  1.2866
  162SAPE   C2718177   5.179   1.213   7.085  0.1769 -0.3467  0.4531
  162SAPE   H7R18178   5.098   1.171   7.022 -0.2844  0.7628  0.2867
  162SAPE   H7S18179   5.117   1.260   7.164 -0.1271  0.6211 -0.3476
  162SAPE   C2818180   5.278   1.109   7.122 -0.1857  0.0305  0.8790
  162SAPE   H8R18181   5.329   1.072   7.031 -1.8160  0.0031 -0.0507
  162SAPE   C2918182   5.311   1.057   7.243  0.5387  0.2708 -0.1408
  162SAPE   H9R18183   5.390   0.980   7.250 -1.4519 -1.8547  0.0415
  162SAPE  C21018184   5.245   1.096   7.367  0.6348 -1.0882  0.2176
  162SAPE  H10R18185   5.205   1.008   7.421 -1.0658  0.0306  0.8872
  162SAPE  H10S18186   5.150   1.152   7.350 -1.0015 -4.3154 -2.1952
  162SAPE  C21118187   5.332   1.169   7.461 -0.4472 -0.2652  0.7546
  162SAPE  H11R18188   5.386   1.104   7.530  0.5725  1.0286  1.2292
  162SAPE  C21218189   5.350   1.303   7.467 -0.0437  0.3977  0.3000
  162SAPE  H12R18190   5.415   1.351   7.541  1.4258 -2.2533  0.8567
  162SAPE  C21318191   5.272   1.403   7.382  0.1733  0.6743 -0.7803
  162SAPE  H13R18192   5.266   1.374   7.275  0.0414  0.5271 -0.7324
  162SAPE  H13S18193   5.346   1.484   7.364  1.4648 -0.0999  0.7700
  162SAPE  C21418194   5.140   1.438   7.445  0.2802  0.9301 -0.6950
  162SAPE  H14R18195   5.062   1.360   7.446  1.0609  0.1016 -1.7822
  162SAPE  C21518196   5.103   1.558   7.480  0.2884  0.1574 -0.2548
  162SAPE  H15R18197   5.000   1.574   7.515  1.0107  2.0519  1.2259
  162SAPE  C21618198   5.184   1.685   7.474 -0.1649  0.5485 -0.2094
  162SAPE  H16R18199   5.293   1.667   7.459 -0.5935 -2.7108  0.0260
  162SAPE  H16S18200   5.177   1.737   7.572 -0.8630 -0.2403  0.1706
  162SAPE  C21718201   5.117   1.771   7.371 -0.6741 -0.4304 -0.0104
  162SAPE  H17R18202   5.167   1.870   7.373  1.2414 -1.2923 -1.5211
  162SAPE  H17S18203   5.007   1.785   7.373 -0.5848  0.9627 -2.1019
  162SAPE  C21818204   5.128   1.722   7.226  0.3779 -0.7201  0.9014
  162SAPE  H18R18205   5.063   1.632   7.215  0.0010 -0.2356 -1.1819
  162SAPE  H18S18206   5.227   1.701   7.179 -0.9079  0.7974 -2.8888
  162SAPE  C21918207   5.058   1.835   7.144  0.2310 -0.9849  0.1265
  162SAPE  H19R18208   5.109   1.930   7.169  3.3733 -1.5164 -3.3922
  162SAPE  H19S18209   4.950   1.843   7.170 -0.2655 -0.1237 -1.9801
  162SAPE  C22018210   5.071   1.795   6.996  0.1761  0.0745  0.5451
  162SAPE  H20R18211   5.012   1.704   6.976 -0.0347  0.6945 -1.9749
  162SAPE  H20S18212   5.180   1.779   6.980  1.2854  4.2768  2.3538
  162SAPE  H20T18213   5.033   1.874   6.927 -0.7612  0.2815  1.2705
  162SAPE   C3318214   6.009   1.470   6.609  0.9366 -1.1894 -0.0460
  162SAPE   H3X18215   5.990   1.575   6.642  1.1821 -0.8043 -1.0811
  162SAPE   H3Y18216   6.082   1.479   6.526 -0.3077 -2.6424 -1.3571
  162SAPE   C3418217   6.069   1.396   6.726  0.2181 -0.2466 -0.5041
  162SAPE   H4X18218   6.135   1.316   6.686  1.8756  0.0473  1.4763
  162SAPE   H4Y18219   5.991   1.351   6.792  0.0363  0.8793  0.0682
  162SAPE   C3518220   6.148   1.495   6.809 -0.1242  0.1109 -0.3794
  162SAPE   H5X18221   6.086   1.578   6.847  1.7394  0.6663  1.6604
  162SAPE   H5Y18222   6.222   1.537   6.738 -1.0380  1.4377 -0.5640
  162SAPE   C3618223   6.214   1.438   6.934  0.0159 -0.3444 -0.1117
  162SAPE   H6X18224   6.259   1.518   6.998 -2.6470 -0.3331  1.9181
  162SAPE   H6Y18225   6.284   1.357   6.905  1.1459  0.0459  1.3757
  162SAPE   C3718226   6.107   1.387   7.027 -0.6485 -0.0387 -0.0924
  162SAPE   H7X18227   6.066   1.290   6.992 -1.1057 -1.0149  2.8623
  162SAPE   H7Y18228   6.025   1.457   7.052  0.4677  1.3377 -0.1640
  162SAPE   C3818229   6.171   1.363   7.161 -0.7363  0.7327  0.3577
  162SAPE   H8X18230   6.228   1.455   7.185 -0.3509  2.2269 -4.9664
  162SAPE   H8Y18231   6.244   1.279   7.155  0.2462  1.4611  1.6479
  162SAPE   C3918232   6.068   1.351   7.276 -0.4084  0.3175 -0.2236
  162SAPE   H9X18233   5.997   1.269   7.253  0.4518 -0.4371 -0.2302
  162SAPE   H9Y18234   6.010   1.445   7.292  0.6874  0.7337  1.5520
  162SAPE  C31018235   6.138   1.323   7.414 -0.1378 -0.5764  0.3858
  162SAPE  H10X18236   6.178   1.219   7.418 -0.7301 -0.8524 -0.4577
  162SAPE  H10Y18237   6.056   1.342   7.487 -1.8328  0.3580 -1.6620
  162SAPE  C31118238   6.250   1.418   7.460  0.4077  0.2898  0.4032
  162SAPE  H11X18239   6.221   1.521   7.427 -1.0139 -0.1254  0.2794
  162SAPE  H11Y18240   6.343   1.386   7.409  0.0738 -0.8500  0.4834
  162SAPE  C31218241   6.266   1.401   7.610 -0.0408 -0.6749 -0.6163
  162SAPE  H12X18242   6.259   1.293   7.636  3.1732 -0.3904  2.0250
  162SAPE  H12Y18243   6.178   1.448   7.660  0.2087  0.2949 -1.0826
  162SAPE  C31318244   6.389   1.456   7.684  0.4638  0.7893  0.0340
  162SAPE  H13X18245   6.397   1.565   7.664 -0.7062  1.1264  1.2790
  162SAPE  H13Y18246   6.486   1.418   7.647  0.0397 -0.1087 -0.1698
  162SAPE  C31418247   6.381   1.441   7.837  0.1827  0.2487  0.2369
  162SAPE  H14X18248   6.293   1.498   7.873 -0.1669  0.2838 -0.6348
  162SAPE  H14Y18249   6.476   1.480   7.879 -0.6739  1.9396  0.6714
  162SAPE  C31518250   6.387   1.291   7.882 -1.1141  0.0860  0.2700
  162SAPE  H15X18251   6.480   1.243   7.844 -0.0901  1.7432  0.5772
  162SAPE  H15Y18252   6.295   1.255   7.832 -1.3606  3.3751 -2.0055
  162SAPE  C31618253   6.366   1.269   8.030  0.0435 -0.5068 -0.0675
  162SAPE  H16X18254   6.449   1.323   8.080 -0.9826 -1.2142  2.5673
  162SAPE  H16Y18255   6.381   1.163   8.060  0.1991 -0.7602 -1.0160
  162SAPE  C31718256   6.238   1.327   8.100  0.1701  0.0522  0.7395
  162SAPE  H17X18257   6.162   1.271   8.041  0.2641  0.5719  0.1198
  162SAPE  H17Y18258   6.224   1.436   8.090 -2.0835 -0.3278 -1.0757
  162SAPE  C31818259   6.232   1.275   8.245  0.1037  0.0793 -0.4712
  162SAPE  H18X18260   6.173   1.340   8.313 -0.0137 -1.7784  1.2997
  162SAPE  H18Y18261   6.334   1.285   8.289 -0.0532 -2.0920  0.5017
  162SAPE  H18Z18262   6.195   1.170   8.250 -2.8016  1.0678  1.7364
  163SAPE     N18263   4.735   5.223   6.453 -0.7391  0.0327  0.6891
  163SAPE   HN118264   4.643   5.208   6.408 -1.6732  0.6810  2.2755
  163SAPE   HN218265   4.792   5.294   6.402  1.5630  0.4512  3.5736
  163SAPE   HN318266   4.788   5.135   6.467 -2.2809 -0.5565  3.6927
  163SAPE   C1218267   4.700   5.271   6.594 -0.2672 -0.2677  0.3408
  163SAPE  H12A18268   4.605   5.231   6.636 -0.8054  1.2753  0.6993
  163SAPE  H12B18269   4.681   5.380   6.583 -0.5806 -0.1414  1.9082
  163SAPE   C1118270   4.824   5.244   6.699  0.6407  0.5908 -0.3581
  163SAPE  H11A18271   4.820   5.135   6.722  0.0767  1.0833  2.1299
  163SAPE  H11B18272   4.788   5.289   6.794 -1.8110 -0.4328 -0.7442
  163SAPE     P18273   5.015   5.422   6.693  0.0225 -0.5617  0.1908
  163SAPE   O1318274   5.147   5.403   6.755  0.1803 -0.1953 -0.3462
  163SAPE   O1418275   5.026   5.503   6.574 -0.1761 -0.2405  0.0727
  163SAPE   O1218276   4.954   5.279   6.659 -0.3068 -0.0087  0.6632
  163SAPE   O1118277   4.902   5.491   6.789 -1.2039 -0.0618 -0.2907
  163SAPE    C118278   4.949   5.595   6.873  0.0292 -0.1220 -0.2532
  163SAPE    HA18279   5.012   5.670   6.821 -1.0508  0.3557 -0.9084
  163SAPE    HB18280   4.864   5.656   6.912  1.1068  1.2092  0.0827
  163SAPE    C218281   5.016   5.551   7.005  0.4672  0.3468 -0.0320
  163SAPE    HS18282   5.125   5.545   6.983  0.4019  0.5323 -0.4088
  163SAPE   O2118283   4.959   5.427   7.046 -0.3844 -0.0098 -0.0113
  163SAPE   C2118284   5.059   5.346   7.080  0.2215  0.3079  0.4053
  163SAPE   O2218285   5.179   5.366   7.084  0.3389  0.0823  0.3529
  163SAPE   C2218286   4.994   5.201   7.095 -0.0639 -0.7889  0.1060
  163SAPE   H2R18287   4.967   5.181   6.990  2.2434  1.2663 -0.9983
  163SAPE   H2S18288   5.078   5.135   7.126  4.4513  4.5798  1.0900
  163SAPE    C318289   4.997   5.651   7.121 -1.1655 -0.0915 -0.2060
  163SAPE    HX18290   4.888   5.662   7.141 -1.0517 -0.6835  0.8131
  163SAPE    HY18291   5.026   5.752   7.083 -0.1242  0.4073  1.7979
  163SAPE   O3118292   5.072   5.615   7.243 -0.7779  0.6788  0.1018
  163SAPE   C3118293   5.198   5.642   7.236  0.1891 -0.1091  0.5976
  163SAPE   O3218294   5.254   5.702   7.144 -0.2565  0.3142 -0.6056
  163SAPE   C3218295   5.274   5.599   7.355  0.2303  0.2266  0.6826
  163SAPE   H2X18296   5.340   5.514   7.327 -1.1643 -1.8094  3.0811
  163SAPE   H2Y18297   5.204   5.539   7.417 -0.5017  1.8152  1.4547
  163SAPE   C2318298   4.861   5.198   7.163 -0.6977  0.4351 -0.9352
  163SAPE   H3R18299   4.810   5.102   7.138 -0.0928 -0.0610 -0.2714
  163SAPE   H3S18300   4.781   5.270   7.136 -2.4275  0.0035  2.5110
  163SAPE   C2418301   4.886   5.205   7.318  0.2685 -0.3302 -0.5355
  163SAPE   H4R18302   4.981   5.150   7.339  1.5678  1.6170 -0.9747
  163SAPE   H4S18303   4.799   5.155   7.365 -0.2729  0.7379 -0.3607
  163SAPE   C2518304   4.892   5.342   7.374  0.0906 -0.3215 -0.6035
  163SAPE   H5R18305   4.861   5.416   7.299  1.3497 -1.2773 -2.1649
  163SAPE   C2618306   4.907   5.373   7.501  0.3628 -0.3850  0.0416
  163SAPE   H6R18307   4.896   5.480   7.526 -3.3325 -0.4296 -0.8686
  163SAPE   C2718308   4.930   5.269   7.611  0.2423 -0.2334  0.5175
  163SAPE   H7R18309   5.038   5.241   7.605  0.3396 -0.0119  1.1213
  163SAPE   H7S18310   4.873   5.178   7.582 -0.7083  0.4915  0.0770
  163SAPE   C2818311   4.888   5.330   7.744  0.6732 -0.5915  0.3127
  163SAPE   H8R18312   4.783   5.323   7.777  0.3780 -0.4972 -0.5957
  163SAPE   C2918313   4.969   5.382   7.831  0.1540 -0.4074  0.1603
  163SAPE   H9R18314   4.929   5.433   7.920  1.0394  1.3639 -0.4185
  163SAPE  C21018315   5.115   5.401   7.816 -0.0453 -0.3425  0.1603
  163SAPE  H10R18316   5.121   5.511   7.803 -1.0368 -0.3298 -0.2217
  163SAPE  H10S18317   5.166   5.352   7.731 -0.2466 -1.9564  0.9264
  163SAPE  C21118318   5.182   5.351   7.937 -0.4164  0.6419 -0.5648
  163SAPE  H11R18319   5.153   5.253   7.977  0.5486  0.7742  0.5252
  163SAPE  C21218320   5.284   5.404   8.005  1.2307  0.3455 -0.8589
  163SAPE  H12R18321   5.307   5.367   8.105 -1.0623 -2.4580 -1.2671
  163SAPE  C21318322   5.345   5.533   7.974  0.3083  0.2897  0.1188
  163SAPE  H13R18323   5.294   5.617   8.025  1.3290  0.7652  0.3947
  163SAPE  H13S18324   5.323   5.567   7.871  1.2813 -0.0550 -0.2128
  163SAPE  C21418325   5.495   5.545   7.991  0.2664  0.2859  0.3428
  163SAPE  H14R18326   5.552   5.455   7.964  2.1366  2.0435 -1.9747
  163SAPE  C21518327   5.554   5.663   8.016 -0.0410 -0.4486  0.5642
  163SAPE  H15R18328   5.663   5.676   8.026 -0.1572  0.3085  0.9500
  163SAPE  C21618329   5.488   5.799   8.046 -0.4968  0.2252  0.5553
  163SAPE  H16R18330   5.378   5.788   8.057 -0.3361 -1.2186  1.0251
  163SAPE  H16S18331   5.514   5.873   7.968  1.5699 -0.0319  0.9518
  163SAPE  C21718332   5.544   5.841   8.193  0.5458  0.1173  0.4687
  163SAPE  H17R18333   5.492   5.939   8.202 -1.3376 -0.7485 -0.3433
  163SAPE  H17S18334   5.652   5.868   8.191  0.9130 -1.1453  1.8797
  163SAPE  C21818335   5.494   5.748   8.310 -0.1092 -0.4089  0.4683
  163SAPE  H18R18336   5.471   5.647   8.269  1.6008  0.5107 -3.2387
  163SAPE  H18S18337   5.410   5.804   8.355  1.8633  1.9610  1.4804
  163SAPE  C21918338   5.598   5.725   8.424 -0.4339  0.4521 -0.6178
  163SAPE  H19R18339   5.686   5.675   8.378  2.3165  0.4752  4.0467
  163SAPE  H19S18340   5.554   5.657   8.500  1.3027  1.4331  1.3658
  163SAPE  C22018341   5.647   5.854   8.498  0.5504 -0.5134  0.4105
  163SAPE  H20R18342   5.729   5.909   8.447 -0.9624  2.5121  0.9816
  163SAPE  H20S18343   5.683   5.831   8.600 -3.4217 -0.8338  1.9069
  163SAPE  H20T18344   5.561   5.918   8.526  0.4009 -0.8351  0.6965
  163SAPE   C3318345   5.338   5.712   7.437  0.0176  0.2155 -0.1678
  163SAPE   H3X18346   5.260   5.776   7.483  0.0254  0.0736  0.0441
  163SAPE   H3Y18347   5.405   5.766   7.367  0.6076  0.2743  0.4269
  163SAPE   C3418348   5.428   5.645   7.550  0.1465  0.0266 -1.0266
  163SAPE   H4X18349   5.493   5.580   7.487  2.5451  2.0564 -0.8218
  163SAPE   H4Y18350   5.363   5.585   7.618 -1.5213  1.2665 -1.4622
  163SAPE   C3518351   5.512   5.746   7.639  0.7403  0.1448 -0.4996
  163SAPE   H5X18352   5.564   5.673   7.704  0.5673  0.8461  0.4358
  163SAPE   H5Y18353   5.437   5.795   7.704  0.1416 -1.7995  0.3384
  163SAPE   C3618354   5.614   5.834   7.566 -0.1649  0.1786 -1.3498
  163SAPE   H6X18355   5.572   5.925   7.517  2.2217  1.8013 -0.5314
  163SAPE   H6Y18356   5.678   5.772   7.500 -0.2442 -2.3962  0.8130
  163SAPE   C3718357   5.705   5.903   7.678  0.2854 -0.6506  0.5128
  163SAPE   H7X18358   5.643   5.930   7.767  0.4745  0.1495  0.4110
  163SAPE   H7Y18359   5.737   6.002   7.637  1.2233 -0.7634  0.9391
  163SAPE   C3818360   5.828   5.821   7.723  0.3489  0.0634 -0.6344
  163SAPE   H8X18361   5.891   5.800   7.634 -0.8733  0.1754 -1.5462
  163SAPE   H8Y18362   5.797   5.727   7.773  1.5240  0.7767  1.6072
  163SAPE   C3918363   5.907   5.895   7.830 -0.7466 -0.1406  0.3175
  163SAPE   H9X18364   5.930   6.000   7.805 -1.1421  0.2219  1.4030
  163SAPE   H9Y18365   6.007   5.847   7.826 -0.3896  0.3406  2.2883
  163SAPE  C31018366   5.855   5.897   7.974 -0.2833 -0.3024 -0.4891
  163SAPE  H10X18367   5.825   5.799   8.017 -0.6842  0.4223  0.9190
  163SAPE  H10Y18368   5.766   5.961   7.988  0.3462  0.4935 -0.0387
  163SAPE  C31118369   5.957   5.960   8.073 -0.0269 -0.0735  0.8782
  163SAPE  H11X18370   5.979   6.068   8.057  0.8599 -0.3606  0.1125
  163SAPE  H11Y18371   6.048   5.909   8.036  1.4369  1.1484  2.6236
  163SAPE  C31218372   5.926   5.927   8.217  0.4805  0.1132 -0.2836
  163SAPE  H12X18373   5.860   5.838   8.223  0.3286  0.2981  0.8585
  163SAPE  H12Y18374   5.886   6.017   8.267  0.7742  0.7134 -1.1033
  163SAPE  C31318375   6.058   5.883   8.293 -0.4589  0.8592  0.1549
  163SAPE  H13X18376   6.127   5.969   8.276  2.3127 -1.0161  1.0611
  163SAPE  H13Y18377   6.103   5.800   8.233 -3.0205 -0.2207 -0.3858
  163SAPE  C31418378   6.040   5.856   8.439 -0.1442  0.0276  0.0457
  163SAPE  H14X18379   5.962   5.777   8.439 -0.5783  0.4056  1.7520
  163SAPE  H14Y18380   5.994   5.947   8.483  1.7116  1.5341 -0.9689
  163SAPE  C31518381   6.154   5.793   8.514 -0.3821  0.6225  0.4591
  163SAPE  H15X18382   6.244   5.853   8.490 -0.1105 -0.4644 -1.4961
  163SAPE  H15Y18383   6.169   5.688   8.480 -1.9857  1.2280 -2.4720
  163SAPE  C31618384   6.130   5.779   8.666  0.6041  0.5146 -0.7236
  163SAPE  H16X18385   6.051   5.704   8.687  1.3364 -0.2349 -0.6038
  163SAPE  H16Y18386   6.092   5.880   8.692 -0.1108  1.4135 -4.6451
  163SAPE  C31718387   6.258   5.751   8.742 -0.1027 -0.5849 -1.0078
  163SAPE  H17X18388   6.334   5.827   8.715  1.2792 -1.4440  0.3513
  163SAPE  H17Y18389   6.305   5.654   8.714 -0.1739 -0.2605 -2.3447
  163SAPE  C31818390   6.243   5.739   8.892  0.1973 -0.7730 -0.2031
  163SAPE  H18X18391   6.190   5.646   8.920  2.3411 -2.6466 -1.9208
  163SAPE  H18Y18392   6.209   5.832   8.942  2.0603  0.2832 -0.8088
  163SAPE  H18Z18393   6.346   5.732   8.934  0.1815 -0.2418 -0.0728
  164SAPE     N18394   6.655   2.513   5.889 -0.6049  0.6552  0.3465
  164SAPE   HN118395   6.590   2.433   5.874 -0.3026  0.5361 -0.3516
  164SAPE   HN218396   6.667   2.522   5.992 -0.2472 -2.4246  0.6722
  164SAPE   HN318397   6.604   2.597   5.854 -0.8737 -0.1733 -1.3740
  164SAPE   C1218398   6.794   2.488   5.826 -0.1708  0.3640 -0.2774
  164SAPE  H12A18399   6.849   2.584   5.834 -0.1331  0.4216 -1.1124
  164SAPE  H12B18400   6.772   2.467   5.719 -2.0236  0.8263 -0.0138
  164SAPE   C1118401   6.860   2.365   5.901 -0.4582 -0.2649  0.0642
  164SAPE  H11A18402   6.867   2.396   6.007  0.4298  0.3214 -0.1566
  164SAPE  H11B18403   6.961   2.346   5.858 -0.3122  2.0238 -0.7572
  164SAPE     P18404   6.799   2.122   5.804  0.6140  0.2480  0.1013
  164SAPE   O1318405   6.671   2.064   5.760 -1.2385 -0.4007  0.4190
  164SAPE   O1418406   6.901   2.140   5.704 -0.1172  0.6606  0.4629
  164SAPE   O1218407   6.776   2.253   5.873  0.4221  0.2113 -0.3413
  164SAPE   O1118408   6.851   2.036   5.920 -0.2533 -0.0389 -0.0390
  164SAPE    C118409   6.771   2.021   6.036  1.3181  0.0971  0.0671
  164SAPE    HA18410   6.671   2.071   6.030  0.6575 -1.1622  0.3429
  164SAPE    HB18411   6.746   1.914   6.049  1.6945  0.0629  0.5281
  164SAPE    C218412   6.836   2.081   6.160 -0.2568  0.3424 -0.3593
  164SAPE    HS18413   6.842   2.190   6.138 -1.3284  0.6772  0.8673
  164SAPE   O2118414   6.964   2.019   6.183 -0.1795  0.0616  0.2394
  164SAPE   C2118415   7.044   2.088   6.264  0.4162 -0.3215 -0.4384
  164SAPE   O2218416   7.028   2.206   6.301  0.8081  0.3210  0.1460
  164SAPE   C2218417   7.159   1.998   6.294 -0.2603  0.2653 -0.0082
  164SAPE   H2R18418   7.198   1.950   6.201 -1.0380 -2.5047  0.9881
  164SAPE   H2S18419   7.242   2.059   6.334  0.8605  0.8790 -2.9720
  164SAPE    C318420   6.728   2.076   6.279  0.1069 -0.2479  0.1847
  164SAPE    HX18421   6.706   1.967   6.290  0.1979 -0.2857 -0.0095
  164SAPE    HY18422   6.628   2.119   6.258  0.1587 -1.3975 -2.9647
  164SAPE   O3118423   6.780   2.107   6.414 -0.0381 -0.4643 -0.4735
  164SAPE   C3118424   6.774   2.234   6.430 -0.0316 -0.0859 -0.7390
  164SAPE   O3218425   6.740   2.321   6.350  1.2468 -0.2444  0.0250
  164SAPE   C3218426   6.832   2.262   6.573  0.3928 -0.8651 -0.1938
  164SAPE   H2X18427   6.887   2.359   6.582  1.0460 -1.1596 -0.9498
  164SAPE   H2Y18428   6.908   2.186   6.598  0.1834 -0.9708  0.1184
  164SAPE   C2318429   7.123   1.880   6.383 -0.2154  0.0858  0.5692
  164SAPE   H3R18430   7.208   1.809   6.390  0.4391  0.6379 -1.3407
  164SAPE   H3S18431   7.051   1.811   6.333 -0.8207  1.9669 -1.2772
  164SAPE   C2418432   7.079   1.912   6.529 -0.0969  0.6554  0.3038
  164SAPE   H4R18433   7.051   1.810   6.562 -2.0458  0.8039 -0.7700
  164SAPE   H4S18434   6.984   1.963   6.504 -1.4953 -1.9929 -0.1501
  164SAPE   C2518435   7.176   1.990   6.612 -0.0440 -0.2480  0.4050
  164SAPE   H5R18436   7.233   2.064   6.554 -1.0533 -0.7371 -1.2870
  164SAPE   C2618437   7.209   1.962   6.740  0.3563 -0.2719 -0.3437
  164SAPE   H6R18438   7.276   2.028   6.797 -0.6425  1.3038 -0.9319
  164SAPE   C2718439   7.137   1.850   6.818  0.1845 -0.3171 -0.7393
  164SAPE   H7R18440   7.189   1.845   6.916 -2.6144  0.9539  0.9200
  164SAPE   H7S18441   7.155   1.756   6.762 -2.3200 -0.2974 -1.7022
  164SAPE   C2818442   6.988   1.871   6.842  0.2210  0.0785 -0.8142
  164SAPE   H8R18443   6.937   1.887   6.746 -1.8031 -0.1359  0.1748
  164SAPE   C2918444   6.925   1.877   6.958  0.3163  0.3406 -0.3258
  164SAPE   H9R18445   6.816   1.891   6.959  0.3235  0.4964 -1.0365
  164SAPE  C21018446   6.985   1.853   7.096 -0.2005  0.2508  0.8852
  164SAPE  H10R18447   7.013   1.749   7.124  1.3223  0.5909  0.7156
  164SAPE  H10S18448   6.888   1.861   7.149 -0.7927  0.2169 -0.1703
  164SAPE  C21118449   7.081   1.956   7.150  0.0871  0.6546 -0.2578
  164SAPE  H11R18450   7.041   2.058   7.138 -0.2407  0.6756  0.9063
  164SAPE  C21218451   7.190   1.935   7.215 -0.5705 -0.1335  0.4627
  164SAPE  H12R18452   7.236   2.022   7.264  2.2395 -0.8258 -0.7387
  164SAPE  C21318453   7.238   1.797   7.247 -0.0150 -1.1565 -0.5800
  164SAPE  H13R18454   7.271   1.742   7.155  2.1801  0.1552 -0.6439
  164SAPE  H13S18455   7.153   1.740   7.289 -1.1737  0.9096 -0.0049
  164SAPE  C21418456   7.354   1.794   7.342 -0.0082  0.0862 -0.1141
  164SAPE  H14R18457   7.448   1.820   7.293 -0.1389  0.8908  0.0488
  164SAPE  C21518458   7.342   1.770   7.473  0.2409  0.2653 -0.5581
  164SAPE  H15R18459   7.439   1.769   7.525  1.0768 -0.9911 -2.0512
  164SAPE  C21618460   7.226   1.726   7.556  0.0531  0.4287  0.1262
  164SAPE  H16R18461   7.151   1.677   7.491 -0.6425  0.2423  1.0545
  164SAPE  H16S18462   7.182   1.823   7.590 -3.1644 -0.7858 -0.1960
  164SAPE  C21718463   7.265   1.638   7.672  0.1134  0.4817 -0.3736
  164SAPE  H17R18464   7.355   1.683   7.720 -0.9142  1.8035  0.3785
  164SAPE  H17S18465   7.295   1.535   7.641  1.1482  0.0045  1.9938
  164SAPE  C21818466   7.152   1.630   7.789  0.0247 -0.5393 -0.2971
  164SAPE  H18R18467   7.057   1.591   7.747 -0.5785 -0.0251  0.5603
  164SAPE  H18S18468   7.138   1.735   7.824 -1.6516 -0.2859 -1.6148
  164SAPE  C21918469   7.191   1.540   7.901 -0.7137  0.0893 -0.3614
  164SAPE  H19R18470   7.182   1.438   7.857 -2.8243  0.9871 -2.2334
  164SAPE  H19S18471   7.118   1.541   7.984  0.6049 -0.7683  0.8588
  164SAPE  C22018472   7.333   1.568   7.955 -0.5294 -0.0072 -0.0066
  164SAPE  H20R18473   7.403   1.548   7.871 -1.8356  0.4659 -1.2492
  164SAPE  H20S18474   7.360   1.517   8.050  3.0227  2.3475  0.4374
  164SAPE  H20T18475   7.336   1.677   7.973 -1.7555 -0.2876  2.3099
  164SAPE   C3318476   6.720   2.263   6.677  0.3543 -0.3350 -0.2646
  164SAPE   H3X18477   6.662   2.169   6.663 -0.0681  0.0152 -0.9287
  164SAPE   H3Y18478   6.652   2.350   6.668  1.2500  0.7591  2.5884
  164SAPE   C3418479   6.787   2.275   6.815 -0.1605 -0.2735  0.1478
  164SAPE   H4X18480   6.829   2.376   6.833 -2.4504  0.9244 -0.8414
  164SAPE   H4Y18481   6.880   2.215   6.823  0.6536  1.2053  2.7500
  164SAPE   C3518482   6.692   2.232   6.923  0.2116  0.7923 -0.4442
  164SAPE   H5X18483   6.653   2.134   6.889 -0.8275  1.7533 -2.1745
  164SAPE   H5Y18484   6.614   2.307   6.946  0.7651  0.8227  1.4754
  164SAPE   C3618485   6.771   2.205   7.054  0.1894  0.6421  0.5126
  164SAPE   H6X18486   6.834   2.295   7.070  2.9852 -0.6695 -2.0675
  164SAPE   H6Y18487   6.846   2.126   7.033  0.0554  0.9028 -1.0372
  164SAPE   C3718488   6.685   2.167   7.177 -0.4458  0.3874  0.6853
  164SAPE   H7X18489   6.608   2.098   7.136  1.7734 -1.4167 -0.6849
  164SAPE   H7Y18490   6.621   2.256   7.195  0.9764  1.9119 -1.3588
  164SAPE   C3818491   6.751   2.109   7.304 -0.2518  0.1280 -0.5533
  164SAPE   H8X18492   6.796   2.010   7.279 -1.2831 -1.6155  3.5823
  164SAPE   H8Y18493   6.677   2.085   7.383 -0.0634  3.0486  0.6254
  164SAPE   C3918494   6.851   2.201   7.375  0.5184  0.3635  0.4187
  164SAPE   H9X18495   6.806   2.293   7.418 -0.5850  0.2484 -0.4476
  164SAPE   H9Y18496   6.924   2.224   7.295  0.1817 -4.3799 -1.6043
  164SAPE  C31018497   6.925   2.120   7.492 -0.2284  0.2528  0.6424
  164SAPE  H10X18498   6.976   2.032   7.448  1.7202  1.1743  0.9638
  164SAPE  H10Y18499   6.853   2.087   7.570  1.8055 -1.8058  1.7767
  164SAPE  C31118500   7.041   2.205   7.556  0.7724 -0.5036 -0.5025
  164SAPE  H11X18501   7.005   2.301   7.598  2.2250 -0.3775  0.5236
  164SAPE  H11Y18502   7.120   2.221   7.479 -1.0609  2.0987 -2.0047
  164SAPE  C31218503   7.094   2.126   7.678 -0.1762  0.0330 -0.4055
  164SAPE  H12X18504   7.121   2.026   7.639 -0.4851 -0.2902  0.2024
  164SAPE  H12Y18505   7.006   2.110   7.744 -0.4117  4.1434  0.5608
  164SAPE  C31318506   7.212   2.195   7.747  0.3638  0.4718  0.3872
  164SAPE  H13X18507   7.176   2.291   7.791 -1.6142  0.2289 -0.5828
  164SAPE  H13Y18508   7.295   2.206   7.675  1.7537 -2.2235  1.4483
  164SAPE  C31418509   7.260   2.096   7.854 -0.5073  0.1879 -0.0227
  164SAPE  H14X18510   7.358   2.142   7.880 -0.5930 -0.8765  2.5001
  164SAPE  H14Y18511   7.281   1.992   7.820  1.7411  0.9776 -1.3043
  164SAPE  C31518512   7.170   2.093   7.975 -0.4378 -0.2977  0.0756
  164SAPE  H15X18513   7.071   2.049   7.949 -2.0150  3.0021  0.0901
  164SAPE  H15Y18514   7.145   2.200   7.989  1.6901  0.0810  1.4704
  164SAPE  C31618515   7.250   2.058   8.098  0.1348 -0.0753 -0.4015
  164SAPE  H16X18516   7.299   2.142   8.150  1.7907 -1.6220  0.6684
  164SAPE  H16Y18517   7.331   1.992   8.061 -0.0030 -0.1426 -0.5878
  164SAPE  C31718518   7.167   1.990   8.208  0.4517 -0.4186  0.1601
  164SAPE  H17X18519   7.082   2.055   8.238  0.1000 -1.8898  2.7013
  164SAPE  H17Y18520   7.234   1.977   8.295 -1.0110  2.2749  1.8240
  164SAPE  C31818521   7.108   1.847   8.182  0.1356  0.1501  0.5760
  164SAPE  H18X18522   7.192   1.776   8.172 -0.3735 -0.7493  2.3258
  164SAPE  H18Y18523   7.044   1.843   8.091  1.8312 -1.7982 -0.6171
  164SAPE  H18Z18524   7.059   1.810   8.275  0.1592  0.0877  0.5629
  165SAPE     N18525   0.268   0.349   6.261 -0.2321 -0.4344  0.5703
  165SAPE   HN118526   0.348   0.284   6.273 -1.4273 -2.0293  0.2571
  165SAPE   HN218527   0.241   0.357   6.161  1.5441  0.3507  0.1181
  165SAPE   HN318528   0.280   0.447   6.294 -0.7061  0.9404 -2.9473
  165SAPE   C1218529   0.139   0.306   6.328 -0.1279 -0.6951 -0.8314
  165SAPE  H12A18530   0.063   0.386   6.317 -0.1413 -0.7216 -0.9376
  165SAPE  H12B18531   0.158   0.283   6.435 -3.3610 -0.5815 -0.1346
  165SAPE   C1118532   0.095   0.171   6.273  0.2183  0.2714  0.5804
  165SAPE  H11A18533   0.060   0.197   6.170 -0.6688  2.2892  1.3351
  165SAPE  H11B18534   0.007   0.140   6.334 -1.6339  0.8777 -1.6403
  165SAPE     P18535   0.145  -0.084   6.238  0.0200  0.1488 -0.1822
  165SAPE   O1318536   0.005  -0.110   6.286 -0.6718  0.3162  0.3764
  165SAPE   O1418537   0.165  -0.109   6.094 -0.7006 -0.1765  0.1454
  165SAPE   O1218538   0.195   0.068   6.277 -0.5275  0.2881  0.4297
  165SAPE   O1118539   0.238  -0.169   6.330  0.5289  0.0803  0.1143
  165SAPE    C118540   0.296  -0.112   6.453  0.0177  0.5394  0.5558
  165SAPE    HA18541   0.402  -0.100   6.423  0.8844 -1.4949  2.5491
  165SAPE    HB18542   0.248  -0.015   6.480  1.1269  1.5632 -0.9804
  165SAPE    C218543   0.284  -0.196   6.578 -0.1010  0.1444  0.1649
  165SAPE    HS18544   0.325  -0.129   6.658 -0.6746  1.7324 -0.8246
  165SAPE   O2118545   0.349  -0.322   6.562  0.7007  0.5430  0.1241
  165SAPE   C2118546   0.445  -0.361   6.651  0.7489  0.2813  0.4983
  165SAPE   O2218547   0.497  -0.300   6.741 -0.5550 -0.1429  0.3458
  165SAPE   C2218548   0.463  -0.505   6.637  0.5496  0.4027  0.0348
  165SAPE   H2R18549   0.369  -0.545   6.596  0.6202 -0.4791  0.6952
  165SAPE   H2S18550   0.553  -0.516   6.572  1.2326 -1.5409  1.2117
  165SAPE    C318551   0.136  -0.225   6.617 -0.1652 -0.6790 -0.1101
  165SAPE    HX18552   0.078  -0.238   6.522  0.6916  0.1580 -0.7662
  165SAPE    HY18553   0.094  -0.131   6.658 -0.7625 -0.2200 -1.6948
  165SAPE   O3118554   0.116  -0.336   6.706  0.5929 -0.0529 -0.5166
  165SAPE   C3118555   0.001  -0.335   6.777  0.5486  0.2177 -0.7836
  165SAPE   O3218556  -0.084  -0.250   6.762 -0.6050  0.0141  0.2583
  165SAPE   C3218557   0.010  -0.441   6.882 -0.5149 -0.3169  0.4186
  165SAPE   H2X18558   0.092  -0.410   6.951  0.2893  0.3217 -0.8010
  165SAPE   H2Y18559   0.059  -0.530   6.836 -0.0703 -0.8508  1.8409
  165SAPE   C2318560   0.493  -0.574   6.775 -0.2944  0.0308  0.6781
  165SAPE   H3R18561   0.566  -0.517   6.837  1.0217 -2.2255  1.3047
  165SAPE   H3S18562   0.542  -0.670   6.753 -2.0235 -0.7707  0.1305
  165SAPE   C2418563   0.360  -0.606   6.847 -0.5148  0.5886 -0.1799
  165SAPE   H4R18564   0.301  -0.683   6.792 -0.8177  0.9594 -0.3750
  165SAPE   H4S18565   0.295  -0.516   6.852 -0.1647  0.7864  1.4261
  165SAPE   C2518566   0.396  -0.654   6.989  1.1538  0.0668 -0.2138
  165SAPE   H5R18567   0.403  -0.764   6.994 -2.1939 -0.2247  1.1790
  165SAPE   C2618568   0.404  -0.567   7.094  0.5025  1.0283  0.0477
  165SAPE   H6R18569   0.432  -0.614   7.189 -0.2727 -2.6411 -1.3643
  165SAPE   C2718570   0.386  -0.419   7.100  0.5918  0.4730 -0.5806
  165SAPE   H7R18571   0.278  -0.397   7.115  0.8234  0.4470  1.5095
  165SAPE   H7S18572   0.410  -0.360   7.009  0.0402  3.0879  0.8778
  165SAPE   C2818573   0.457  -0.341   7.205 -0.2246  0.2569  0.7754
  165SAPE   H8R18574   0.539  -0.277   7.169 -0.4071  0.4205  0.6447
  165SAPE   C2918575   0.437  -0.347   7.339  0.5328  0.2212  0.6962
  165SAPE   H9R18576   0.510  -0.291   7.399 -0.1119  2.7342 -0.7113
  165SAPE  C21018577   0.335  -0.428   7.417  0.7575  0.1440 -0.8668
  165SAPE  H10R18578   0.388  -0.473   7.504 -0.7923  0.7218  0.4101
  165SAPE  H10S18579   0.289  -0.502   7.348  2.3192 -0.8212 -0.9383
  165SAPE  C21118580   0.218  -0.352   7.468  0.0242 -1.0901  0.5402
  165SAPE  H11R18581   0.148  -0.323   7.388  0.8051  0.4411  0.3669
  165SAPE  C21218582   0.188  -0.314   7.587 -0.3713  0.6367 -0.2509
  165SAPE  H12R18583   0.102  -0.247   7.603 -0.0633  1.0552 -0.3371
  165SAPE  C21318584   0.280  -0.341   7.698  0.3062 -0.1153 -0.4115
  165SAPE  H13R18585   0.387  -0.318   7.678  0.3970 -0.1476  0.0219
  165SAPE  H13S18586   0.280  -0.451   7.718 -3.3323 -0.1619  0.0794
  165SAPE  C21418587   0.247  -0.247   7.818 -0.0137  0.0012 -0.0867
  165SAPE  H14R18588   0.293  -0.147   7.818  1.9251 -0.8306 -1.5996
  165SAPE  C21518589   0.167  -0.283   7.922 -0.4456 -0.3584  0.6194
  165SAPE  H15R18590   0.153  -0.212   8.005 -2.8949  1.5156 -1.2538
  165SAPE  C21618591   0.117  -0.429   7.932 -0.0823  0.2641 -0.0609
  165SAPE  H16R18592   0.125  -0.498   7.846 -1.3499  0.6901 -0.5489
  165SAPE  H16S18593   0.008  -0.425   7.954  0.2170 -2.2933  2.5138
  165SAPE  C21718594   0.172  -0.510   8.053 -0.5419  0.7258 -0.7255
  165SAPE  H17R18595   0.096  -0.591   8.059  1.1584 -0.8468  1.5327
  165SAPE  H17S18596   0.173  -0.440   8.139  0.8590 -0.3555  0.1893
  165SAPE  C21818597   0.318  -0.561   8.024  0.6733  0.2906 -0.4913
  165SAPE  H18R18598   0.387  -0.481   8.059 -1.5787  1.9558  0.3452
  165SAPE  H18S18599   0.326  -0.563   7.914 -1.9030 -0.7795 -0.7322
  165SAPE  C21918600   0.362  -0.690   8.086 -0.2128 -0.2533 -0.0529
  165SAPE  H19R18601   0.470  -0.693   8.061  0.2353  0.6401  1.6332
  165SAPE  H19S18602   0.308  -0.772   8.035 -1.0463 -0.5616  1.2638
  165SAPE  C22018603   0.336  -0.703   8.240 -0.1026  0.2247  0.0961
  165SAPE  H20R18604   0.384  -0.795   8.278  0.9730  0.4631 -0.6414
  165SAPE  H20S18605   0.230  -0.716   8.270  0.1657  0.3361  1.1361
  165SAPE  H20T18606   0.375  -0.615   8.295  1.4895 -0.5466  0.2440
  165SAPE   C3318607  -0.120  -0.473   6.948 -0.1131  0.3870 -0.2099
  165SAPE   H3X18608  -0.118  -0.573   6.998  2.2794  0.2528 -0.4621
  165SAPE   H3Y18609  -0.208  -0.475   6.880  0.1010 -2.5202 -0.5659
  165SAPE   C3418610  -0.145  -0.371   7.058  0.0460 -1.2109 -0.4909
  165SAPE   H4X18611  -0.241  -0.397   7.108 -0.0058  0.5090  0.3903
  165SAPE   H4Y18612  -0.155  -0.268   7.018  2.2025 -0.7830 -0.0349
  165SAPE   C3518613  -0.043  -0.355   7.177 -0.3749  0.4941 -0.6161
  165SAPE   H5X18614   0.059  -0.336   7.137 -0.1562  0.7175  0.0435
  165SAPE   H5Y18615  -0.033  -0.454   7.227 -0.7256  0.6208 -0.2961
  165SAPE   C3618616  -0.081  -0.242   7.277 -0.6798 -0.1556 -0.6677
  165SAPE   H6X18617  -0.122  -0.152   7.227 -1.2108  1.5893  2.6151
  165SAPE   H6Y18618   0.010  -0.213   7.334  0.8962 -2.0814 -2.0694
  165SAPE   C3718619  -0.184  -0.304   7.378 -0.0991 -0.4271  0.4934
  165SAPE   H7X18620  -0.140  -0.404   7.395 -0.7072 -1.5410 -3.5312
  165SAPE   H7Y18621  -0.286  -0.319   7.336 -0.8971  1.4013  1.6476
  165SAPE   C3818622  -0.197  -0.214   7.508  0.3904  0.6416  0.2552
  165SAPE   H8X18623  -0.262  -0.134   7.467  0.4355  1.1603  1.1945
  165SAPE   H8Y18624  -0.091  -0.188   7.528  1.4184 -2.2420 -0.8165
  165SAPE   C3918625  -0.261  -0.290   7.627  0.6394  0.1304 -0.4741
  165SAPE   H9X18626  -0.215  -0.391   7.627  0.9459  0.2684  0.3069
  165SAPE   H9Y18627  -0.370  -0.291   7.605  0.8334 -0.7834 -1.5180
  165SAPE  C31018628  -0.226  -0.224   7.760  0.3889  0.0755  0.0692
  165SAPE  H10X18629  -0.280  -0.127   7.767  2.2953  1.1817  0.1774
  165SAPE  H10Y18630  -0.120  -0.204   7.787  0.5366 -1.8929  1.1370
  165SAPE  C31118631  -0.263  -0.321   7.872  0.5877  0.0165 -0.0552
  165SAPE  H11X18632  -0.224  -0.423   7.856  2.8092  0.6975  0.6720
  165SAPE  H11Y18633  -0.374  -0.317   7.876  0.5566 -0.3952 -0.4704
  165SAPE  C31218634  -0.221  -0.277   8.007  0.1465 -0.5242 -0.8950
  165SAPE  H12X18635  -0.259  -0.175   8.030  0.7593 -0.2630 -1.0099
  165SAPE  H12Y18636  -0.110  -0.266   8.001  0.1213  0.5923  0.2329
  165SAPE  C31318637  -0.262  -0.368   8.120  0.1478  0.7038 -0.6334
  165SAPE  H13X18638  -0.202  -0.460   8.104  0.3197  0.7004  0.0186
  165SAPE  H13Y18639  -0.372  -0.379   8.108 -0.1114  0.9898  1.2750
  165SAPE  C31418640  -0.228  -0.302   8.254 -0.3113  0.3951  0.3906
  165SAPE  H14X18641  -0.278  -0.358   8.336 -0.0874 -0.1673  0.1489
  165SAPE  H14Y18642  -0.253  -0.194   8.248  0.1297  0.4106 -1.8925
  165SAPE  C31518643  -0.072  -0.311   8.277  0.0024  0.2760  0.4901
  165SAPE  H15X18644  -0.032  -0.259   8.188 -0.2858 -1.1535 -0.4981
  165SAPE  H15Y18645  -0.036  -0.416   8.277  1.2579  0.6329  2.8340
  165SAPE  C31618646  -0.026  -0.244   8.404 -0.5325 -0.3355 -0.0441
  165SAPE  H16X18647  -0.069  -0.294   8.493  0.1181 -1.1034 -0.1424
  165SAPE  H16Y18648  -0.077  -0.145   8.405 -0.1266 -0.0779 -1.7491
  165SAPE  C31718649   0.128  -0.227   8.422  0.0629  0.5071  0.1915
  165SAPE  H17X18650   0.178  -0.175   8.338  0.3394 -1.2082 -0.7658
  165SAPE  H17Y18651   0.169  -0.330   8.427 -3.1293 -0.9062  0.0364
  165SAPE  C31818652   0.151  -0.150   8.550 -0.2923  0.1568 -0.5264
  165SAPE  H18X18653   0.093  -0.211   8.622  1.2834 -0.7524  0.0131
  165SAPE  H18Y18654   0.125  -0.042   8.550 -1.3459 -0.0624  1.3745
  165SAPE  H18Z18655   0.259  -0.164   8.571  0.0226  0.8428 -1.6256
  166SAPE     N18656   6.150   2.843   6.078  0.3526  0.0216  0.2095
  166SAPE   HN118657   6.198   2.896   6.154  0.5014  1.9867 -1.1873
  166SAPE   HN218658   6.145   2.913   6.002 -0.8636 -0.7971 -0.5085
  166SAPE   HN318659   6.059   2.800   6.106  0.7110  0.0708  1.5547
  166SAPE   C1218660   6.231   2.724   6.034  0.1714  0.2323  0.4098
  166SAPE  H12A18661   6.175   2.680   5.949 -2.2068  0.3302  1.8039
  166SAPE  H12B18662   6.224   2.645   6.112 -1.0830 -1.6958 -1.5463
  166SAPE   C1118663   6.379   2.750   6.002 -0.0666  0.1018  0.1369
  166SAPE  H11A18664   6.416   2.651   5.969  0.0638  0.0963  0.2948
  166SAPE  H11B18665   6.429   2.775   6.099 -0.3765 -0.4837  0.4488
  166SAPE     P18666   6.546   2.875   5.856 -0.3296  0.1805  0.1541
  166SAPE   O1318667   6.573   2.748   5.778  0.3260 -0.4757 -0.0171
  166SAPE   O1418668   6.565   3.009   5.786  0.1420  0.0094  0.0745
  166SAPE   O1218669   6.394   2.860   5.905 -0.4073 -0.4637 -0.5209
  166SAPE   O1118670   6.632   2.876   5.987 -0.0045  0.1361  0.2870
  166SAPE    C118671   6.609   2.977   6.086 -0.0535 -0.1376 -0.1412
  166SAPE    HA18672   6.630   3.080   6.050  0.9667  0.7288  2.6599
  166SAPE    HB18673   6.505   2.969   6.123  0.2176 -1.5110  0.3711
  166SAPE    C218674   6.702   2.955   6.208  0.0138  0.2545 -0.0548
  166SAPE    HS18675   6.676   2.852   6.238 -0.0577  0.1611 -0.4280
  166SAPE   O2118676   6.692   3.059   6.302 -0.3708 -0.5725  0.0106
  166SAPE   C2118677   6.597   3.045   6.391 -0.5279  0.2498  0.3004
  166SAPE   O2218678   6.522   2.947   6.397  0.1236  0.3101 -0.2095
  166SAPE   C2218679   6.581   3.168   6.472 -0.3487 -0.0647  0.3735
  166SAPE   H2R18680   6.631   3.246   6.411 -1.3992 -1.2986 -2.2132
  166SAPE   H2S18681   6.477   3.204   6.478 -0.2595  0.0756  1.3257
  166SAPE    C318682   6.855   2.947   6.171  0.1585 -0.1703 -0.0996
  166SAPE    HX18683   6.871   3.018   6.087  0.3688  0.3419  0.3677
  166SAPE    HY18684   6.887   2.848   6.131  1.2512 -0.0748  0.4901
  166SAPE   O3118685   6.937   2.994   6.276 -0.3761  0.4984  0.1370
  166SAPE   C3118686   6.964   2.905   6.373 -0.5269  0.5077  0.5346
  166SAPE   O3218687   6.929   2.788   6.374 -0.1830 -0.1541  0.2471
  166SAPE   C3218688   7.040   2.966   6.487 -0.3372 -0.2756 -0.7214
  166SAPE   H2X18689   6.981   3.055   6.516  1.6249  1.4000 -1.6643
  166SAPE   H2Y18690   7.138   3.005   6.453  0.9136  0.2560  2.9633
  166SAPE   C2318691   6.641   3.165   6.616 -0.1930 -0.4055 -0.0233
  166SAPE   H3R18692   6.643   3.269   6.654  0.5616 -0.8666  1.2642
  166SAPE   H3S18693   6.748   3.136   6.609 -0.4219 -1.8574  1.8046
  166SAPE   C2418694   6.567   3.077   6.719  0.2045 -0.2383 -0.1058
  166SAPE   H4R18695   6.595   3.117   6.819  1.6313  1.9721 -1.3282
  166SAPE   H4S18696   6.589   2.968   6.712 -2.5280 -0.7705 -2.3279
  166SAPE   C2518697   6.414   3.108   6.707 -0.4359  0.0676 -0.8771
  166SAPE   H5R18698   6.367   3.090   6.609 -1.6636 -2.1242  0.0577
  166SAPE   C2618699   6.325   3.137   6.810  0.0284  0.9290 -0.1787
  166SAPE   H6R18700   6.218   3.137   6.784  0.3430  0.2897 -1.5701
  166SAPE   C2718701   6.354   3.138   6.958  0.4082 -0.3514  0.8386
  166SAPE   H7R18702   6.260   3.167   7.011  1.0188  0.2401  1.6116
  166SAPE   H7S18703   6.431   3.217   6.969  2.3511 -1.7118 -1.8365
  166SAPE   C2818704   6.409   3.010   7.008 -0.4384 -0.3731  0.5580
  166SAPE   H8R18705   6.443   2.932   6.939  0.5877  1.9413 -1.7672
  166SAPE   C2918706   6.434   3.003   7.139 -0.5791  0.0011 -0.0561
  166SAPE   H9R18707   6.487   2.913   7.173 -0.1237  0.1152 -0.4481
  166SAPE  C21018708   6.417   3.125   7.233  0.2830 -0.3482 -0.3004
  166SAPE  H10R18709   6.425   3.220   7.176  1.1155 -0.7408 -0.8621
  166SAPE  H10S18710   6.498   3.146   7.306  0.0850 -0.3066 -0.0911
  166SAPE  C21118711   6.292   3.126   7.314 -0.4578  0.0189 -0.1396
  166SAPE  H11R18712   6.212   3.190   7.273  0.3718 -0.6119 -2.9925
  166SAPE  C21218713   6.265   3.049   7.425  0.0581  0.0514 -0.4530
  166SAPE  H12R18714   6.166   3.065   7.469 -0.3263 -2.8382 -0.0531
  166SAPE  C21318715   6.353   2.950   7.498  0.2949  1.0291 -0.3244
  166SAPE  H13R18716   6.453   2.945   7.448 -0.3343 -0.1500 -1.5260
  166SAPE  H13S18717   6.300   2.853   7.499  0.7042  0.7725  1.9732
  166SAPE  C21418718   6.379   2.994   7.640 -0.8228  0.4665 -0.2126
  166SAPE  H14R18719   6.397   3.102   7.651  0.7884  0.2089 -0.2017
  166SAPE  C21518720   6.394   2.907   7.742 -0.4314  0.6092 -0.8501
  166SAPE  H15R18721   6.425   2.949   7.838 -0.1324 -2.5875  0.5705
  166SAPE  C21618722   6.382   2.756   7.754 -0.2844 -0.4046  0.4254
  166SAPE  H16R18723   6.480   2.721   7.794  0.1567  0.5822  0.2594
  166SAPE  H16S18724   6.373   2.709   7.654  1.5385 -0.1723  0.1020
  166SAPE  C21718725   6.265   2.717   7.839 -0.4530 -0.9177  0.5374
  166SAPE  H17R18726   6.236   2.614   7.808 -0.3740 -0.0134 -2.9868
  166SAPE  H17S18727   6.174   2.771   7.806  0.8826 -0.5590 -3.0288
  166SAPE  C21818728   6.294   2.745   7.985  0.0957  0.2433 -0.1004
  166SAPE  H18R18729   6.195   2.761   8.033 -0.4165 -0.2510 -0.9636
  166SAPE  H18S18730   6.355   2.836   8.001 -0.7665  0.6611  0.8671
  166SAPE  C21918731   6.356   2.622   8.042 -0.4920  0.3542 -0.0753
  166SAPE  H19R18732   6.459   2.607   8.003 -0.9971 -3.0967 -0.4235
  166SAPE  H19S18733   6.301   2.528   8.019 -2.1349  0.4352  3.0903
  166SAPE  C22018734   6.359   2.627   8.199 -0.4106  0.1187  0.6278
  166SAPE  H20R18735   6.255   2.637   8.237 -0.7496  1.6582 -0.6350
  166SAPE  H20S18736   6.397   2.725   8.233  1.4989  0.4276 -2.0823
  166SAPE  H20T18737   6.424   2.546   8.240  0.4929 -1.5036 -3.5483
  166SAPE   C3318738   7.081   2.879   6.612  0.8984 -0.3616  0.5148
  166SAPE   H3X18739   7.160   2.936   6.666 -1.6352  1.9593  2.0346
  166SAPE   H3Y18740   7.094   2.771   6.590 -0.2511 -0.0779 -1.7725
  166SAPE   C3418741   6.975   2.889   6.718 -0.0175  1.0005 -0.0771
  166SAPE   H4X18742   6.871   2.911   6.686 -0.2395  3.2679  1.9236
  166SAPE   H4Y18743   6.990   2.975   6.786 -0.8071  1.1909 -0.1350
  166SAPE   C3518744   6.972   2.757   6.802  0.0338 -0.3255 -0.4751
  166SAPE   H5X18745   7.071   2.723   6.839 -0.0777  0.2688  0.3882
  166SAPE   H5Y18746   6.938   2.681   6.728  0.1889 -0.6860 -0.1772
  166SAPE   C3618747   6.857   2.747   6.899 -0.3860  0.2178  0.5808
  166SAPE   H6X18748   6.856   2.653   6.959  1.0015  0.2498  0.6908
  166SAPE   H6Y18749   6.765   2.765   6.839 -0.2559 -0.8551  0.0434
  166SAPE   C3718750   6.867   2.858   7.007 -0.0464 -0.6872  0.0574
  166SAPE   H7X18751   6.823   2.951   6.965 -1.2603  0.1319  2.8920
  166SAPE   H7Y18752   6.976   2.863   7.027  0.1096  0.0772 -0.8976
  166SAPE   C3818753   6.782   2.826   7.135  0.2794  0.3358 -0.0142
  166SAPE   H8X18754   6.675   2.828   7.106 -0.2169 -0.6219  1.5936
  166SAPE   H8Y18755   6.804   2.904   7.211 -0.8522 -0.1061  0.7880
  166SAPE   C3918756   6.798   2.688   7.205 -0.1707  0.1402 -0.6437
  166SAPE   H9X18757   6.902   2.673   7.241 -0.3801 -1.8525 -0.7401
  166SAPE   H9Y18758   6.781   2.598   7.143  0.0697 -1.6900  1.8034
  166SAPE  C31018759   6.720   2.683   7.336 -0.0097  0.2980 -0.6742
  166SAPE  H10X18760   6.729   2.584   7.387  0.9174  0.4818 -0.4458
  166SAPE  H10Y18761   6.614   2.705   7.315 -0.3103 -2.3228 -2.3085
  166SAPE  C31118762   6.785   2.778   7.443  0.0086 -0.0783  0.7633
  166SAPE  H11X18763   6.750   2.882   7.425 -0.8271 -0.6788 -1.4116
  166SAPE  H11Y18764   6.894   2.786   7.423  0.0824  1.4087  1.5896
  166SAPE  C31218765   6.765   2.728   7.595 -0.5664 -0.7278 -0.2483
  166SAPE  H12X18766   6.825   2.635   7.605 -2.6153 -1.9338  1.9272
  166SAPE  H12Y18767   6.659   2.703   7.619 -1.9508  1.8823 -2.9579
  166SAPE  C31318768   6.800   2.830   7.701 -0.6404 -0.3042 -0.2295
  166SAPE  H13X18769   6.726   2.913   7.696  0.4884  0.8828  1.5349
  166SAPE  H13Y18770   6.900   2.867   7.670  0.8318 -1.9140  2.2711
  166SAPE  C31418771   6.815   2.773   7.844 -0.3722 -0.0812  0.1474
  166SAPE  H14X18772   6.912   2.718   7.847 -0.3256 -0.1470 -1.8187
  166SAPE  H14Y18773   6.736   2.697   7.862  0.1727 -0.4341  1.1848
  166SAPE  C31518774   6.805   2.884   7.951  0.9747  0.0220  0.0992
  166SAPE  H15X18775   6.702   2.925   7.952  1.1646  0.9000 -3.5977
  166SAPE  H15Y18776   6.872   2.962   7.910  0.7995 -0.0319 -0.2970
  166SAPE  C31618777   6.815   2.836   8.100 -0.5404  0.1083 -0.2301
  166SAPE  H16X18778   6.789   2.923   8.165 -1.1463 -1.3349  1.5404
  166SAPE  H16Y18779   6.922   2.819   8.124 -0.4426  1.4668  0.4104
  166SAPE  C31718780   6.721   2.725   8.141  0.0780  0.0121  0.0457
  166SAPE  H17X18781   6.732   2.637   8.075  1.8584 -1.3273  1.9890
  166SAPE  H17Y18782   6.615   2.751   8.123 -0.2862 -0.7399  1.0345
  166SAPE  C31818783   6.719   2.686   8.286  0.2115 -0.2030 -0.1771
  166SAPE  H18X18784   6.812   2.632   8.311  1.5500  1.4830 -1.2714
  166SAPE  H18Y18785   6.637   2.612   8.299 -1.7117  1.0711 -3.5422
  166SAPE  H18Z18786   6.710   2.765   8.364  1.0824 -0.2623 -0.0084
  167SAPE     N18787   1.967   1.780   6.039 -0.1394  0.3943 -0.1982
  167SAPE   HN118788   1.898   1.737   5.974 -0.3981  1.5055 -0.6851
  167SAPE   HN218789   1.985   1.873   5.997 -1.4137 -0.4512 -2.8599
  167SAPE   HN318790   2.058   1.731   6.034  1.8044  3.8245 -1.2270
  167SAPE   C1218791   1.897   1.780   6.179 -0.3253 -0.1369  0.2356
  167SAPE  H12A18792   1.799   1.831   6.167  0.6452  1.8812  0.4761
  167SAPE  H12B18793   1.966   1.843   6.239  2.9526 -3.1101 -0.0284
  167SAPE   C1118794   1.904   1.639   6.242 -0.4390  0.0970 -0.1009
  167SAPE  H11A18795   1.857   1.644   6.343 -0.2666 -0.7986  0.0251
  167SAPE  H11B18796   2.005   1.606   6.271 -0.6546 -0.1550  0.3687
  167SAPE     P18797   1.897   1.410   6.113 -0.2684  0.0251  0.2278
  167SAPE   O1318798   1.856   1.388   5.976  0.3389  0.4019  0.0649
  167SAPE   O1418799   2.041   1.419   6.130 -0.0715 -0.2610  0.2337
  167SAPE   O1218800   1.833   1.545   6.161 -0.4045  0.5321 -0.3683
  167SAPE   O1118801   1.844   1.298   6.194  0.3497 -0.1358 -0.6367
  167SAPE    C118802   1.716   1.242   6.196 -0.0286 -0.0484  0.4400
  167SAPE    HA18803   1.670   1.254   6.095  0.7223  1.4442  0.2526
  167SAPE    HB18804   1.730   1.133   6.213 -2.9802 -0.2292  2.4250
  167SAPE    C218805   1.632   1.314   6.304  0.5238  0.2263 -0.1811
  167SAPE    HS18806   1.628   1.420   6.271 -0.1637 -0.2551 -1.7330
  167SAPE   O2118807   1.695   1.296   6.435 -1.0017  0.0865  0.0495
  167SAPE   C2118808   1.654   1.384   6.522  0.1082  0.2065  0.1984
  167SAPE   O2218809   1.575   1.477   6.497  0.1704  0.7765  0.3423
  167SAPE   C2218810   1.710   1.354   6.659 -0.4002  0.1665 -0.5771
  167SAPE   H2R18811   1.673   1.252   6.681  1.4984 -1.1598 -2.9858
  167SAPE   H2S18812   1.821   1.354   6.650 -0.3295 -1.2277  0.1372
  167SAPE    C318813   1.486   1.264   6.311 -0.2466  0.0101  0.1003
  167SAPE    HX18814   1.458   1.275   6.204 -0.9045 -0.3877  0.2227
  167SAPE    HY18815   1.429   1.329   6.381 -0.1195  0.9769 -0.6821
  167SAPE   O3118816   1.481   1.122   6.336  0.4318  0.2077 -0.7728
  167SAPE   C3118817   1.449   1.091   6.463  0.0097 -0.3809  0.0262
  167SAPE   O3218818   1.426   1.174   6.553  0.1098  0.1685  0.0786
  167SAPE   C3218819   1.430   0.937   6.473 -0.3036  0.2935  0.4673
  167SAPE   H2X18820   1.533   0.904   6.451 -0.0481  2.0845 -1.2827
  167SAPE   H2Y18821   1.362   0.906   6.391 -0.5894 -0.9943  1.1628
  167SAPE   C2318822   1.679   1.464   6.762  0.2769  0.3001  0.0500
  167SAPE   H3R18823   1.571   1.493   6.770  0.1603  0.3772 -1.4490
  167SAPE   H3S18824   1.727   1.553   6.716  1.2988 -0.1046  0.3096
  167SAPE   C2418825   1.766   1.458   6.888  0.1722  0.2349  0.0929
  167SAPE   H4R18826   1.873   1.473   6.863 -0.2172 -0.4332 -2.1776
  167SAPE   H4S18827   1.745   1.353   6.917 -3.2297  0.3340 -1.4595
  167SAPE   C2518828   1.714   1.553   7.001  0.2935 -0.4091  0.0038
  167SAPE   H5R18829   1.714   1.661   6.981 -0.4141 -0.2389  0.8817
  167SAPE   C2618830   1.685   1.525   7.134  1.1826  0.1722  0.0854
  167SAPE   H6R18831   1.646   1.604   7.201  0.9310  0.8594 -0.8421
  167SAPE   C2718832   1.702   1.392   7.189 -0.0256  0.5085  0.1953
  167SAPE   H7R18833   1.798   1.387   7.244  1.2591 -1.9550 -2.0272
  167SAPE   H7S18834   1.712   1.313   7.111  0.7472 -0.5412  1.3182
  167SAPE   C2818835   1.580   1.355   7.274  0.0817  0.3922  0.9947
  167SAPE   H8R18836   1.491   1.342   7.210 -0.5937 -0.0762  1.9933
  167SAPE   C2918837   1.571   1.331   7.405 -0.3163 -0.9357 -0.3887
  167SAPE   H9R18838   1.472   1.307   7.448  0.1457 -1.7696  0.2485
  167SAPE  C21018839   1.685   1.333   7.501 -0.5673  0.2746 -0.5247
  167SAPE  H10R18840   1.785   1.349   7.456 -1.2164  0.5866 -1.9050
  167SAPE  H10S18841   1.704   1.235   7.549 -3.5009  0.0687  0.4157
  167SAPE  C21118842   1.664   1.441   7.613  0.7326 -0.3664 -0.0777
  167SAPE  H11R18843   1.696   1.542   7.584 -2.3698  0.5854 -0.5677
  167SAPE  C21218844   1.605   1.421   7.737 -0.5113  0.0163  0.5419
  167SAPE  H12R18845   1.585   1.511   7.797 -1.0485  1.6655 -1.9502
  167SAPE  C21318846   1.566   1.288   7.804  0.4260 -0.6353 -0.0195
  167SAPE  H13R18847   1.659   1.257   7.856  0.3817  0.0196  0.4497
  167SAPE  H13S18848   1.550   1.206   7.730 -1.5786 -0.6703  0.3845
  167SAPE  C21418849   1.429   1.296   7.876 -0.0863 -0.2937 -0.1859
  167SAPE  H14R18850   1.339   1.294   7.812  0.0876  1.1083 -0.5205
  167SAPE  C21518851   1.408   1.303   8.008  0.6876 -0.5636 -0.2704
  167SAPE  H15R18852   1.302   1.313   8.039  0.3163 -0.9360 -1.3893
  167SAPE  C21618853   1.513   1.298   8.116 -0.7292  0.8659 -0.2496
  167SAPE  H16R18854   1.614   1.259   8.087  0.3889  2.7697  0.9080
  167SAPE  H16S18855   1.490   1.226   8.197 -2.1862 -0.1386 -1.4947
  167SAPE  C21718856   1.538   1.429   8.195 -0.3440  0.5579 -0.6636
  167SAPE  H17R18857   1.439   1.470   8.224 -0.9912 -0.5154 -1.3111
  167SAPE  H17S18858   1.592   1.501   8.130  0.8839 -1.1041 -1.5472
  167SAPE  C21818859   1.641   1.426   8.307  0.4036 -0.5766 -0.1941
  167SAPE  H18R18860   1.724   1.362   8.269  0.2233 -1.5148  0.9477
  167SAPE  H18S18861   1.594   1.367   8.388  0.9889 -0.3125  0.3462
  167SAPE  C21918862   1.689   1.560   8.368 -0.4919 -0.7904 -0.0511
  167SAPE  H19R18863   1.746   1.620   8.294 -0.9427  0.5762  0.6802
  167SAPE  H19S18864   1.767   1.534   8.442 -0.2808  0.4175  0.1729
  167SAPE  C22018865   1.601   1.672   8.427  0.0428  0.7310  0.4871
  167SAPE  H20R18866   1.662   1.758   8.461 -1.5171  2.1926 -0.2630
  167SAPE  H20S18867   1.553   1.641   8.522 -1.9027  1.9292 -0.0542
  167SAPE  H20T18868   1.526   1.707   8.353  0.7545 -0.5750 -0.9064
  167SAPE   C3318869   1.369   0.894   6.602 -0.2502  0.0787  0.1664
  167SAPE   H3X18870   1.275   0.950   6.619 -0.4292 -1.0999  4.0378
  167SAPE   H3Y18871   1.426   0.929   6.691 -2.1145  2.1825  0.6362
  167SAPE   C3418872   1.319   0.751   6.599 -0.8879  0.4548  0.0268
  167SAPE   H4X18873   1.412   0.690   6.610  0.2604  2.3377  1.4980
  167SAPE   H4Y18874   1.271   0.723   6.503  1.3711 -0.6962 -0.8503
  167SAPE   C3518875   1.216   0.709   6.702 -0.3089 -0.0839 -0.3011
  167SAPE   H5X18876   1.217   0.599   6.710  0.1424 -0.0843 -0.3352
  167SAPE   H5Y18877   1.117   0.744   6.666 -1.0143  2.1807  3.2923
  167SAPE   C3618878   1.243   0.770   6.837  0.0187  0.1514  0.0599
  167SAPE   H6X18879   1.248   0.881   6.841  0.6086  0.1101  0.8233
  167SAPE   H6Y18880   1.345   0.741   6.871  0.1937  0.6057 -0.0692
  167SAPE   C3718881   1.145   0.735   6.953  0.4666  0.1444  0.1492
  167SAPE   H7X18882   1.132   0.627   6.971  0.5635 -0.3527 -2.3124
  167SAPE   H7Y18883   1.043   0.775   6.936  0.6038  0.7176  0.6146
  167SAPE   C3818884   1.181   0.807   7.085 -0.0148  0.2532 -0.2689
  167SAPE   H8X18885   1.199   0.917   7.087 -0.2297  0.4804 -4.1749
  167SAPE   H8Y18886   1.278   0.759   7.111  0.6172  1.3953 -0.4713
  167SAPE   C3918887   1.080   0.769   7.198 -0.1881 -1.0730 -0.6106
  167SAPE   H9X18888   1.063   0.659   7.193 -1.5539 -0.8561 -1.0296
  167SAPE   H9Y18889   0.985   0.824   7.180  0.9746  1.4020  0.2849
  167SAPE  C31018890   1.134   0.814   7.337  0.4174 -0.0501  0.1636
  167SAPE  H10X18891   1.164   0.921   7.334  1.4908 -0.3033  0.9528
  167SAPE  H10Y18892   1.223   0.747   7.345  0.0521 -0.4882  0.6763
  167SAPE  C31118893   1.034   0.780   7.444 -0.7917  0.0864  0.2037
  167SAPE  H11X18894   1.014   0.670   7.442 -1.1608  0.1479 -1.9886
  167SAPE  H11Y18895   0.937   0.832   7.429 -0.7406  0.4312  1.0485
  167SAPE  C31218896   1.097   0.807   7.583 -0.0253 -0.1839 -0.3969
  167SAPE  H12X18897   1.118   0.915   7.595 -0.1353 -0.4187  2.5378
  167SAPE  H12Y18898   1.197   0.761   7.603 -0.7396 -0.9467  1.6709
  167SAPE  C31318899   1.007   0.753   7.699 -0.1588 -0.6856  0.6922
  167SAPE  H13X18900   0.977   0.649   7.672 -1.8938 -0.4809  1.6755
  167SAPE  H13Y18901   0.909   0.806   7.700 -0.1578 -0.6482 -0.5453
  167SAPE  C31418902   1.065   0.767   7.838 -0.5352 -0.4477 -0.3897
  167SAPE  H14X18903   1.148   0.841   7.834  1.6089 -2.3718  3.0214
  167SAPE  H14Y18904   1.102   0.665   7.864  1.9481  0.3723 -0.4645
  167SAPE  C31518905   0.976   0.826   7.950  0.4034  0.1419  0.5375
  167SAPE  H15X18906   0.909   0.753   8.000 -0.1701  1.2480  1.4137
  167SAPE  H15Y18907   0.919   0.901   7.892  0.9261 -1.5843 -2.4788
  167SAPE  C31618908   1.069   0.897   8.049 -0.7861 -0.5684  0.5138
  167SAPE  H16X18909   1.008   0.963   8.114  0.8589  0.1263  1.4103
  167SAPE  H16Y18910   1.146   0.961   8.001  0.7798 -2.1129  0.8405
  167SAPE  C31718911   1.137   0.809   8.150 -0.0488 -0.6429  0.0085
  167SAPE  H17X18912   1.218   0.749   8.104  0.6855 -0.7473  1.3892
  167SAPE  H17Y18913   1.062   0.737   8.190 -1.5463  0.4034 -0.7985
  167SAPE  C31818914   1.200   0.897   8.265  0.0584 -0.5544  0.0223
  167SAPE  H18X18915   1.242   0.824   8.337 -0.4503 -2.6180 -1.6415
  167SAPE  H18Y18916   1.117   0.952   8.315 -0.1594 -0.5248 -0.3633
  167SAPE  H18Z18917   1.282   0.963   8.229 -0.1003 -0.3202  0.0851
  168SAPE     N18918   2.455   2.992   6.338 -0.0089  0.0945 -1.0321
  168SAPE   HN118919   2.487   3.075   6.286  0.6600 -0.1305 -0.9874
  168SAPE   HN218920   2.481   2.908   6.282  0.5663 -0.5195  0.1121
  168SAPE   HN318921   2.353   3.005   6.354  0.5276  2.6591  0.8951
  168SAPE   C1218922   2.516   2.993   6.473 -0.2815 -0.5620  0.0462
  168SAPE  H12A18923   2.478   2.906   6.531 -3.9013  1.4192  0.9163
  168SAPE  H12B18924   2.481   3.084   6.526 -4.4133 -1.7997 -0.2246
  168SAPE   C1118925   2.673   2.991   6.473  0.1116 -0.3094  0.6616
  168SAPE  H11A18926   2.708   2.912   6.403  0.4735  0.5290 -0.1256
  168SAPE  H11B18927   2.695   2.953   6.575 -1.0333 -1.5595  0.4535
  168SAPE     P18928   2.771   3.168   6.308 -0.1044  0.1742 -0.4164
  168SAPE   O1318929   2.869   3.068   6.261 -0.5018  0.4578  0.2333
  168SAPE   O1418930   2.646   3.174   6.227 -0.1834 -0.2526  0.2995
  168SAPE   O1218931   2.726   3.126   6.453 -0.0400  0.1878 -0.1398
  168SAPE   O1118932   2.838   3.313   6.322 -0.1549 -0.0409 -0.1635
  168SAPE    C118933   2.964   3.323   6.384 -0.2784 -0.3974 -0.5526
  168SAPE    HA18934   3.036   3.245   6.349 -0.4780 -0.7169 -0.2537
  168SAPE    HB18935   3.011   3.419   6.356  1.2539 -0.5084  1.4155
  168SAPE    C218936   2.957   3.322   6.541  0.1090  0.5651 -0.1941
  168SAPE    HS18937   2.980   3.218   6.573 -1.4839  0.6209  1.2818
  168SAPE   O2118938   2.825   3.358   6.585 -0.2184 -0.1170  0.2089
  168SAPE   C2118939   2.790   3.318   6.707 -0.3628 -0.0855  0.1166
  168SAPE   O2218940   2.854   3.257   6.789 -0.1404  0.6962  0.3918
  168SAPE   C2218941   2.645   3.375   6.719  0.0093  0.0529  0.2747
  168SAPE   H2R18942   2.648   3.461   6.649  2.7209  0.5538  0.8831
  168SAPE   H2S18943   2.571   3.300   6.683  0.3262  0.4348 -1.2318
  168SAPE    C318944   3.062   3.411   6.607  0.1781  0.0420  0.1913
  168SAPE    HX18945   3.032   3.513   6.577  0.6751 -0.3032 -1.6229
  168SAPE    HY18946   3.163   3.407   6.560 -0.5625 -1.4618 -1.3893
  168SAPE   O3118947   3.074   3.400   6.747  0.0336  0.4538 -0.4149
  168SAPE   C3118948   3.147   3.295   6.800 -0.0218  0.2984 -0.2796
  168SAPE   O3218949   3.214   3.217   6.735  0.2148 -0.4516 -0.1395
  168SAPE   C3218950   3.151   3.294   6.956 -0.0029 -0.3721  0.2439
  168SAPE   H2X18951   3.063   3.249   7.007 -0.3504  1.3119  1.2198
  168SAPE   H2Y18952   3.147   3.401   6.987  0.1883  0.5505 -2.6036
  168SAPE   C2318953   2.617   3.439   6.859  0.4840 -0.9185 -0.0378
  168SAPE   H3R18954   2.630   3.359   6.935  0.0469  0.0082  1.0192
  168SAPE   H3S18955   2.508   3.458   6.863  0.8150  1.3990 -0.7094
  168SAPE   C2418956   2.710   3.560   6.898 -0.3803 -0.0449 -0.0300
  168SAPE   H4R18957   2.694   3.649   6.834 -1.6759 -0.7590 -0.7293
  168SAPE   H4S18958   2.816   3.531   6.882  0.2808  1.8111  0.7638
  168SAPE   C2518959   2.696   3.607   7.044  0.4932 -0.2461  0.1054
  168SAPE   H5R18960   2.630   3.689   7.072 -0.6041 -1.5557  1.5302
  168SAPE   C2618961   2.751   3.546   7.147  0.1425 -0.1864  0.8665
  168SAPE   H6R18962   2.745   3.590   7.248 -0.1185  0.6701  0.4819
  168SAPE   C2718963   2.844   3.430   7.133  0.5610  1.1165  0.1042
  168SAPE   H7R18964   2.934   3.481   7.093  0.7685  0.0775 -0.8150
  168SAPE   H7S18965   2.813   3.373   7.042  0.7987  0.4072  0.4618
  168SAPE   C2818966   2.895   3.334   7.241  1.3152 -0.6937  0.0517
  168SAPE   H8R18967   2.880   3.229   7.211  1.0012 -1.0405  1.3659
  168SAPE   C2918968   2.941   3.373   7.361  0.3374  0.1735 -0.5614
  168SAPE   H9R18969   2.981   3.292   7.424 -1.0634 -1.1056 -1.2512
  168SAPE  C21018970   2.960   3.511   7.407  0.9933 -0.0965 -0.1525
  168SAPE  H10R18971   2.956   3.591   7.330  2.0208  0.7543  0.6297
  168SAPE  H10S18972   3.062   3.519   7.452  0.4068  2.6673  0.8581
  168SAPE  C21118973   2.845   3.534   7.504  0.4650 -0.3949  0.5571
  168SAPE  H11R18974   2.743   3.523   7.466  0.6011  1.7184 -0.5761
  168SAPE  C21218975   2.853   3.573   7.637 -0.5954  0.0161  0.0797
  168SAPE  H12R18976   2.761   3.588   7.696 -1.4582  0.4843 -1.3273
  168SAPE  C21318977   2.983   3.613   7.712  0.5171  0.6739  0.2005
  168SAPE  H13R18978   3.053   3.667   7.644  3.6669 -0.4747  2.3291
  168SAPE  H13S18979   3.033   3.522   7.750  2.2179  1.6892  0.4912
  168SAPE  C21418980   2.955   3.712   7.819  0.5393 -1.0544  0.3153
  168SAPE  H14R18981   2.849   3.738   7.830  0.5534 -0.7162 -0.2791
  168SAPE  C21518982   3.046   3.787   7.887  0.1176  0.2063  0.0238
  168SAPE  H15R18983   3.017   3.860   7.964 -1.9197 -0.7933  0.2691
  168SAPE  C21618984   3.193   3.769   7.859 -0.2590 -0.3567  0.5610
  168SAPE  H16R18985   3.222   3.825   7.767  0.8875  0.4619  1.3880
  168SAPE  H16S18986   3.214   3.662   7.843  1.6662 -0.3530  2.5471
  168SAPE  C21718987   3.287   3.834   7.965 -0.0873 -0.4578 -0.2411
  168SAPE  H17R18988   3.234   3.929   7.983  0.0290 -0.0857 -1.7247
  168SAPE  H17S18989   3.380   3.846   7.906  0.1244 -2.0205 -0.2692
  168SAPE  C21818990   3.313   3.755   8.088  0.2348  0.0171 -0.2954
  168SAPE  H18R18991   3.374   3.667   8.059  0.7391  0.2102  0.1569
  168SAPE  H18S18992   3.219   3.713   8.128  0.2670  1.1187  1.0039
  168SAPE  C21918993   3.411   3.808   8.197  0.2579  0.2758 -0.1549
  168SAPE  H19R18994   3.366   3.896   8.249  1.5154  0.2343  1.0590
  168SAPE  H19S18995   3.513   3.833   8.161  1.1772 -2.4054  0.3718
  168SAPE  C22018996   3.417   3.709   8.319 -0.4642 -0.2436 -0.2283
  168SAPE  H20R18997   3.319   3.665   8.348 -1.4863  0.4870 -2.3630
  168SAPE  H20S18998   3.457   3.761   8.408  0.2518  1.4351 -1.4843
  168SAPE  H20T18999   3.486   3.624   8.299  0.4273  0.4389 -0.1310
  168SAPE   C3319000   3.284   3.225   7.002 -0.1627  0.3650  0.1638
  168SAPE   H3X19001   3.362   3.270   6.937 -0.1496 -1.3127 -1.0431
  168SAPE   H3Y19002   3.276   3.118   6.973  1.5069  0.1678  0.3853
  168SAPE   C3419003   3.314   3.237   7.149 -0.0233 -0.3200 -0.1837
  168SAPE   H4X19004   3.413   3.188   7.162  0.7274  1.2288  0.2431
  168SAPE   H4Y19005   3.239   3.186   7.212 -0.3703  2.3796  1.7645
  168SAPE   C3519006   3.328   3.383   7.199 -0.2075  0.2888  0.0129
  168SAPE   H5X19007   3.232   3.439   7.204 -1.6810 -1.7587 -2.7721
  168SAPE   H5Y19008   3.405   3.415   7.126 -1.7019 -1.8494 -2.7189
  168SAPE   C3619009   3.381   3.376   7.343  0.1369 -0.7777  0.0761
  168SAPE   H6X19010   3.480   3.327   7.329  0.5442 -1.0989  3.2898
  168SAPE   H6Y19011   3.319   3.316   7.413  1.3882  0.0571  2.0235
  168SAPE   C3719012   3.422   3.517   7.403  0.1536  1.0385 -0.2681
  168SAPE   H7X19013   3.345   3.571   7.462 -0.4707  1.0791 -1.1155
  168SAPE   H7Y19014   3.464   3.585   7.326  1.4163  0.4845 -0.1015
  168SAPE   C3819015   3.551   3.509   7.496  0.4822  0.4099  0.0169
  168SAPE   H8X19016   3.637   3.470   7.437  0.4422 -0.5439  0.5725
  168SAPE   H8Y19017   3.540   3.428   7.572 -0.3730  0.6173  0.1271
  168SAPE   C3919018   3.575   3.646   7.559  0.4432 -0.3379 -0.1795
  168SAPE   H9X19019   3.485   3.678   7.616  0.3503  0.7996 -0.9309
  168SAPE   H9Y19020   3.593   3.715   7.474  1.5538  0.0429  0.3351
  168SAPE  C31019021   3.691   3.644   7.652 -0.1331 -0.2491  0.1429
  168SAPE  H10X19022   3.722   3.751   7.657 -2.4802  0.5742 -1.3010
  168SAPE  H10Y19023   3.767   3.574   7.611 -0.2861 -0.1047 -0.3969
  168SAPE  C31119024   3.657   3.593   7.790 -0.5950 -0.8585  0.6009
  168SAPE  H11X19025   3.616   3.489   7.791 -1.1291 -0.7194 -1.8970
  168SAPE  H11Y19026   3.582   3.667   7.824  0.2283  0.3600 -0.2006
  168SAPE  C31219027   3.774   3.597   7.888  0.6079  0.1871 -0.8456
  168SAPE  H12X19028   3.808   3.702   7.888 -2.2185  1.2364 -2.9344
  168SAPE  H12Y19029   3.854   3.524   7.864  0.4398 -0.7230  1.0640
  168SAPE  C31319030   3.720   3.551   8.031 -0.3074 -0.1942 -0.0045
  168SAPE  H13X19031   3.651   3.465   8.018 -0.5115 -0.0816  0.3017
  168SAPE  H13Y19032   3.661   3.635   8.075  0.8773  0.8578 -0.3598
  168SAPE  C31419033   3.832   3.515   8.132  0.1299 -0.0445  0.1871
  168SAPE  H14X19034   3.892   3.607   8.150  1.4349 -1.0099  0.8873
  168SAPE  H14Y19035   3.894   3.438   8.082 -2.4648 -1.8971 -0.3709
  168SAPE  C31519036   3.783   3.468   8.270 -0.0208  0.0028  0.2856
  168SAPE  H15X19037   3.727   3.373   8.280 -1.7890  1.1892  2.4350
  168SAPE  H15Y19038   3.723   3.550   8.314  0.7454  0.5427  0.3471
  168SAPE  C31619039   3.903   3.457   8.368  0.3613 -0.2505  0.3656
  168SAPE  H16X19040   3.972   3.541   8.346  1.7264 -1.4356 -0.0345
  168SAPE  H16Y19041   3.967   3.368   8.348  1.1410  0.7979 -2.2770
  168SAPE  C31719042   3.867   3.470   8.512 -0.6035 -0.5393  0.1344
  168SAPE  H17X19043   3.768   3.424   8.528 -0.6635  0.0768  1.7169
  168SAPE  H17Y19044   3.857   3.581   8.521 -1.7703 -0.3198 -2.7317
  168SAPE  C31819045   3.974   3.419   8.606 -0.0209  0.0398 -0.1680
  168SAPE  H18X19046   4.077   3.441   8.571 -0.4070 -0.6927 -1.8802
  168SAPE  H18Y19047   3.969   3.309   8.623  0.3119  0.3160  1.9888
  168SAPE  H18Z19048   3.952   3.463   8.705  0.3251 -1.9262  0.8358
  169SAPE     N19049   1.444   5.449   6.086  0.4899 -0.5721 -0.7031
  169SAPE   HN119050   1.357   5.462   6.142 -0.0707  0.2600 -1.7415
  169SAPE   HN219051   1.458   5.532   6.025  3.0353  0.5686  1.2320
  169SAPE   HN319052   1.423   5.361   6.034 -1.6306 -0.0316 -0.8559
  169SAPE   C1219053   1.562   5.440   6.185 -0.1378 -0.1859 -1.0243
  169SAPE  H12A19054   1.564   5.526   6.255  2.2564 -0.9905  0.0146
  169SAPE  H12B19055   1.652   5.445   6.120  0.2787  0.3761 -0.4146
  169SAPE   C1119056   1.548   5.316   6.275  0.3547 -0.0504  0.4090
  169SAPE  H11A19057   1.467   5.321   6.351  0.5316  0.8947  0.5452
  169SAPE  H11B19058   1.640   5.312   6.338  1.4843  0.1876 -1.1798
  169SAPE     P19059   1.662   5.102   6.160 -0.6057 -0.2620 -0.1426
  169SAPE   O1319060   1.617   4.966   6.121 -0.1333  0.0345  0.0361
  169SAPE   O1419061   1.737   5.171   6.055  0.2168 -0.3638  0.3826
  169SAPE   O1219062   1.539   5.190   6.206 -0.8927 -0.6463  0.0284
  169SAPE   O1119063   1.745   5.097   6.293 -0.0691 -0.0908  0.2858
  169SAPE    C119064   1.705   5.022   6.410  0.0433 -0.2701  0.1672
  169SAPE    HA19065   1.598   4.990   6.409  0.0926 -0.5769  1.8771
  169SAPE    HB19066   1.771   4.937   6.436  1.9052  0.3546 -2.2172
  169SAPE    C219067   1.698   5.123   6.530  0.8713  0.4144 -0.1493
  169SAPE    HS19068   1.603   5.180   6.518  1.3750  1.5238  0.8803
  169SAPE   O2119069   1.815   5.208   6.523 -0.1140  0.0093 -0.2841
  169SAPE   C2119070   1.815   5.316   6.600 -0.3930 -0.0482  0.0670
  169SAPE   O2219071   1.718   5.371   6.648  0.6608  0.1609 -0.5973
  169SAPE   C2219072   1.965   5.371   6.605 -0.6669  0.6414 -0.0721
  169SAPE   H2R19073   2.022   5.290   6.556 -0.8967  1.5650 -1.9440
  169SAPE   H2S19074   1.966   5.457   6.534 -1.8896  0.1635 -0.6893
  169SAPE    C319075   1.689   5.055   6.670  0.1307 -0.4851  0.0840
  169SAPE    HX19076   1.595   4.997   6.683 -0.8928  0.6650 -1.7310
  169SAPE    HY19077   1.681   5.140   6.741  0.7790 -0.3133 -0.0469
  169SAPE   O3119078   1.791   4.962   6.696  0.0550  0.6193 -0.4136
  169SAPE   C3119079   1.879   4.991   6.789 -0.0194  1.2649  0.0950
  169SAPE   O3219080   1.871   5.075   6.875 -0.5253  0.5134  0.2660
  169SAPE   C3219081   1.990   4.889   6.775  0.0232 -0.6205  0.5599
  169SAPE   H2X19082   2.087   4.939   6.800  0.7753  0.4007 -3.6127
  169SAPE   H2Y19083   1.986   4.851   6.671 -1.3191 -0.7859  0.6623
  169SAPE   C2319084   2.015   5.405   6.751  0.0233 -0.3961  0.0660
  169SAPE   H3R19085   2.126   5.410   6.763  0.6345 -0.5963 -4.0303
  169SAPE   H3S19086   1.977   5.342   6.835 -1.7134  0.8743  0.2976
  169SAPE   C2419087   1.958   5.542   6.783  0.5516  0.8457 -0.1691
  169SAPE   H4R19088   1.957   5.545   6.894  1.0374 -0.5889 -0.1048
  169SAPE   H4S19089   1.854   5.561   6.750 -0.3418 -0.5089  1.6887
  169SAPE   C2519090   2.048   5.654   6.745 -0.1603  0.4091 -0.5813
  169SAPE   H5R19091   2.060   5.649   6.636 -3.4914 -1.1740 -1.0180
  169SAPE   C2619092   2.110   5.747   6.828  0.1826 -0.4818 -0.5153
  169SAPE   H6R19093   2.174   5.824   6.782 -0.0091  0.8452  1.3646
  169SAPE   C2719094   2.095   5.752   6.981  0.4752 -0.0075  0.0257
  169SAPE   H7R19095   1.986   5.751   6.999  0.5101  1.9879  0.6183
  169SAPE   H7S19096   2.135   5.848   7.021 -0.2135  0.6851 -0.9109
  169SAPE   C2819097   2.166   5.645   7.051 -0.2122 -0.0981 -0.0830
  169SAPE   H8R19098   2.182   5.553   6.993 -1.2799 -0.3701  0.0447
  169SAPE   C2919099   2.210   5.635   7.182 -0.3212  0.3834 -0.1344
  169SAPE   H9R19100   2.265   5.544   7.212 -0.3534  0.8723  1.4904
  169SAPE  C21019101   2.191   5.741   7.285  0.0275 -0.3355 -0.1046
  169SAPE  H10R19102   2.212   5.844   7.250 -0.4982 -0.2386 -0.1453
  169SAPE  H10S19103   2.274   5.728   7.357  1.6558 -0.8518 -1.9824
  169SAPE  C21119104   2.058   5.750   7.345 -0.0576 -0.6139 -0.6006
  169SAPE  H11R19105   1.975   5.703   7.290 -0.9754  0.7531 -0.4365
  169SAPE  C21219106   2.028   5.810   7.460  0.2277 -0.3832 -0.4366
  169SAPE  H12R19107   1.925   5.800   7.497  0.5977 -0.8925  0.4856
  169SAPE  C21319108   2.133   5.880   7.553 -0.0547 -0.4882  0.2362
  169SAPE  H13R19109   2.177   5.976   7.517 -2.6882  1.8580  2.8007
  169SAPE  H13S19110   2.216   5.809   7.573  1.0522  1.0317  1.2501
  169SAPE  C21419111   2.058   5.911   7.678  0.5509  0.8839  0.0571
  169SAPE  H14R19112   1.979   5.986   7.661 -0.2223  0.0468 -0.0644
  169SAPE  C21519113   2.067   5.859   7.800  0.1760  0.0970  0.1040
  169SAPE  H15R19114   1.995   5.901   7.872  0.4788 -0.1917  0.5745
  169SAPE  C21619115   2.162   5.757   7.836  0.2101  0.2449 -0.5303
  169SAPE  H16R19116   2.157   5.677   7.760 -0.1204  0.2226 -0.4890
  169SAPE  H16S19117   2.126   5.719   7.934 -2.6766  1.1500 -1.1381
  169SAPE  C21719118   2.310   5.796   7.851 -0.1927  0.5713  0.1890
  169SAPE  H17R19119   2.343   5.840   7.755 -1.9076 -0.0962 -0.7507
  169SAPE  H17S19120   2.370   5.709   7.885 -1.2560 -0.3160 -0.1491
  169SAPE  C21819121   2.352   5.916   7.944 -0.4873  0.1356  0.2750
  169SAPE  H18R19122   2.283   6.001   7.924  0.8461  1.3007  0.4609
  169SAPE  H18S19123   2.458   5.936   7.918 -0.2468 -0.4054  0.8258
  169SAPE  C21919124   2.346   5.898   8.098 -0.3367  1.1347 -0.3417
  169SAPE  H19R19125   2.427   5.824   8.119  1.3147  3.5553  2.7605
  169SAPE  H19S19126   2.242   5.862   8.108  0.3777 -1.2461 -0.7489
  169SAPE  C22019127   2.379   6.013   8.187 -0.4907  0.0887 -0.0082
  169SAPE  H20R19128   2.347   6.106   8.136  0.2949  0.5489  0.3252
  169SAPE  H20S19129   2.490   6.015   8.189 -0.4283 -1.5275  2.7962
  169SAPE  H20T19130   2.339   6.028   8.289 -1.5933  3.6157 -0.8366
  169SAPE   C3319131   1.963   4.774   6.867  0.3466  0.3484  0.0705
  169SAPE   H3X19132   2.018   4.684   6.833 -0.3565 -0.4955  1.0798
  169SAPE   H3Y19133   1.857   4.742   6.857  0.6820 -0.4676 -1.0455
  169SAPE   C3419134   1.988   4.801   7.019  0.5192  0.2497 -0.0736
  169SAPE   H4X19135   1.932   4.886   7.061  0.9776  0.1759  0.7062
  169SAPE   H4Y19136   2.093   4.832   7.035  0.5309  1.0029 -1.3942
  169SAPE   C3519137   1.955   4.678   7.100 -0.4552 -0.0484  0.0490
  169SAPE   H5X19138   2.000   4.590   7.050 -0.9169  0.7437 -1.8575
  169SAPE   H5Y19139   1.845   4.664   7.099 -1.0184  2.9393 -3.1844
  169SAPE   C3619140   2.025   4.686   7.236  0.3431  0.8368  0.5234
  169SAPE   H6X19141   1.976   4.766   7.296  0.4741  0.4292  1.1815
  169SAPE   H6Y19142   2.131   4.714   7.222  0.5409 -0.8380 -2.1133
  169SAPE   C3719143   2.008   4.554   7.310  0.0728  0.8585 -0.3182
  169SAPE   H7X19144   2.075   4.478   7.266 -1.1929 -0.5222  0.0586
  169SAPE   H7Y19145   1.903   4.525   7.286  0.4125 -0.0323 -0.7800
  169SAPE   C3819146   2.020   4.562   7.465  0.7286 -0.4140  0.2950
  169SAPE   H8X19147   2.124   4.594   7.489  1.1247 -0.4401 -1.2707
  169SAPE   H8Y19148   2.028   4.459   7.507 -0.2888  0.4460  2.7789
  169SAPE   C3919149   1.907   4.624   7.551  0.1219  0.6714 -0.2750
  169SAPE   H9X19150   1.804   4.584   7.543 -0.0696  1.3969 -1.7870
  169SAPE   H9Y19151   1.904   4.724   7.502  1.8419 -0.2112 -2.3414
  169SAPE  C31019152   1.940   4.628   7.700  0.3945  0.0423 -0.3049
  169SAPE  H10X19153   1.955   4.523   7.734 -0.1035 -0.9339 -2.8211
  169SAPE  H10Y19154   1.846   4.664   7.748  0.4420 -0.1783 -0.0468
  169SAPE  C31119155   2.060   4.704   7.745 -0.1291  0.1041 -0.0952
  169SAPE  H11X19156   2.043   4.813   7.731 -2.0093 -0.1513  0.0053
  169SAPE  H11Y19157   2.154   4.672   7.694 -0.3959  0.7874 -1.0369
  169SAPE  C31219158   2.087   4.685   7.897 -0.6273  0.4528 -0.2078
  169SAPE  H12X19159   2.124   4.581   7.910 -1.0490  0.2990 -0.2149
  169SAPE  H12Y19160   1.991   4.700   7.953 -0.9053 -1.2581 -0.1606
  169SAPE  C31319161   2.184   4.790   7.952  0.2196  0.3562  0.5908
  169SAPE  H13X19162   2.140   4.889   7.927  1.9206  0.9648 -0.1045
  169SAPE  H13Y19163   2.282   4.766   7.906 -1.1272 -2.9528 -0.9015
  169SAPE  C31419164   2.201   4.787   8.107  0.5215  0.4761 -0.5267
  169SAPE  H14X19165   2.107   4.817   8.157  1.1364 -0.9414  1.6457
  169SAPE  H14Y19166   2.278   4.861   8.138 -0.7153  1.0764  1.2480
  169SAPE  C31519167   2.236   4.653   8.175 -0.2759 -0.6450 -0.4583
  169SAPE  H15X19168   2.311   4.605   8.109 -0.9033 -1.4398 -0.6075
  169SAPE  H15Y19169   2.144   4.591   8.167 -2.3850  1.9856  1.4562
  169SAPE  C31619170   2.275   4.677   8.321  0.0188 -0.3002  0.8274
  169SAPE  H16X19171   2.193   4.725   8.379 -1.1378 -0.3005 -0.7557
  169SAPE  H16Y19172   2.369   4.734   8.339  2.2214 -2.5127 -2.6300
  169SAPE  C31719173   2.308   4.542   8.390 -0.8938  0.4939 -0.0889
  169SAPE  H17X19174   2.383   4.493   8.324 -1.1399 -1.6518  1.1074
  169SAPE  H17Y19175   2.216   4.481   8.400 -0.8493  0.5623  0.9292
  169SAPE  C31819176   2.383   4.558   8.527  0.7552 -0.5908  0.4310
  169SAPE  H18X19177   2.420   4.459   8.559  1.6330  0.2413  2.1327
  169SAPE  H18Y19178   2.311   4.605   8.598 -0.2559  0.3965 -1.1785
  169SAPE  H18Z19179   2.473   4.621   8.509 -0.5189  1.6634  1.5018
  170SAPE     N19180   2.822   2.586   5.836  0.0089  0.3910 -0.6808
  170SAPE   HN119181   2.821   2.603   5.938 -1.3121  1.5537 -0.8611
  170SAPE   HN219182   2.822   2.482   5.825  2.9145  0.2706 -0.1931
  170SAPE   HN319183   2.904   2.616   5.779  0.0054  1.2347 -0.2393
  170SAPE   C1219184   2.698   2.648   5.765 -0.5514  0.5315  0.5484
  170SAPE  H12A19185   2.686   2.582   5.677 -2.1639  1.4688  0.0300
  170SAPE  H12B19186   2.720   2.751   5.730 -1.0564  0.1592 -0.9266
  170SAPE   C1119187   2.571   2.637   5.847 -0.0739  0.1223  0.0237
  170SAPE  H11A19188   2.568   2.532   5.884  0.4206 -0.4711 -1.5076
  170SAPE  H11B19189   2.483   2.660   5.782  0.7670  0.3427 -1.0595
  170SAPE     P19190   2.631   2.719   6.092 -0.0524  0.0325  0.3608
  170SAPE   O1319191   2.780   2.717   6.078 -0.0751 -0.2178  0.2584
  170SAPE   O1419192   2.572   2.810   6.190 -0.1378 -0.3702  0.0051
  170SAPE   O1219193   2.566   2.737   5.949  0.1717 -0.3613 -0.3750
  170SAPE   O1119194   2.583   2.579   6.132 -0.7698  0.1811  0.7330
  170SAPE    C119195   2.676   2.472   6.146  0.3258  0.0922 -0.6554
  170SAPE    HA19196   2.692   2.412   6.054  0.9189 -0.3501 -0.2739
  170SAPE    HB19197   2.776   2.495   6.191  0.5787 -0.2176 -1.0483
  170SAPE    C219198   2.612   2.360   6.238 -0.2519 -0.3141 -0.2391
  170SAPE    HS19199   2.525   2.309   6.193  0.5242 -1.0119 -0.9868
  170SAPE   O2119200   2.605   2.419   6.370 -0.1024  0.0356 -0.0470
  170SAPE   C2119201   2.483   2.442   6.408  0.5072  0.1513 -1.1356
  170SAPE   O2219202   2.380   2.421   6.345 -0.3239 -0.5905  0.3012
  170SAPE   C2219203   2.479   2.502   6.546 -0.2302  0.3024 -0.8679
  170SAPE   H2R19204   2.410   2.437   6.604  0.7540  0.6031  0.6721
  170SAPE   H2S19205   2.575   2.491   6.599 -0.5650  0.4976 -0.2124
  170SAPE    C319206   2.718   2.236   6.242  0.0549 -0.5380  0.2943
  170SAPE    HX19207   2.824   2.266   6.256  0.2296 -1.4970  1.1473
  170SAPE    HY19208   2.714   2.182   6.145  1.8649 -0.3982  0.0974
  170SAPE   O3119209   2.677   2.147   6.349 -0.0442  0.6280 -0.5506
  170SAPE   C3119210   2.735   2.028   6.356  0.0621 -0.5073 -0.2322
  170SAPE   O3219211   2.824   1.990   6.285 -0.4621 -0.3931  0.3967
  170SAPE   C3219212   2.667   1.948   6.468  0.3116  0.1263  0.0513
  170SAPE   H2X19213   2.587   1.884   6.425  0.5871  2.0353 -3.7213
  170SAPE   H2Y19214   2.611   2.010   6.540 -1.1083  1.6913 -2.2779
  170SAPE   C2319215   2.430   2.641   6.528  0.3239  0.7225 -0.0311
  170SAPE   H3R19216   2.341   2.647   6.463  1.2324  1.6572 -1.2350
  170SAPE   H3S19217   2.514   2.705   6.493  0.3232  0.5210 -0.4066
  170SAPE   C2419218   2.384   2.711   6.663  0.1317  0.1541 -0.0446
  170SAPE   H4R19219   2.329   2.634   6.721  2.4712 -2.3358 -0.9554
  170SAPE   H4S19220   2.313   2.795   6.643 -0.4064 -0.2104  0.2940
  170SAPE   C2519221   2.500   2.756   6.750 -0.3376 -0.2642  0.3961
  170SAPE   H5R19222   2.590   2.783   6.692  0.2919 -1.4196  0.7988
  170SAPE   C2619223   2.507   2.749   6.881  0.9697 -0.6205  0.0139
  170SAPE   H6R19224   2.595   2.790   6.934  0.8480 -0.6857  0.2676
  170SAPE   C2719225   2.391   2.707   6.973  0.7493  0.5378  0.4251
  170SAPE   H7R19226   2.360   2.608   6.933 -0.7360  0.8067  0.8795
  170SAPE   H7S19227   2.310   2.780   6.956  0.8584  0.4338 -0.6430
  170SAPE   C2819228   2.434   2.697   7.116  0.2507 -0.0470  0.8625
  170SAPE   H8R19229   2.537   2.729   7.136 -0.3209  1.5994  1.3377
  170SAPE   C2919230   2.369   2.648   7.226  0.8067  0.5590  0.0364
  170SAPE   H9R19231   2.417   2.639   7.325 -0.4094 -0.8584  0.5294
  170SAPE  C21019232   2.236   2.577   7.223  0.8745  0.1745  0.5240
  170SAPE  H10R19233   2.219   2.509   7.309  1.1169 -0.9789 -0.3131
  170SAPE  H10S19234   2.242   2.497   7.146  0.8537  0.4057  0.2815
  170SAPE  C21119235   2.118   2.668   7.204  0.3437 -0.7625  0.0210
  170SAPE  H11R19236   2.126   2.723   7.108  0.9790 -2.0148 -0.6640
  170SAPE  C21219237   2.016   2.695   7.289 -0.2697 -0.0530 -0.8217
  170SAPE  H12R19238   1.951   2.783   7.274 -1.5293 -0.7869  0.1609
  170SAPE  C21319239   2.009   2.623   7.421  0.2855  0.0465 -0.1991
  170SAPE  H13R19240   2.106   2.635   7.473  0.1746 -0.4693  0.1244
  170SAPE  H13S19241   1.988   2.515   7.412 -2.8673  0.6559 -1.7946
  170SAPE  C21419242   1.895   2.667   7.513 -0.6264 -0.7680  0.5163
  170SAPE  H14R19243   1.799   2.614   7.502 -2.4688  2.3680  0.5775
  170SAPE  C21519244   1.887   2.759   7.609  0.0750 -0.3927 -0.5730
  170SAPE  H15R19245   1.787   2.776   7.653  0.0552  0.9195 -1.0722
  170SAPE  C21619246   1.995   2.852   7.656  0.8488 -0.3448  0.6925
  170SAPE  H16R19247   1.945   2.931   7.717 -0.5092 -2.1500  2.0361
  170SAPE  H16S19248   2.047   2.895   7.568  1.6862 -1.3793  0.6557
  170SAPE  C21719249   2.107   2.775   7.743 -0.6450  0.2197 -0.5258
  170SAPE  H17R19250   2.155   2.695   7.683 -0.1651  0.4138 -0.4005
  170SAPE  H17S19251   2.058   2.736   7.836 -0.7893  0.2949 -0.5704
  170SAPE  C21819252   2.218   2.869   7.794 -0.2934  0.2566  0.1224
  170SAPE  H18R19253   2.269   2.813   7.875 -2.5398 -1.0173  0.7436
  170SAPE  H18S19254   2.170   2.960   7.836 -1.0309 -0.3167  0.5441
  170SAPE  C21919255   2.308   2.920   7.677 -0.0801  0.6716 -0.5638
  170SAPE  H19R19256   2.372   2.996   7.726  0.4206 -0.1637  0.0976
  170SAPE  H19S19257   2.244   2.965   7.597 -0.6795 -1.5188 -1.3812
  170SAPE  C22019258   2.406   2.814   7.610 -0.4016  0.6031 -0.4122
  170SAPE  H20R19259   2.349   2.723   7.584 -1.1452  0.3738  1.8659
  170SAPE  H20S19260   2.472   2.782   7.694 -1.9368  2.7936  1.7692
  170SAPE  H20T19261   2.453   2.851   7.516 -0.0777  0.7767 -0.1854
  170SAPE   C3319262   2.763   1.863   6.554 -0.0114  0.0001  0.1525
  170SAPE   H3X19263   2.822   1.791   6.494  0.4826  0.7974 -0.3389
  170SAPE   H3Y19264   2.694   1.812   6.625 -1.1414  3.1892  1.5309
  170SAPE   C3419265   2.866   1.943   6.635 -0.4447 -0.1925  0.0804
  170SAPE   H4X19266   2.831   2.046   6.657  0.9960  0.0074  1.6495
  170SAPE   H4Y19267   2.958   1.951   6.573  0.1005 -2.5760  0.5084
  170SAPE   C3519268   2.897   1.881   6.770 -0.6256  0.5756 -0.1982
  170SAPE   H5X19269   2.923   1.774   6.755 -0.3739  0.8337 -1.7722
  170SAPE   H5Y19270   2.806   1.885   6.834  0.5353  0.1176  1.5684
  170SAPE   C3619271   3.014   1.945   6.846  0.0089  0.0749 -0.1220
  170SAPE   H6X19272   2.993   2.053   6.864  0.3759  0.4833 -1.9050
  170SAPE   H6Y19273   3.105   1.945   6.783 -0.2762 -0.8003 -0.5539
  170SAPE   C3719274   3.039   1.867   6.978 -0.2804 -0.1486  0.7425
  170SAPE   H7X19275   3.127   1.906   7.034  0.4187 -1.8923  0.9063
  170SAPE   H7Y19276   3.066   1.761   6.962  1.4019  0.4753 -1.0025
  170SAPE   C3819277   2.921   1.871   7.083  0.6024  0.0308  0.3063
  170SAPE   H8X19278   2.839   1.809   7.042  0.3266  0.7310 -0.2130
  170SAPE   H8Y19279   2.883   1.975   7.079 -0.7314 -0.4813 -1.1543
  170SAPE   C3919280   2.966   1.841   7.228  0.0773 -0.2824  0.1151
  170SAPE   H9X19281   3.072   1.870   7.239 -0.6175  2.2620  0.6125
  170SAPE   H9Y19282   2.957   1.730   7.233 -1.5201 -0.2896 -1.5803
  170SAPE  C31019283   2.874   1.908   7.334 -0.5235 -0.6869  0.2732
  170SAPE  H10X19284   2.772   1.867   7.320 -0.6971  0.0969 -0.9158
  170SAPE  H10Y19285   2.863   2.013   7.301  1.5495 -0.8832 -1.2889
  170SAPE  C31119286   2.920   1.900   7.482 -0.2244 -0.2005 -0.2850
  170SAPE  H11X19287   3.022   1.942   7.490 -0.5852  0.5986  0.2421
  170SAPE  H11Y19288   2.926   1.792   7.508  1.6973 -0.5737 -2.0601
  170SAPE  C31219289   2.814   1.972   7.562  0.2141  0.1356 -0.2139
  170SAPE  H12X19290   2.708   1.940   7.553  0.7667 -2.1444  0.5888
  170SAPE  H12Y19291   2.830   2.078   7.534 -0.6229  0.6859  1.3019
  170SAPE  C31319292   2.847   1.967   7.715 -0.0688  0.7507  0.7093
  170SAPE  H13X19293   2.957   1.979   7.727  0.0107  0.0387  0.7783
  170SAPE  H13Y19294   2.833   1.860   7.741 -0.4001  1.1976  2.4397
  170SAPE  C31419295   2.766   2.065   7.806  0.4448 -0.3022 -0.1143
  170SAPE  H14X19296   2.657   2.048   7.788  0.4302 -0.9527  0.5380
  170SAPE  H14Y19297   2.783   2.167   7.767  1.5980 -0.5980 -0.4232
  170SAPE  C31519298   2.795   2.061   7.953  0.5585  0.2639 -0.0092
  170SAPE  H15X19299   2.904   2.053   7.972  0.2999 -1.0338  1.0726
  170SAPE  H15Y19300   2.751   1.973   8.005  1.7432  0.5947  1.6213
  170SAPE  C31619301   2.758   2.197   8.025  0.1931  0.3498  0.0408
  170SAPE  H16X19302   2.829   2.272   7.984 -0.3082 -0.0847 -1.6822
  170SAPE  H16Y19303   2.779   2.187   8.134 -2.2111 -1.7309  0.4121
  170SAPE  C31719304   2.612   2.247   8.023  0.0198  0.0986  0.2789
  170SAPE  H17X19305   2.557   2.172   8.084  1.2640 -2.1342 -1.2124
  170SAPE  H17Y19306   2.567   2.231   7.923 -0.8632 -0.2194  0.7064
  170SAPE  C31819307   2.573   2.398   8.044 -0.3538 -0.0088 -0.4567
  170SAPE  H18X19308   2.462   2.401   8.045 -0.4099 -1.2108 -0.7530
  170SAPE  H18Y19309   2.619   2.472   7.975 -0.4972  0.4900 -0.0215
  170SAPE  H18Z19310   2.599   2.428   8.148 -0.3030  1.7176 -0.9407
  171SAPE     N19311   2.983   2.829   6.213 -0.0521 -0.0454 -0.1269
  171SAPE   HN119312   2.952   2.794   6.306 -2.2104  2.4780  0.2289
  171SAPE   HN219313   2.929   2.918   6.203  1.3773  1.2540  2.6693
  171SAPE   HN319314   2.939   2.767   6.142 -1.3147 -0.6545  1.1431
  171SAPE   C1219315   3.122   2.853   6.188  0.0488 -0.4252 -0.3376
  171SAPE  H12A19316   3.127   2.931   6.108  0.4482 -0.1421 -0.0398
  171SAPE  H12B19317   3.174   2.759   6.159  0.0482 -0.8632  1.0290
  171SAPE   C1119318   3.202   2.900   6.313  1.0044 -0.5552 -0.0875
  171SAPE  H11A19319   3.233   2.809   6.369 -0.8785 -1.6296 -0.7040
  171SAPE  H11B19320   3.127   2.964   6.363  1.0654  1.0177 -1.9142
  171SAPE     P19321   3.444   2.913   6.227  0.2480  0.1415 -0.7088
  171SAPE   O1319322   3.422   2.778   6.173 -0.2853 -0.2073  0.2056
  171SAPE   O1419323   3.522   3.003   6.139  0.1634 -0.0204  0.1550
  171SAPE   O1219324   3.307   2.979   6.270  0.4658  0.0064  0.2756
  171SAPE   O1119325   3.523   2.914   6.374 -0.1717 -0.9593  0.3960
  171SAPE    C119326   3.515   2.792   6.445  0.3126 -0.1995 -0.1771
  171SAPE    HA19327   3.413   2.790   6.489  1.1884 -2.0036  1.9290
  171SAPE    HB19328   3.538   2.703   6.383  0.8615  0.1018 -0.4128
  171SAPE    C219329   3.614   2.788   6.563 -0.3990 -0.6309 -0.1125
  171SAPE    HS19330   3.614   2.683   6.598  0.2780 -0.5260  0.2059
  171SAPE   O2119331   3.580   2.878   6.672  1.4575  0.2712 -0.2141
  171SAPE   C2119332   3.475   2.851   6.736  0.4827  0.4799 -0.4576
  171SAPE   O2219333   3.409   2.744   6.732  0.1795 -0.3016 -0.0000
  171SAPE   C2219334   3.449   2.961   6.839 -1.0261  0.5517  0.4306
  171SAPE   H2R19335   3.548   3.011   6.834 -0.4951 -0.5521 -3.1516
  171SAPE   H2S19336   3.377   3.034   6.796 -0.8507  0.2366 -0.4147
  171SAPE    C319337   3.751   2.823   6.511  1.2209  0.7185  0.0744
  171SAPE    HX19338   3.749   2.926   6.468  0.1424  0.8548  0.4043
  171SAPE    HY19339   3.766   2.752   6.427  0.5761  2.0428 -1.2119
  171SAPE   O3119340   3.851   2.803   6.616 -0.7804 -0.4007 -0.2858
  171SAPE   C3119341   3.870   2.920   6.690  0.0684 -0.4935  0.2118
  171SAPE   O3219342   3.807   3.024   6.671 -0.8775 -0.0023 -0.1538
  171SAPE   C3219343   3.970   2.886   6.797 -0.3259 -0.2538 -0.2419
  171SAPE   H2X19344   4.066   2.872   6.743 -1.7330 -1.0702 -2.7097
  171SAPE   H2Y19345   3.935   2.797   6.852 -1.3603  0.4703  0.3061
  171SAPE   C2319346   3.432   2.918   6.989 -0.5316 -0.3226  0.6042
  171SAPE   H3R19347   3.325   2.889   6.999 -0.7221  0.6153  1.3219
  171SAPE   H3S19348   3.457   3.006   7.051  0.4694 -1.1007  1.3517
  171SAPE   C2419349   3.532   2.803   7.021  0.7065  0.2424 -0.2380
  171SAPE   H4R19350   3.545   2.726   6.942  0.8938 -0.1461  0.1646
  171SAPE   H4S19351   3.465   2.749   7.092 -2.0976 -0.6556 -3.3407
  171SAPE   C2519352   3.658   2.856   7.088 -0.4809  0.2217  0.7304
  171SAPE   H5R19353   3.747   2.856   7.024  0.9729 -1.1703  2.6503
  171SAPE   C2619354   3.673   2.900   7.216  0.0772 -1.1510 -0.1473
  171SAPE   H6R19355   3.774   2.913   7.258  0.7682 -0.5039 -1.9075
  171SAPE   C2719356   3.556   2.909   7.308  0.5272  0.1764 -0.1376
  171SAPE   H7R19357   3.537   2.803   7.337 -0.6190 -0.3005 -2.4493
  171SAPE   H7S19358   3.464   2.944   7.257 -0.0333 -1.8443 -0.5739
  171SAPE   C2819359   3.572   3.010   7.424 -0.2235  0.8436 -0.4635
  171SAPE   H8R19360   3.558   3.116   7.397 -1.1466  1.0001  0.5421
  171SAPE   C2919361   3.586   2.981   7.560 -0.1856  0.0432 -0.3569
  171SAPE   H9R19362   3.586   3.066   7.630 -0.0712  1.2666 -1.7988
  171SAPE  C21019363   3.601   2.848   7.625 -0.6183 -0.0055  0.7411
  171SAPE  H10R19364   3.701   2.846   7.673 -0.9012 -0.0928  1.3321
  171SAPE  H10S19365   3.604   2.762   7.554  0.0305 -1.0631  2.0004
  171SAPE  C21119366   3.487   2.811   7.719 -0.6155 -0.4763  0.2609
  171SAPE  H11R19367   3.391   2.835   7.671 -0.5505 -0.0268  0.3495
  171SAPE  C21219368   3.495   2.773   7.846 -0.0435 -0.0573 -0.7965
  171SAPE  H12R19369   3.404   2.772   7.909  1.2658 -0.7601  1.1760
  171SAPE  C21319370   3.620   2.747   7.928 -0.4618  0.0469  0.3500
  171SAPE  H13R19371   3.659   2.846   7.960 -1.2269 -0.4228  2.9442
  171SAPE  H13S19372   3.689   2.698   7.856 -2.0598 -3.3332  0.8779
  171SAPE  C21419373   3.602   2.643   8.037  0.6653  0.2646  0.1003
  171SAPE  H14R19374   3.652   2.545   8.028  3.0760  1.4155  0.0546
  171SAPE  C21519375   3.533   2.661   8.149 -0.8475  0.9443 -0.3982
  171SAPE  H15R19376   3.520   2.587   8.230 -4.5109 -1.2919 -2.7053
  171SAPE  C21619377   3.463   2.781   8.193  0.6956 -0.3310 -0.4187
  171SAPE  H16R19378   3.484   2.869   8.128  0.2908  1.6270  1.9453
  171SAPE  H16S19379   3.506   2.808   8.292  0.5134 -3.5850  0.6796
  171SAPE  C21719380   3.314   2.776   8.213 -0.7301  0.2227 -0.1309
  171SAPE  H17R19381   3.289   2.691   8.281 -1.8416 -0.5466 -1.4546
  171SAPE  H17S19382   3.270   2.758   8.113  0.0178  0.2373 -0.4665
  171SAPE  C21819383   3.270   2.906   8.281  0.6270  0.2639  0.1397
  171SAPE  H18R19384   3.274   3.003   8.228 -0.4010  0.5695  0.5965
  171SAPE  H18S19385   3.319   2.906   8.381 -0.0019  2.2524  0.4866
  171SAPE  C21919386   3.117   2.903   8.325  0.0829  1.2045 -0.2558
  171SAPE  H19R19387   3.097   2.986   8.396 -2.0568  1.3907 -0.9956
  171SAPE  H19S19388   3.110   2.806   8.380 -0.7405  1.5766  0.3083
  171SAPE  C22019389   3.014   2.914   8.206 -0.0347  0.0113 -0.8822
  171SAPE  H20R19390   3.042   2.839   8.130  0.6431 -1.0376  0.3608
  171SAPE  H20S19391   3.023   3.018   8.169  1.7501  0.9519  1.8972
  171SAPE  H20T19392   2.914   2.891   8.249  0.1699  0.2434 -0.2656
  171SAPE   C3319393   3.989   3.016   6.886 -0.3360 -0.1631  0.2675
  171SAPE   H3X19394   3.891   3.033   6.936 -1.1704 -2.3212 -0.4928
  171SAPE   H3Y19395   4.014   3.105   6.826  2.2031  1.8289  3.8739
  171SAPE   C3419396   4.100   2.994   6.987  0.3396 -0.2949  0.0562
  171SAPE   H4X19397   4.121   3.094   7.030 -0.4012  0.3659 -1.0542
  171SAPE   H4Y19398   4.184   2.960   6.922  1.4048  0.9954  0.6994
  171SAPE   C3519399   4.069   2.890   7.098 -0.1648 -1.0022 -0.2273
  171SAPE   H5X19400   4.053   2.786   7.064 -0.7284 -1.1053  0.3346
  171SAPE   H5Y19401   3.977   2.941   7.134 -1.6113 -2.8361 -1.2071
  171SAPE   C3619402   4.170   2.902   7.216  0.3170  0.4135 -0.2530
  171SAPE   H6X19403   4.178   3.008   7.250 -0.4257  1.0756 -1.9985
  171SAPE   H6Y19404   4.275   2.873   7.192  1.1457  4.0567 -1.7435
  171SAPE   C3719405   4.125   2.822   7.340  0.5371  0.6236  0.3425
  171SAPE   H7X19406   4.119   2.713   7.323 -0.3759  0.8062 -0.6536
  171SAPE   H7Y19407   4.020   2.847   7.370  0.5427  0.8710  0.1629
  171SAPE   C3819408   4.211   2.834   7.463 -0.1765 -0.9073 -0.3542
  171SAPE   H8X19409   4.240   2.936   7.497 -3.6600  0.1123 -0.0998
  171SAPE   H8Y19410   4.305   2.782   7.433  0.0851 -0.1490 -0.8812
  171SAPE   C3919411   4.161   2.774   7.594 -0.6493 -0.1417 -0.6211
  171SAPE   H9X19412   4.137   2.666   7.580 -4.2322  0.3890  0.5147
  171SAPE   H9Y19413   4.069   2.823   7.631  0.2714  0.9749  0.2555
  171SAPE  C31019414   4.259   2.786   7.713 -0.2565 -0.1782  0.1249
  171SAPE  H10X19415   4.264   2.896   7.723  0.1235 -0.0026 -1.5965
  171SAPE  H10Y19416   4.358   2.744   7.687 -2.0344 -3.4416 -2.2403
  171SAPE  C31119417   4.203   2.720   7.836 -0.3016 -0.3477 -0.1583
  171SAPE  H11X19418   4.286   2.696   7.906  0.0037  0.5238 -0.1997
  171SAPE  H11Y19419   4.176   2.615   7.814  1.3675 -0.6433 -1.0295
  171SAPE  C31219420   4.085   2.793   7.896  0.0385 -0.0915 -0.2525
  171SAPE  H12X19421   4.007   2.802   7.818  0.2395 -3.2301 -0.9387
  171SAPE  H12Y19422   4.122   2.892   7.930  0.1618  0.3869 -1.7088
  171SAPE  C31319423   4.025   2.723   8.019  0.3208 -0.4239  0.6377
  171SAPE  H13X19424   4.111   2.685   8.079  0.1024  0.0807  1.2786
  171SAPE  H13Y19425   3.963   2.635   7.991  0.2067 -0.2185  0.2485
  171SAPE  C31419426   3.934   2.808   8.108 -0.4035  0.2645 -0.7477
  171SAPE  H14X19427   3.926   2.757   8.206  0.7338  1.2184 -0.1315
  171SAPE  H14Y19428   3.827   2.816   8.078 -1.2588 -2.8354  1.1312
  171SAPE  C31519429   3.977   2.946   8.152  0.1608  0.2401  0.9775
  171SAPE  H15X19430   3.889   2.994   8.198 -0.3674  0.8551 -0.5987
  171SAPE  H15Y19431   3.989   3.013   8.064  0.9174  0.2679  1.0911
  171SAPE  C31619432   4.104   2.956   8.242  0.5651  0.9036  0.3229
  171SAPE  H16X19433   4.177   2.874   8.224 -0.4019 -0.7323  3.1295
  171SAPE  H16Y19434   4.068   2.925   8.342  0.1780 -0.6146 -0.2542
  171SAPE  C31719435   4.177   3.087   8.243 -0.6600  0.7093 -0.2464
  171SAPE  H17X19436   4.120   3.180   8.265 -0.2612  0.9468 -0.1929
  171SAPE  H17Y19437   4.204   3.099   8.136 -1.1010  0.4207 -0.3914
  171SAPE  C31819438   4.298   3.073   8.341  0.3576  0.4020  0.7372
  171SAPE  H18X19439   4.353   3.169   8.347 -2.8688  2.5504 -0.9564
  171SAPE  H18Y19440   4.367   2.992   8.307  0.2562  0.3258  0.7097
  171SAPE  H18Z19441   4.253   3.041   8.438  0.7989 -2.2834  0.1325
  172SAPE     N19442   3.436   1.285   6.358  0.3977 -0.2006  0.0757
  172SAPE   HN119443   3.523   1.308   6.306  0.7738 -2.3140 -0.3258
  172SAPE   HN219444   3.459   1.286   6.459 -0.5832 -1.1733  0.3316
  172SAPE   HN319445   3.416   1.185   6.335 -0.2270 -0.1286  0.2764
  172SAPE   C1219446   3.327   1.385   6.337  0.4564  0.2462 -0.5179
  172SAPE  H12A19447   3.247   1.363   6.411 -0.0283 -1.1487 -1.4081
  172SAPE  H12B19448   3.284   1.361   6.237  0.8036 -0.0326 -0.6002
  172SAPE   C1119449   3.371   1.526   6.358  0.2922  0.3966 -0.9552
  172SAPE  H11A19450   3.443   1.528   6.442 -0.3371  2.9185 -0.4004
  172SAPE  H11B19451   3.285   1.592   6.377  0.0976 -0.0835 -0.1126
  172SAPE     P19452   3.582   1.561   6.196  0.2352 -0.2758 -0.2493
  172SAPE   O1319453   3.621   1.423   6.216 -0.3954 -0.0323  0.3999
  172SAPE   O1419454   3.600   1.615   6.060 -0.2941 -0.5175  0.5045
  172SAPE   O1219455   3.430   1.576   6.242 -0.4522  0.4778 -0.6960
  172SAPE   O1119456   3.664   1.657   6.289 -0.5208  0.3413 -0.2827
  172SAPE    C119457   3.605   1.779   6.336 -0.2464  0.0959 -0.5796
  172SAPE    HA19458   3.601   1.849   6.250 -3.1833  1.1067  0.2700
  172SAPE    HB19459   3.499   1.768   6.366 -0.3504  1.6138 -0.3088
  172SAPE    C219460   3.687   1.850   6.450 -0.0162 -0.9153 -0.8791
  172SAPE    HS19461   3.795   1.866   6.428  0.6776 -0.7283  2.2526
  172SAPE   O2119462   3.678   1.770   6.578  0.1192  0.1741  0.6287
  172SAPE   C2119463   3.777   1.688   6.589  0.1867  0.2463 -0.7036
  172SAPE   O2219464   3.873   1.670   6.513  0.1182 -0.2787 -0.2305
  172SAPE   C2219465   3.746   1.616   6.724  0.2590 -0.0632  0.7711
  172SAPE   H2R19466   3.690   1.692   6.782  0.1513 -0.1178  0.7384
  172SAPE   H2S19467   3.685   1.525   6.704 -0.2859  0.3770  0.4140
  172SAPE    C319468   3.624   1.987   6.475 -0.5306 -0.4768 -0.5306
  172SAPE    HX19469   3.523   1.987   6.522 -1.0518  4.2553 -1.1164
  172SAPE    HY19470   3.610   2.036   6.377  0.0618 -0.1267 -0.4457
  172SAPE   O3119471   3.712   2.064   6.567 -0.7318 -0.3153 -0.0852
  172SAPE   C3119472   3.711   2.194   6.544 -0.0193 -0.8274 -0.1136
  172SAPE   O3219473   3.648   2.252   6.461 -0.0626  0.3539  0.4630
  172SAPE   C3219474   3.808   2.259   6.644  0.4726 -0.0393  0.6030
  172SAPE   H2X19475   3.909   2.222   6.617  0.6199  0.6731  0.1346
  172SAPE   H2Y19476   3.773   2.225   6.744 -1.2913  2.2678  0.8491
  172SAPE   C2319477   3.874   1.581   6.801  0.6441  0.0640 -0.2469
  172SAPE   H3R19478   3.923   1.665   6.856 -0.5904 -0.4398  1.7087
  172SAPE   H3S19479   3.951   1.542   6.731  0.5137 -0.7062  0.0304
  172SAPE   C2419480   3.847   1.474   6.915 -0.0579  0.0179 -0.3988
  172SAPE   H4R19481   3.945   1.450   6.961  0.0996  1.1612 -0.0953
  172SAPE   H4S19482   3.806   1.385   6.864 -0.8305  0.2824 -0.2484
  172SAPE   C2519483   3.747   1.526   7.023  0.5007 -0.1886  0.0291
  172SAPE   H5R19484   3.665   1.589   6.985  0.9177 -0.5780 -1.5983
  172SAPE   C2619485   3.757   1.511   7.159  0.1205  0.0237 -0.4195
  172SAPE   H6R19486   3.680   1.553   7.225  0.9660  0.3162  0.3972
  172SAPE   C2719487   3.859   1.436   7.241 -0.7212 -0.0013 -0.3127
  172SAPE   H7R19488   3.940   1.406   7.171 -1.4380 -2.4443 -0.1669
  172SAPE   H7S19489   3.806   1.346   7.279 -0.0011  0.1317  1.0899
  172SAPE   C2819490   3.908   1.522   7.352  0.3337 -0.1815 -0.5584
  172SAPE   H8R19491   3.984   1.592   7.315 -0.4037  0.6633 -0.5316
  172SAPE   C2919492   3.857   1.520   7.479  0.2410  0.2921  0.1046
  172SAPE   H9R19493   3.894   1.592   7.555 -1.9397  0.6253  0.9133
  172SAPE  C21019494   3.753   1.427   7.530  0.5822  0.0346  0.0700
  172SAPE  H10R19495   3.784   1.321   7.539 -2.3927 -0.9150  0.3829
  172SAPE  H10S19496   3.668   1.423   7.458  0.3060 -1.0078  0.4336
  172SAPE  C21119497   3.688   1.477   7.651 -0.0383 -0.4286 -0.1645
  172SAPE  H11R19498   3.634   1.572   7.634  0.6413 -0.3854 -2.3524
  172SAPE  C21219499   3.699   1.432   7.775 -1.0650  0.1348 -0.5934
  172SAPE  H12R19500   3.649   1.483   7.859 -1.4796 -0.2779 -0.5851
  172SAPE  C21319501   3.770   1.309   7.819  0.0480 -1.0073 -0.6416
  172SAPE  H13R19502   3.834   1.270   7.737  1.0081  0.0653 -0.4406
  172SAPE  H13S19503   3.690   1.238   7.847 -0.3199  0.2722  1.8200
  172SAPE  C21419504   3.852   1.329   7.947 -0.0225  0.0845 -0.2892
  172SAPE  H14R19505   3.935   1.396   7.921 -0.7839  1.2164  0.1064
  172SAPE  C21519506   3.830   1.278   8.073  0.2055 -0.1348 -0.7736
  172SAPE  H15R19507   3.888   1.307   8.162  0.0731 -1.7737 -0.1230
  172SAPE  C21619508   3.712   1.192   8.115  0.1501  0.4593 -0.0896
  172SAPE  H16R19509   3.757   1.092   8.136 -0.8007 -0.1841 -1.0638
  172SAPE  H16S19510   3.642   1.174   8.032 -1.0345  1.7021  0.6086
  172SAPE  C21719511   3.638   1.232   8.248 -0.5622  0.4282 -0.0009
  172SAPE  H17R19512   3.711   1.251   8.330 -1.5111  1.0921  0.7039
  172SAPE  H17S19513   3.580   1.144   8.283  1.8064 -0.9958  0.6186
  172SAPE  C21819514   3.540   1.349   8.222 -0.2851 -0.2539 -0.1122
  172SAPE  H18R19515   3.466   1.317   8.146 -1.6675  1.6581  0.3441
  172SAPE  H18S19516   3.606   1.422   8.170  0.0045 -2.0489 -2.4234
  172SAPE  C21919517   3.476   1.411   8.347  0.7781  0.2571  0.3545
  172SAPE  H19R19518   3.550   1.402   8.429  0.5566  0.9222  0.6321
  172SAPE  H19S19519   3.397   1.340   8.380  0.9384 -1.0218 -1.8063
  172SAPE  C22019520   3.432   1.556   8.327  0.0373 -0.0366 -0.0657
  172SAPE  H20R19521   3.508   1.610   8.267 -0.3036 -2.8790 -3.3881
  172SAPE  H20S19522   3.398   1.613   8.416 -2.6932  2.1031 -2.2855
  172SAPE  H20T19523   3.341   1.566   8.263 -0.1172  1.1479  0.3062
  172SAPE   C3319524   3.798   2.412   6.652 -0.4775  0.1372  0.1206
  172SAPE   H3X19525   3.699   2.445   6.615 -1.3912  0.5946  2.7366
  172SAPE   H3Y19526   3.874   2.451   6.581  2.4275 -0.1643  2.8396
  172SAPE   C3419527   3.823   2.485   6.780 -0.7396  0.1941 -0.2351
  172SAPE   H4X19528   3.815   2.593   6.756 -2.8067  0.5277  1.5600
  172SAPE   H4Y19529   3.922   2.452   6.815 -0.5645  0.5388 -0.4003
  172SAPE   C3519530   3.727   2.444   6.898  0.2586 -0.3167 -0.1437
  172SAPE   H5X19531   3.710   2.334   6.898 -0.6954 -0.2093  1.4549
  172SAPE   H5Y19532   3.625   2.487   6.886 -0.0009 -1.0217 -0.5225
  172SAPE   C3619533   3.797   2.481   7.034 -0.3631  0.8756  0.1399
  172SAPE   H6X19534   3.844   2.581   7.034  0.5052  0.5998  3.3835
  172SAPE   H6Y19535   3.881   2.409   7.039 -0.1848  1.1410  1.4263
  172SAPE   C3719536   3.717   2.453   7.162  0.3588  0.0716  0.4336
  172SAPE   H7X19537   3.683   2.348   7.148 -1.0955  0.2877  2.0458
  172SAPE   H7Y19538   3.631   2.524   7.164  0.6398  0.4171  0.3113
  172SAPE   C3819539   3.799   2.469   7.297 -0.0126 -0.2929 -0.3900
  172SAPE   H8X19540   3.825   2.576   7.300  1.2633 -0.6274  1.7499
  172SAPE   H8Y19541   3.887   2.402   7.287  0.7166 -0.1936  3.8208
  172SAPE   C3919542   3.715   2.432   7.417 -0.2681  0.2322 -0.8949
  172SAPE   H9X19543   3.688   2.328   7.390  2.8786 -0.3295 -2.2497
  172SAPE   H9Y19544   3.624   2.495   7.412 -0.9940 -0.8642 -1.9722
  172SAPE  C31019545   3.771   2.474   7.554  0.1598  0.2056 -0.3129
  172SAPE  H10X19546   3.690   2.450   7.626 -0.2105 -0.5473 -0.9693
  172SAPE  H10Y19547   3.788   2.583   7.563 -3.5034  0.8216  1.0970
  172SAPE  C31119548   3.890   2.389   7.595  0.2269 -0.5806 -0.0232
  172SAPE  H11X19549   3.979   2.422   7.536  0.0296 -2.3500 -1.4153
  172SAPE  H11Y19550   3.876   2.281   7.572 -0.8978 -1.0673  2.6257
  172SAPE  C31219551   3.941   2.394   7.739  0.4585  0.1642  0.2505
  172SAPE  H12X19552   4.008   2.480   7.760 -1.4612  1.8627 -0.1962
  172SAPE  H12Y19553   4.000   2.301   7.728 -0.2369 -0.0067 -3.2754
  172SAPE  C31319554   3.832   2.358   7.841 -0.6176  0.3348  0.1122
  172SAPE  H13X19555   3.778   2.266   7.809 -0.1025  0.9267 -2.7228
  172SAPE  H13Y19556   3.756   2.434   7.870  0.9276  2.0121 -0.1140
  172SAPE  C31419557   3.898   2.326   7.975  0.7517 -0.0702 -0.8615
  172SAPE  H14X19558   3.953   2.412   8.020  0.3135 -0.1658 -0.1260
  172SAPE  H14Y19559   3.962   2.237   7.958  0.6417 -0.0634 -1.3217
  172SAPE  C31519560   3.783   2.287   8.076  0.3002 -0.3884  0.1452
  172SAPE  H15X19561   3.724   2.209   8.022  0.3165  1.1280 -2.1999
  172SAPE  H15Y19562   3.711   2.370   8.087 -0.3227 -0.8921 -0.0321
  172SAPE  C31619563   3.849   2.242   8.204  0.3374  0.2720 -0.0978
  172SAPE  H16X19564   3.948   2.197   8.183  0.4119  0.4620 -0.1577
  172SAPE  H16Y19565   3.787   2.162   8.250 -0.2804  1.1322  0.5966
  172SAPE  C31719566   3.866   2.349   8.316  0.2356  0.7475 -0.1054
  172SAPE  H17X19567   3.770   2.368   8.369  1.1341 -3.9615  3.9715
  172SAPE  H17Y19568   3.903   2.449   8.283 -1.3957  1.6268  0.5829
  172SAPE  C31819569   3.949   2.284   8.431 -0.1356  0.6559 -0.1235
  172SAPE  H18X19570   4.032   2.231   8.380  0.0316  0.7634  0.0334
  172SAPE  H18Y19571   3.893   2.216   8.499  0.0519  3.9110  3.6618
  172SAPE  H18Z19572   3.987   2.365   8.497  1.2038  0.3223 -0.4559
  173SOPE     N19573   5.438   6.001  10.678  0.2953  0.1358 -0.8452
  173SOPE   HN119574   5.406   5.904  10.698  0.2317  0.2639 -0.3088
  173SOPE   HN219575   5.358   6.048  10.630 -0.5382 -2.6576 -2.4612
  173SOPE   HN319576   5.522   6.004  10.617 -1.9365 -1.5910 -4.3552
  173SOPE   C1219577   5.452   6.067  10.815  1.1057  0.3514  0.5971
  173SOPE  H12A19578   5.485   6.168  10.783  1.0638 -0.3339 -1.7783
  173SOPE  H12B19579   5.546   6.029  10.860  0.3776 -0.0238  1.8764
  173SOPE   C1119580   5.317   6.081  10.892 -0.4508  0.2143  0.1393
  173SOPE  H11A19581   5.338   6.136  10.986  1.6932  0.7097 -0.5659
  173SOPE  H11B19582   5.280   5.980  10.920 -0.2090  0.2707  0.6842
  173SOPE     P19583   5.068   6.164  10.840 -0.1301  0.3714 -0.3133
  173SOPE   O1319584   5.017   6.268  10.752 -0.7135 -0.3345  0.8112
  173SOPE   O1419585   5.047   6.183  10.985  0.4892 -0.2717  0.1619
  173SOPE   O1219586   5.220   6.136  10.802 -0.2162 -0.1977  0.1859
  173SOPE   O1119587   4.998   6.033  10.794  0.1410  0.0017 -0.1251
  173SOPE    C119588   4.947   6.003  10.665 -0.2331 -0.4027  0.4881
  173SOPE    HA19589   4.864   6.073  10.643  1.3853  1.1913 -0.7993
  173SOPE    HB19590   4.898   5.904  10.678 -0.6365 -0.2114  0.4403
  173SOPE    C219591   5.049   6.002  10.546 -0.6570  0.0172 -0.0638
  173SOPE    HS19592   5.143   5.949  10.575 -0.5583 -0.5328 -1.3630
  173SOPE   O2119593   5.064   6.140  10.497  0.0685  0.2204 -0.2386
  173SOPE   C2119594   5.188   6.177  10.465  0.6512 -0.3571  0.1901
  173SOPE   O2219595   5.285   6.115  10.481 -0.1292 -0.9218 -0.6369
  173SOPE   C2219596   5.190   6.322  10.420 -0.2586  0.0098 -0.2211
  173SOPE   H2R19597   5.293   6.362  10.408  0.2384 -1.6310 -1.8290
  173SOPE   H2S19598   5.139   6.375  10.503 -0.1748 -0.5350  0.1813
  173SOPE    C319599   5.001   5.913  10.428 -0.2942 -0.0442  0.5868
  173SOPE    HX19600   4.966   5.811  10.456 -1.6063 -0.2786 -1.5804
  173SOPE    HY19601   5.089   5.889  10.364 -1.1784  0.2017 -0.7809
  173SOPE   O3119602   4.885   5.961  10.352 -0.1552 -0.0212 -0.1508
  173SOPE   C3119603   4.909   6.030  10.248  0.0850  0.7382  0.2831
  173SOPE   O3219604   5.019   6.048  10.203 -0.1259 -0.6388  0.7697
  173SOPE   C3219605   4.778   6.093  10.196  0.2239  0.2575  0.5168
  173SOPE   H2X19606   4.749   6.171  10.269  0.5207 -0.8726  1.8961
  173SOPE   H2Y19607   4.699   6.015  10.182  0.5146  0.1406 -0.5844
  173SOPE   C2319608   5.113   6.343  10.290  0.3724 -0.3205 -0.3899
  173SOPE   H3R19609   5.005   6.319  10.294  0.3387 -0.2728  4.4757
  173SOPE   H3S19610   5.147   6.262  10.222  0.3325 -2.2579  1.7680
  173SOPE   C2419611   5.142   6.491  10.236  0.4415 -0.2616  0.6652
  173SOPE   H4R19612   5.107   6.563  10.313  1.8115  1.1739 -0.0066
  173SOPE   H4S19613   5.252   6.506  10.228  0.5441 -0.0906  2.1441
  173SOPE   C2519614   5.063   6.509  10.107  0.0391  0.3535 -0.3865
  173SOPE   H5R19615   5.097   6.432  10.034 -0.9254 -1.6289  1.1438
  173SOPE   H5S19616   4.957   6.491  10.134 -0.4974 -0.7784 -2.9963
  173SOPE   C2619617   5.080   6.648  10.044 -0.9291 -0.3225  0.0592
  173SOPE   H6R19618   5.077   6.724  10.125  0.1639 -0.6787  0.4612
  173SOPE   H6S19619   5.183   6.650  10.004 -1.4260  0.0508 -1.2399
  173SOPE   C2719620   4.992   6.691   9.930 -0.0075 -0.1977  0.6467
  173SOPE   H7R19621   4.887   6.723   9.950  0.3087  0.9112  0.6134
  173SOPE   H7S19622   5.043   6.786   9.904  0.1033 -0.1538  1.0204
  173SOPE   C2819623   4.997   6.593   9.810  0.1534 -0.2856  0.3825
  173SOPE   H8R19624   5.102   6.577   9.779  0.0206 -3.2839  1.1754
  173SOPE   H8S19625   4.968   6.490   9.840  2.2429 -0.6878  1.1952
  173SOPE   C2919626   4.911   6.639   9.690  0.7379 -1.1864  0.3542
  173SOPE   H9119627   4.819   6.580   9.679  0.1464 -0.2953  0.4202
  173SOPE  C21019628   4.932   6.740   9.601  0.2153  0.0704  0.0870
  173SOPE  H10119629   4.848   6.767   9.536 -0.6553 -0.1504  1.0815
  173SOPE  C21119630   5.051   6.826   9.600 -0.1413 -0.3020  0.0670
  173SOPE  H11R19631   5.125   6.807   9.680  0.9051  0.0316 -0.7960
  173SOPE  H11S19632   5.017   6.931   9.609  0.7456 -0.0312  0.3471
  173SOPE  C21219633   5.128   6.816   9.468 -0.2553 -0.3073  0.4738
  173SOPE  H12R19634   5.161   6.711   9.456 -0.3872 -0.2045 -0.9775
  173SOPE  H12S19635   5.218   6.881   9.468  1.1084 -1.9895 -2.3523
  173SOPE  C21319636   5.048   6.851   9.334  0.2427 -0.1963  0.1005
  173SOPE  H13R19637   5.014   6.956   9.343  0.3895 -0.2037  0.7888
  173SOPE  H13S19638   4.960   6.784   9.335 -0.3217  0.5372  0.9013
  173SOPE  C21419639   5.134   6.848   9.210  0.3534 -0.3000 -0.4777
  173SOPE  H14R19640   5.142   6.746   9.165  2.0553  1.1220 -3.7501
  173SOPE  H14S19641   5.240   6.863   9.240  0.9040  0.4988 -2.6258
  173SOPE  C21519642   5.094   6.956   9.103 -0.0946  0.5493 -0.2140
  173SOPE  H15R19643   5.092   7.057   9.148 -1.5650  1.1989 -1.6370
  173SOPE  H15S19644   4.990   6.924   9.084  0.3330 -1.3588  0.4005
  173SOPE  C21619645   5.181   6.945   8.969 -0.3629 -0.2557 -0.9793
  173SOPE  H16R19646   5.194   6.835   8.960 -2.1913 -0.6876  0.9374
  173SOPE  H16S19647   5.281   6.994   8.971 -0.6263  0.3265  1.5260
  173SOPE  C21719648   5.096   7.000   8.855  0.2072 -0.1534 -0.6854
  173SOPE  H17R19649   5.080   7.107   8.882  1.6545 -0.8409  3.5908
  173SOPE  H17S19650   4.991   6.963   8.850 -1.5207  3.9878  0.5920
  173SOPE  C21819651   5.155   7.005   8.712  0.1957 -0.6517  0.4627
  173SOPE  H18R19652   5.258   7.045   8.719 -0.2359  0.7335 -0.7051
  173SOPE  H18S19653   5.104   7.078   8.645  0.2164  0.8590  2.0252
  173SOPE  H18T19654   5.156   6.903   8.667 -0.5839 -0.5941  0.2959
  173SOPE   C3319655   4.791   6.177  10.063 -0.4905  0.5325 -0.2721
  173SOPE   H3X19656   4.842   6.107   9.993 -0.8997 -1.1911  1.0816
  173SOPE   H3Y19657   4.854   6.268  10.065  1.7139 -0.9170  0.1840
  173SOPE   C3419658   4.656   6.210   9.992 -0.9076  0.6164  0.4630
  173SOPE   H4X19659   4.608   6.292  10.050 -2.0826 -2.0011  3.5134
  173SOPE   H4Y19660   4.585   6.124   9.994  0.8382 -0.9066  0.2702
  173SOPE   C3519661   4.683   6.243   9.847  0.1945 -0.8892 -0.6878
  173SOPE   H5X19662   4.761   6.322   9.844 -1.6417  1.0413 -0.3438
  173SOPE   H5Y19663   4.593   6.284   9.796  2.0046  0.0989 -3.3230
  173SOPE   C3619664   4.722   6.128   9.766 -0.4338 -0.0218  0.7280
  173SOPE   H6X19665   4.654   6.043   9.787 -1.2360  0.3693 -0.2085
  173SOPE   H6Y19666   4.824   6.088   9.780 -0.8407 -3.0301 -3.1281
  173SOPE   C3719667   4.723   6.164   9.609  0.2252  0.4485 -0.3155
  173SOPE   H7X19668   4.617   6.172   9.576  0.4540 -0.0453 -1.2083
  173SOPE   H7Y19669   4.758   6.071   9.559 -3.5979 -0.9623 -0.7370
  173SOPE   C3819670   4.805   6.278   9.559 -0.1515 -0.8418  0.7122
  173SOPE   H8X19671   4.903   6.235   9.530  0.8459  0.7903  1.5193
  173SOPE   H8Y19672   4.819   6.364   9.628 -1.5509  2.4941 -2.7933
  173SOPE   C3919673   4.742   6.345   9.433 -0.6268  0.2691  1.1581
  173SOPE   H9X19674   4.717   6.262   9.364  2.5318  1.1615 -1.3047
  173SOPE   H9Y19675   4.828   6.388   9.377 -0.6414  0.0133  0.9375
  173SOPE  C31019676   4.623   6.430   9.467  0.1135 -0.4463 -0.3054
  173SOPE  H10X19677   4.639   6.473   9.569 -1.5182 -0.2374 -0.1170
  173SOPE  H10Y19678   4.534   6.364   9.463 -0.5072  0.2593  1.1398
  173SOPE  C31119679   4.606   6.541   9.358  0.1306 -0.0917  0.4940
  173SOPE  H11X19680   4.686   6.618   9.365  2.7076 -2.4700 -0.6408
  173SOPE  H11Y19681   4.511   6.597   9.368  0.1734  0.4489 -1.6526
  173SOPE  C31219682   4.607   6.496   9.219 -0.5982  0.9686  0.0971
  173SOPE  H12X19683   4.534   6.412   9.219 -0.4257  0.8182  0.1083
  173SOPE  H12Y19684   4.711   6.467   9.196  0.6517  2.4824  3.1799
  173SOPE  C31319685   4.556   6.591   9.102  0.4409  0.5049  0.2764
  173SOPE  H13X19686   4.591   6.542   9.009  1.6891 -0.1102  1.0344
  173SOPE  H13Y19687   4.610   6.688   9.114  1.1196  0.1669  0.0173
  173SOPE  C31419688   4.405   6.612   9.089 -0.1301  0.6135 -0.2047
  173SOPE  H14X19689   4.380   6.662   9.185  0.9771 -1.4207  1.2129
  173SOPE  H14Y19690   4.364   6.508   9.093 -0.5374  0.7510 -0.7277
  173SOPE  C31519691   4.362   6.675   8.955 -0.5119  0.2019 -0.1681
  173SOPE  H15X19692   4.398   6.608   8.874 -0.2036 -0.9111  0.8578
  173SOPE  H15Y19693   4.418   6.769   8.938 -1.4486  0.3942 -2.4533
  173SOPE  C31619694   4.208   6.690   8.942  0.3736  0.8394 -0.2263
  173SOPE  H16X19695   4.186   6.768   9.018  1.0200 -0.0856  0.9495
  173SOPE  H16Y19696   4.150   6.598   8.964  1.9517 -0.6147 -1.7975
  173SOPE  C31719697   4.178   6.741   8.800 -0.1630 -0.5042 -0.6243
  173SOPE  H17X19698   4.232   6.676   8.728 -0.8281  0.2890 -1.8783
  173SOPE  H17Y19699   4.226   6.841   8.797  1.3271 -1.1171  1.0667
  173SOPE  C31819700   4.027   6.753   8.762 -0.3046 -0.2546 -1.1919
  173SOPE  H18X19701   3.983   6.846   8.803 -0.3017 -0.9751  0.5443
  173SOPE  H18Y19702   3.977   6.666   8.810  2.5615 -0.5719  1.5251
  173SOPE  H18Z19703   4.008   6.738   8.653  0.7103 -0.6361 -1.3267
  174SOPE     N19704   4.588   6.221  10.732 -0.4676 -0.0021  0.2005
  174SOPE   HN119705   4.671   6.261  10.683 -1.7472  2.9194  0.2285
  174SOPE   HN219706   4.537   6.293  10.787 -0.9561  1.2877 -1.8653
  174SOPE   HN319707   4.623   6.149  10.799  1.4960  0.7756  0.0788
  174SOPE   C1219708   4.490   6.159  10.631 -0.0857  0.2457  0.4125
  174SOPE  H12A19709   4.461   6.244  10.565  0.5774  0.6976  0.7016
  174SOPE  H12B19710   4.399   6.126  10.686 -0.7344  1.2776 -0.0101
  174SOPE   C1119711   4.545   6.040  10.547  0.1821 -0.0790  0.5524
  174SOPE  H11A19712   4.619   6.071  10.470  0.7983 -3.8819 -0.5710
  174SOPE  H11B19713   4.454   5.999  10.499 -0.3310 -0.3995  1.7522
  174SOPE     P19714   4.550   5.825  10.695  0.0927  0.0518 -0.1920
  174SOPE   O1319715   4.424   5.867  10.756 -0.4627  0.0861 -0.1697
  174SOPE   O1419716   4.651   5.752  10.777  0.2585 -0.3753  0.1697
  174SOPE   O1219717   4.617   5.943  10.626  0.9987 -0.1212 -0.0561
  174SOPE   O1119718   4.510   5.721  10.580  0.0813  0.0287 -0.5441
  174SOPE    C119719   4.610   5.700  10.469 -0.8764 -0.3508  0.0520
  174SOPE    HA19720   4.711   5.676  10.508 -1.1766 -1.2991  0.2647
  174SOPE    HB19721   4.626   5.794  10.413  1.4908  0.8012  2.4306
  174SOPE    C219722   4.563   5.581  10.380  0.4191 -0.1383 -0.2513
  174SOPE    HS19723   4.651   5.541  10.325  1.6158  0.2912  1.2936
  174SOPE   O2119724   4.451   5.602  10.287  0.0693 -0.1894 -0.1906
  174SOPE   C2119725   4.484   5.686  10.194  0.6766 -0.0770  0.4514
  174SOPE   O2219726   4.596   5.728  10.173 -0.0281  0.1171  0.4891
  174SOPE   C2219727   4.361   5.719  10.105 -0.2645 -0.1545 -0.2235
  174SOPE   H2R19728   4.301   5.782  10.175  0.7560 -0.8181  1.3202
  174SOPE   H2S19729   4.306   5.624  10.090 -0.0027 -0.3716  0.1533
  174SOPE    C319730   4.534   5.464  10.480 -0.0155  0.0235 -0.0781
  174SOPE    HX19731   4.452   5.510  10.539  2.0298  3.7224  0.2016
  174SOPE    HY19732   4.627   5.450  10.538 -0.5494  1.3124  1.1700
  174SOPE   O3119733   4.501   5.344  10.398  0.5127 -0.0226  0.0485
  174SOPE   C3119734   4.607   5.270  10.372  0.6222 -0.0447  0.4443
  174SOPE   O3219735   4.723   5.296  10.390  0.0862  0.0023 -0.1309
  174SOPE   C3219736   4.560   5.151  10.286  0.2773  0.1505 -0.5050
  174SOPE   H2X19737   4.458   5.172  10.248  1.2007  1.3621 -2.4595
  174SOPE   H2Y19738   4.567   5.061  10.352  0.8749  0.5542 -0.0059
  174SOPE   C2319739   4.407   5.804   9.980  0.5025  0.0550 -0.6722
  174SOPE   H3R19740   4.491   5.873  10.001 -0.1471  1.1216 -1.4810
  174SOPE   H3S19741   4.320   5.861   9.940 -0.0473 -0.7050 -0.5789
  174SOPE   C2419742   4.456   5.710   9.867 -0.6562  1.1380 -0.1024
  174SOPE   H4R19743   4.552   5.660   9.893 -0.1338  1.2468 -1.7334
  174SOPE   H4S19744   4.385   5.626   9.851  1.1219 -0.0311 -2.5424
  174SOPE   C2519745   4.467   5.780   9.738 -0.4240  0.4039 -0.8050
  174SOPE   H5R19746   4.489   5.886   9.759  0.6608 -0.2552  1.7310
  174SOPE   H5S19747   4.555   5.747   9.678  0.6730  1.2805  0.2986
  174SOPE   C2619748   4.354   5.766   9.641  0.2046  0.3044 -0.9112
  174SOPE   H6R19749   4.349   5.658   9.614 -1.9367  0.3292 -0.7564
  174SOPE   H6S19750   4.254   5.780   9.687  0.2596 -0.9511 -0.3509
  174SOPE   C2719751   4.369   5.848   9.517 -0.0921 -0.2915 -0.7090
  174SOPE   H7R19752   4.275   5.844   9.457 -0.3028  0.3364 -0.4287
  174SOPE   H7S19753   4.373   5.956   9.543 -0.5585 -0.2259 -0.8971
  174SOPE   C2819754   4.482   5.803   9.422 -0.3948  0.1742  0.5179
  174SOPE   H8R19755   4.571   5.784   9.486 -1.0629 -1.9783  0.8961
  174SOPE   H8S19756   4.456   5.712   9.363 -0.2366  0.6124 -0.2480
  174SOPE   C2919757   4.519   5.913   9.328 -0.2944 -0.0262  0.4109
  174SOPE   H9119758   4.589   5.982   9.378  0.1200  1.3342 -1.9148
  174SOPE  C21019759   4.478   5.945   9.198 -0.1144  0.1415 -1.7030
  174SOPE  H10119760   4.520   6.029   9.141  0.0847  0.9168 -0.4611
  174SOPE  C21119761   4.391   5.862   9.111 -0.5177 -0.0835 -0.1253
  174SOPE  H11R19762   4.358   5.771   9.165  0.7568 -0.3692  0.1992
  174SOPE  H11S19763   4.466   5.840   9.033  0.8393  0.0013  1.0990
  174SOPE  C21219764   4.274   5.937   9.039 -0.5734  0.4635 -0.1558
  174SOPE  H12R19765   4.316   6.031   8.997 -0.5347 -0.3081 -1.9052
  174SOPE  H12S19766   4.203   5.967   9.119  1.2365 -1.3183  2.2618
  174SOPE  C21319767   4.225   5.847   8.926  0.4244 -0.3340 -0.3458
  174SOPE  H13R19768   4.185   5.757   8.977 -2.3543  0.9191 -0.1671
  174SOPE  H13S19769   4.305   5.799   8.864  2.1302  0.3237  1.2420
  174SOPE  C21419770   4.108   5.905   8.848  0.3996 -0.6319 -0.2422
  174SOPE  H14R19771   4.141   6.006   8.814 -2.1876  0.0261 -1.0195
  174SOPE  H14S19772   4.019   5.923   8.911  1.3493 -0.0082  0.9627
  174SOPE  C21519773   4.074   5.824   8.722 -0.2437  0.2687 -0.4892
  174SOPE  H15R19774   4.026   5.735   8.768  2.3857 -1.4437 -0.8532
  174SOPE  H15S19775   4.167   5.788   8.674  0.7517  0.7206  1.0441
  174SOPE  C21619776   3.964   5.880   8.626 -0.6811  0.1880  0.2657
  174SOPE  H16R19777   3.937   5.806   8.547 -0.4255  0.1797  0.1862
  174SOPE  H16S19778   4.016   5.961   8.572 -0.4895 -0.5769 -0.7341
  174SOPE  C21719779   3.834   5.937   8.695 -0.0794  0.0773 -0.0181
  174SOPE  H17R19780   3.758   5.975   8.623 -0.1538 -0.9564 -0.5124
  174SOPE  H17S19781   3.875   6.016   8.761  2.8977 -0.8063 -0.6864
  174SOPE  C21819782   3.750   5.843   8.780 -0.0403  0.2294 -0.2763
  174SOPE  H18R19783   3.730   5.747   8.728  0.0377 -0.3269  0.6902
  174SOPE  H18S19784   3.659   5.895   8.816 -0.6311 -0.0638 -1.3065
  174SOPE  H18T19785   3.816   5.812   8.864 -1.4175 -1.4184  0.2375
  174SOPE   C3319786   4.643   5.138  10.158  0.4366  0.8565 -0.2772
  174SOPE   H3X19787   4.606   5.049  10.103  0.6912 -0.1050  1.0873
  174SOPE   H3Y19788   4.748   5.122  10.189  0.0481  2.0984  1.8700
  174SOPE   C3419789   4.640   5.259  10.066  0.1598 -0.0852  0.9035
  174SOPE   H4X19790   4.678   5.352  10.113 -2.1647  1.3499  0.1315
  174SOPE   H4Y19791   4.535   5.292  10.052 -0.4525 -2.0628  0.4748
  174SOPE   C3519792   4.706   5.250   9.929 -0.0470  0.0119 -0.9635
  174SOPE   H5X19793   4.659   5.165   9.875 -0.9272 -0.6502  0.7583
  174SOPE   H5Y19794   4.815   5.235   9.936  0.3851  2.6147 -1.1462
  174SOPE   C3619795   4.662   5.368   9.842 -0.3366  0.0298  0.0408
  174SOPE   H6X19796   4.705   5.460   9.885  0.3963  0.1375 -0.8904
  174SOPE   H6Y19797   4.552   5.381   9.845 -0.3215  0.0294  2.0034
  174SOPE   C3719798   4.715   5.352   9.693 -0.0124 -0.1827 -0.5402
  174SOPE   H7X19799   4.689   5.248   9.662 -0.4574 -0.8082  1.7144
  174SOPE   H7Y19800   4.826   5.356   9.700  0.0359 -0.5110 -1.0513
  174SOPE   C3819801   4.657   5.460   9.605 -0.7090  0.0642 -0.0770
  174SOPE   H8X19802   4.689   5.559   9.644 -0.1836 -0.2350  0.2616
  174SOPE   H8Y19803   4.547   5.458   9.591 -0.5070 -1.9446 -1.9554
  174SOPE   C3919804   4.710   5.433   9.456 -0.0381 -1.1553 -0.1533
  174SOPE   H9X19805   4.654   5.343   9.423  0.5815 -2.0800  1.1923
  174SOPE   H9Y19806   4.819   5.407   9.455  0.0385 -0.8065 -0.6304
  174SOPE  C31019807   4.703   5.557   9.365  0.7642 -0.2467  0.6632
  174SOPE  H10X19808   4.753   5.642   9.417 -0.7085  0.2612  1.2841
  174SOPE  H10Y19809   4.594   5.577   9.358  0.7698 -0.4770 -0.1161
  174SOPE  C31119810   4.748   5.536   9.222 -0.4155 -0.4003  0.1555
  174SOPE  H11X19811   4.706   5.446   9.172  1.1007  1.0510 -4.2175
  174SOPE  H11Y19812   4.856   5.510   9.224 -0.5649 -1.0831 -0.3575
  174SOPE  C31219813   4.720   5.667   9.139 -0.5848 -0.1468 -0.5490
  174SOPE  H12X19814   4.775   5.752   9.184 -1.1798  1.1592 -2.2122
  174SOPE  H12Y19815   4.610   5.679   9.147 -0.5047  0.4032 -0.2026
  174SOPE  C31319816   4.752   5.649   8.992  0.1505  0.2229 -0.2985
  174SOPE  H13X19817   4.681   5.698   8.922  3.8001  0.5516 -4.1172
  174SOPE  H13Y19818   4.739   5.541   8.969 -0.9639  0.0599  0.9224
  174SOPE  C31419819   4.900   5.692   8.958  1.1453  0.3589 -0.3316
  174SOPE  H14X19820   4.951   5.667   9.053 -0.6084 -3.2705 -0.1668
  174SOPE  H14Y19821   4.896   5.803   8.958 -1.5536  0.4040  2.3741
  174SOPE  C31519822   4.952   5.627   8.834  0.5727 -0.0883  0.4089
  174SOPE  H15X19823   4.895   5.651   8.742  0.0652 -0.3977  0.6408
  174SOPE  H15Y19824   4.954   5.516   8.845  0.5806 -0.1422 -0.1159
  174SOPE  C31619825   5.092   5.687   8.798  0.1504  0.0116  0.4943
  174SOPE  H16X19826   5.155   5.713   8.886  1.0955  0.3057 -0.2549
  174SOPE  H16Y19827   5.061   5.785   8.756 -0.3738 -0.8624 -1.2311
  174SOPE  C31719828   5.179   5.615   8.699 -0.7105 -0.7822  0.4569
  174SOPE  H17X19829   5.121   5.604   8.605  1.9540  3.0033 -1.9000
  174SOPE  H17Y19830   5.206   5.517   8.744 -3.3970 -1.2928  1.1751
  174SOPE  C31819831   5.307   5.682   8.663 -0.1071 -0.2076 -0.0491
  174SOPE  H18X19832   5.352   5.635   8.573 -0.1890  2.0380 -1.3364
  174SOPE  H18Y19833   5.388   5.667   8.737 -0.1577 -2.4590 -0.3799
  174SOPE  H18Z19834   5.298   5.790   8.640  2.0274 -0.2056 -1.0875
  175SOPE     N19835   1.103   1.069  10.496  0.2700  0.2648  0.1303
  175SOPE   HN119836   1.068   1.045  10.591  0.8966 -0.9933  0.0552
  175SOPE   HN219837   1.131   0.979  10.453 -1.9252  0.2745 -1.5062
  175SOPE   HN319838   1.190   1.126  10.501  2.2637 -2.6059 -0.0691
  175SOPE   C1219839   1.015   1.139  10.401 -0.0131 -0.4520 -0.6161
  175SOPE  H12A19840   0.974   1.234  10.440 -2.2279  0.1177 -3.9556
  175SOPE  H12B19841   0.927   1.074  10.381 -0.8012  0.0363  1.0509
  175SOPE   C1119842   1.092   1.163  10.271  0.0025 -0.6783  0.0863
  175SOPE  H11A19843   1.034   1.203  10.185  0.7408  1.3258  0.4487
  175SOPE  H11B19844   1.136   1.068  10.234  0.5205 -0.5666  0.4179
  175SOPE     P19845   1.184   1.413  10.286 -0.3876 -0.2502  0.0560
  175SOPE   O1319846   1.256   1.467  10.405  0.2794  0.2218  0.2233
  175SOPE   O1419847   1.036   1.443  10.277  0.3975  0.7591 -0.4121
  175SOPE   O1219848   1.205   1.252  10.279 -0.0061  0.4838  0.6616
  175SOPE   O1119849   1.252   1.459  10.153 -0.0532  0.1545 -0.0858
  175SOPE    C119850   1.229   1.404  10.027  0.9367  0.8800 -0.2738
  175SOPE    HA19851   1.143   1.461   9.985  0.2016  1.2863  1.6412
  175SOPE    HB19852   1.191   1.299  10.028  1.6495  0.6148 -0.6112
  175SOPE    C219853   1.347   1.415   9.927  0.2126 -0.2429 -0.3141
  175SOPE    HS19854   1.388   1.518   9.937  3.0783 -1.2698 -0.5391
  175SOPE   O2119855   1.309   1.387   9.782 -0.1010  0.4809  0.6224
  175SOPE   C2119856   1.245   1.494   9.734  0.3754  0.0848 -0.2351
  175SOPE   O2219857   1.226   1.593   9.804  0.7752  0.1819  0.0837
  175SOPE   C2219858   1.192   1.477   9.595 -0.3451  0.1650  0.2084
  175SOPE   H2R19859   1.138   1.380   9.591 -2.7995  1.4852 -1.4432
  175SOPE   H2S19860   1.288   1.477   9.539  0.6520 -1.3598  1.8403
  175SOPE    C319861   1.461   1.328   9.961  0.4078  0.8350 -0.6432
  175SOPE    HX19862   1.423   1.225   9.947  3.1309 -0.0876 -1.9208
  175SOPE    HY19863   1.477   1.349  10.069 -1.1729  1.7891 -0.5614
  175SOPE   O3119864   1.582   1.343   9.868  0.2325 -0.4961 -0.0750
  175SOPE   C3119865   1.689   1.335   9.927  0.6030 -0.3510 -0.6156
  175SOPE   O3219866   1.706   1.324  10.052 -0.2173  0.2356  0.3308
  175SOPE   C3219867   1.817   1.350   9.833 -0.0742  0.6799 -0.0448
  175SOPE   H2X19868   1.837   1.459   9.830  0.2626  0.6067 -0.5997
  175SOPE   H2Y19869   1.789   1.334   9.726  1.4649  1.6337 -0.6243
  175SOPE   C2319870   1.105   1.602   9.558  0.4316 -0.2180  0.7693
  175SOPE   H3R19871   1.151   1.700   9.582  0.0688  0.2258 -0.2968
  175SOPE   H3S19872   1.010   1.596   9.615  0.7975  0.2372  1.4467
  175SOPE   C2419873   1.075   1.609   9.408 -0.5954 -0.1580  0.1274
  175SOPE   H4R19874   1.013   1.701   9.397  1.2204  0.9324 -1.6652
  175SOPE   H4S19875   1.168   1.619   9.349 -0.8591 -4.0004 -1.2052
  175SOPE   C2519876   1.004   1.487   9.349  0.3611 -0.4059  0.1298
  175SOPE   H5R19877   1.062   1.400   9.386  0.8883  0.0831  0.4840
  175SOPE   H5S19878   0.904   1.479   9.395  0.1740 -0.6328 -0.3091
  175SOPE   C2619879   0.986   1.466   9.194 -0.1684  0.0109 -0.0120
  175SOPE   H6R19880   0.941   1.365   9.185  1.4538 -0.8603  1.0704
  175SOPE   H6S19881   0.928   1.549   9.149  0.9872 -0.7745 -3.2421
  175SOPE   C2719882   1.121   1.464   9.123  1.0521  0.7074  0.0040
  175SOPE   H7R19883   1.182   1.553   9.149  1.1838  1.1151 -1.5954
  175SOPE   H7S19884   1.179   1.383   9.172 -0.4136  0.1170  0.8301
  175SOPE   C2819885   1.121   1.423   8.972 -0.2791  0.3377  0.1162
  175SOPE   H8R19886   1.229   1.417   8.944 -0.1894  2.3493 -0.1322
  175SOPE   H8S19887   1.070   1.330   8.940  0.4673 -0.4954  1.2489
  175SOPE   C2919888   1.063   1.533   8.887  0.0768  1.1763  0.1262
  175SOPE   H9119889   1.090   1.631   8.931  1.6089  0.6437  0.4296
  175SOPE  C21019890   0.984   1.523   8.776 -0.3580  0.7295 -0.2677
  175SOPE  H10119891   0.948   1.612   8.723 -1.1080 -1.0186 -2.9162
  175SOPE  C21119892   0.940   1.397   8.700 -0.3485  0.0707  0.2477
  175SOPE  H11R19893   1.006   1.312   8.729 -0.1069 -0.4284 -1.6355
  175SOPE  H11S19894   0.943   1.410   8.590  1.1933 -0.4885  0.2009
  175SOPE  C21219895   0.794   1.354   8.732 -0.3216  0.1089  0.0464
  175SOPE  H12R19896   0.724   1.428   8.688  1.5212  1.2884 -1.0436
  175SOPE  H12S19897   0.773   1.356   8.841  2.0640  1.1045  0.5661
  175SOPE  C21319898   0.758   1.210   8.687  0.6888 -0.5949 -0.2596
  175SOPE  H13R19899   0.650   1.193   8.709  0.8958 -1.1949  0.3086
  175SOPE  H13S19900   0.811   1.130   8.742  4.0424  1.5484 -0.1097
  175SOPE  C21419901   0.783   1.179   8.536 -0.1782  0.5823 -0.5808
  175SOPE  H14R19902   0.891   1.192   8.516 -0.1125 -0.5937 -1.0998
  175SOPE  H14S19903   0.730   1.254   8.475  0.7146  0.5691 -1.3919
  175SOPE  C21519904   0.739   1.036   8.502  0.1060  0.7364  0.4625
  175SOPE  H15R19905   0.636   1.019   8.539 -0.4130  0.0377 -1.2086
  175SOPE  H15S19906   0.802   0.953   8.540 -0.0526 -0.1334 -1.0780
  175SOPE  C21619907   0.736   1.019   8.348 -0.3600 -0.6107  0.3640
  175SOPE  H16R19908   0.839   1.026   8.307  0.2692  1.1065  2.0791
  175SOPE  H16S19909   0.674   1.092   8.293  3.9583  2.0624 -1.4142
  175SOPE  C21719910   0.674   0.878   8.311 -0.0339  0.2843 -0.9696
  175SOPE  H17R19911   0.592   0.856   8.383  1.5364 -1.7713  0.2812
  175SOPE  H17S19912   0.751   0.801   8.330  1.5483  2.1967  0.8838
  175SOPE  C21819913   0.630   0.868   8.175  0.0093 -0.1382 -0.0924
  175SOPE  H18R19914   0.605   0.767   8.137 -1.8689  0.8915 -1.7849
  175SOPE  H18S19915   0.714   0.909   8.114  1.1995 -1.9539  0.2537
  175SOPE  H18T19916   0.544   0.935   8.153 -0.1417 -0.4290 -0.3926
  175SOPE   C3319917   1.939   1.270   9.905  0.5487 -0.0382 -0.0460
  175SOPE   H3X19918   1.931   1.294  10.013  0.7383  2.0285 -0.4675
  175SOPE   H3Y19919   2.036   1.313   9.872  0.3404 -0.1351 -0.8013
  175SOPE   C3419920   1.924   1.124   9.892  0.0402  0.6370 -0.4065
  175SOPE   H4X19921   1.833   1.095   9.948  0.1277 -3.2721 -1.9767
  175SOPE   H4Y19922   2.012   1.081   9.943 -0.2327  0.5810  0.0228
  175SOPE   C3519923   1.898   1.062   9.750 -0.1367  0.2590 -0.4907
  175SOPE   H5X19924   1.805   1.106   9.708  0.4546  1.9948 -0.0583
  175SOPE   H5Y19925   1.882   0.953   9.770  0.6583  0.1466 -0.4363
  175SOPE   C3619926   2.018   1.090   9.662 -0.7524 -0.6447  0.0970
  175SOPE   H6X19927   2.109   1.045   9.709  0.2417 -0.6281 -1.7064
  175SOPE   H6Y19928   2.043   1.198   9.655  1.8594 -1.1971 -0.1456
  175SOPE   C3719929   2.009   1.039   9.519 -0.4712  0.9654 -0.4986
  175SOPE   H7X19930   1.930   1.103   9.475 -3.2554 -1.3836  0.7876
  175SOPE   H7Y19931   1.959   0.941   9.523 -1.3000  1.3842 -0.4342
  175SOPE   C3819932   2.149   1.041   9.450  0.1156  0.3384 -0.3666
  175SOPE   H8X19933   2.146   0.981   9.357  3.0974 -0.7105  0.1116
  175SOPE   H8Y19934   2.228   0.989   9.508  0.2534  1.1949  0.2496
  175SOPE   C3919935   2.188   1.181   9.414 -0.0958 -0.4185  1.1112
  175SOPE   H9X19936   2.209   1.243   9.503 -2.3743  0.8480  0.8416
  175SOPE   H9Y19937   2.098   1.228   9.368 -2.1283 -2.4213  2.7950
  175SOPE  C31019938   2.306   1.185   9.312  0.3799  0.4937 -0.0934
  175SOPE  H10X19939   2.262   1.163   9.212 -0.3342  0.7315  0.1630
  175SOPE  H10Y19940   2.382   1.105   9.321  0.1136 -0.1651 -2.7258
  175SOPE  C31119941   2.385   1.314   9.324  0.5242  0.7337  0.2905
  175SOPE  H11X19942   2.410   1.324   9.432 -1.0616 -1.1821  0.8901
  175SOPE  H11Y19943   2.326   1.405   9.301 -2.0752 -0.4795  1.7633
  175SOPE  C31219944   2.513   1.304   9.242  0.3842 -0.0955 -0.3699
  175SOPE  H12X19945   2.556   1.208   9.277 -3.1778 -1.0879  1.8177
  175SOPE  H12Y19946   2.577   1.386   9.281 -0.3808 -0.2732  1.3286
  175SOPE  C31319947   2.494   1.329   9.090  0.8422 -0.2396 -0.2664
  175SOPE  H13X19948   2.478   1.438   9.078 -1.4279 -0.5025 -0.0333
  175SOPE  H13Y19949   2.407   1.267   9.062  0.8628 -0.1220 -0.5904
  175SOPE  C31419950   2.610   1.281   9.000 -0.3224 -0.2407 -0.2524
  175SOPE  H14X19951   2.647   1.184   9.040 -0.3304 -1.0414 -2.0607
  175SOPE  H14Y19952   2.699   1.347   9.010 -0.2085 -0.3555 -0.4901
  175SOPE  C31519953   2.582   1.266   8.843  0.3045 -0.5969  0.1814
  175SOPE  H15X19954   2.493   1.202   8.829  0.6729 -0.6183 -2.6561
  175SOPE  H15Y19955   2.671   1.223   8.792  1.0777  1.5158 -0.3543
  175SOPE  C31619956   2.546   1.396   8.774  0.3453  0.9813 -0.2520
  175SOPE  H16X19957   2.454   1.430   8.827  0.7581  0.6412  0.7103
  175SOPE  H16Y19958   2.525   1.373   8.667 -0.3727 -1.0468  0.2684
  175SOPE  C31719959   2.640   1.513   8.803 -0.3795 -0.3229  0.8179
  175SOPE  H17X19960   2.739   1.473   8.770  0.0168  1.5357 -0.4195
  175SOPE  H17Y19961   2.652   1.550   8.907  0.6690  1.5799  0.0794
  175SOPE  C31819962   2.605   1.632   8.719 -0.2487  0.6516  0.2750
  175SOPE  H18X19963   2.690   1.701   8.699 -0.6877  0.5097 -2.3369
  175SOPE  H18Y19964   2.521   1.695   8.757  1.1165  3.1612 -0.5858
  175SOPE  H18Z19965   2.571   1.590   8.622 -3.1890  0.3271  1.3339
  176SOPE     N19966   6.469   0.144  10.936 -0.5323 -0.2615  0.1304
  176SOPE   HN119967   6.457   0.040  10.931 -0.4451 -0.3145  0.8818
  176SOPE   HN219968   6.571   0.158  10.921 -0.3395 -1.6897 -0.0632
  176SOPE   HN319969   6.444   0.174  11.032 -1.7369 -0.5827 -0.0594
  176SOPE   C1219970   6.382   0.217  10.837 -0.2689 -0.1921 -0.7311
  176SOPE  H12A19971   6.300   0.253  10.903  1.7726  0.0866  1.7871
  176SOPE  H12B19972   6.341   0.147  10.761  0.4055  1.1371 -2.3944
  176SOPE   C1119973   6.452   0.336  10.775 -0.5547 -0.0869 -0.3067
  176SOPE  H11A19974   6.380   0.386  10.706  0.8380  0.0775 -1.6935
  176SOPE  H11B19975   6.536   0.293  10.718  1.3427  0.5474  1.8504
  176SOPE     P19976   6.616   0.526  10.829 -0.1783 -0.0332 -0.3539
  176SOPE   O1319977   6.742   0.448  10.839  0.0852 -0.3991  0.3201
  176SOPE   O1419978   6.608   0.654  10.908 -0.1793 -0.2074 -0.2182
  176SOPE   O1219979   6.500   0.433  10.874 -0.0795 -0.3993  0.4350
  176SOPE   O1119980   6.593   0.569  10.680 -0.6229  0.1715 -0.3562
  176SOPE    C119981   6.479   0.632  10.632  0.3796  0.4213  0.3682
  176SOPE    HA19982   6.446   0.714  10.698 -1.6182  1.9313 -2.3019
  176SOPE    HB19983   6.391   0.563  10.623  0.8855 -0.1224 -0.5873
  176SOPE    C219984   6.496   0.692  10.491  0.1862 -0.0089 -0.0057
  176SOPE    HS19985   6.409   0.756  10.467  0.0144  0.0133  0.6555
  176SOPE   O2119986   6.519   0.588  10.396  1.0746  0.2235  0.0884
  176SOPE   C2119987   6.407   0.535  10.345 -0.1747 -1.2620 -0.5339
  176SOPE   O2219988   6.292   0.573  10.366 -0.0380 -0.2292 -0.9878
  176SOPE   C2219989   6.453   0.415  10.257 -0.4376  0.0851 -0.0750
  176SOPE   H2R19990   6.373   0.338  10.271 -1.6604  1.3587  0.1438
  176SOPE   H2S19991   6.549   0.379  10.298 -0.3261  1.4202  0.8751
  176SOPE    C319992   6.613   0.791  10.502 -0.1106  0.5978 -0.8315
  176SOPE    HX19993   6.703   0.727  10.513 -0.6941 -0.4621 -2.0454
  176SOPE    HY19994   6.598   0.854  10.593 -2.3478 -1.0627  0.0556
  176SOPE   O3119995   6.628   0.874  10.388  0.0122 -0.8026 -0.3928
  176SOPE   C3119996   6.728   0.957  10.397 -0.4965  0.0443 -0.6317
  176SOPE   O3219997   6.803   0.961  10.495  0.4562 -0.3044  0.2072
  176SOPE   C3219998   6.755   1.042  10.272 -0.9603  0.7305 -0.4299
  176SOPE   H2X19999   6.837   1.117  10.279 -0.3536  0.1782 -1.3273
  176SOPE   H2Y20000   6.674   1.118  10.267  0.8297  2.7473 -0.0770
  176SOPE   C2320001   6.474   0.457  10.111  0.0231  1.1924 -0.3535
  176SOPE   H3R20002   6.389   0.522  10.082 -1.1722 -0.8630 -1.7264
  176SOPE   H3S20003   6.474   0.366  10.047  1.2632  1.7707 -1.2201
  176SOPE   C2420004   6.600   0.540  10.087  0.5588 -0.6208 -0.0292
  176SOPE   H4R20005   6.571   0.642  10.120  1.5002 -0.1987 -0.4725
  176SOPE   H4S20006   6.693   0.510  10.139  1.6284  0.1294 -1.4642
  176SOPE   C2520007   6.644   0.554   9.934  0.1753 -0.3346 -0.3039
  176SOPE   H5R20008   6.724   0.630   9.945  0.8644 -0.8975 -1.2591
  176SOPE   H5S20009   6.688   0.457   9.903 -0.9982 -0.5300 -1.4744
  176SOPE   C2620010   6.545   0.592   9.825 -0.2400 -0.1931 -0.3940
  176SOPE   H6R20011   6.466   0.514   9.823  0.6460 -1.2367  2.0955
  176SOPE   H6S20012   6.501   0.685   9.868  1.4377  1.2308 -1.6375
  176SOPE   C2720013   6.595   0.607   9.682 -0.3344 -1.2959  0.1841
  176SOPE   H7R20014   6.693   0.658   9.680 -0.0368 -1.8795 -0.5538
  176SOPE   H7S20015   6.610   0.501   9.651  0.2788 -0.9705 -0.6525
  176SOPE   C2820016   6.517   0.706   9.592  0.4362  0.3978  0.2128
  176SOPE   H8R20017   6.499   0.797   9.652 -0.7070  0.3259  0.0156
  176SOPE   H8S20018   6.571   0.740   9.502 -0.4505  2.7678  0.5171
  176SOPE   C2920019   6.383   0.643   9.558  0.4717  0.5481  0.3180
  176SOPE   H9120020   6.322   0.610   9.643  1.8736 -0.9987  0.7663
  176SOPE  C21020021   6.334   0.613   9.437 -0.1509 -0.5860  0.8725
  176SOPE  H10120022   6.239   0.558   9.434  0.6725 -2.0291 -1.0879
  176SOPE  C21120023   6.391   0.640   9.302  0.2149  0.4538  0.1900
  176SOPE  H11R20024   6.475   0.713   9.303  0.6324 -0.0180  0.7614
  176SOPE  H11S20025   6.307   0.679   9.242 -0.4747 -0.7269  0.3612
  176SOPE  C21220026   6.449   0.508   9.242 -0.3204  0.5024 -0.2657
  176SOPE  H12R20027   6.531   0.478   9.311 -0.1694  1.9167  0.2221
  176SOPE  H12S20028   6.483   0.523   9.137 -0.1769 -0.7028 -0.4006
  176SOPE  C21320029   6.346   0.394   9.225  0.2346  0.3977 -0.5363
  176SOPE  H13R20030   6.269   0.418   9.149 -1.1758  1.0610  1.0173
  176SOPE  H13S20031   6.299   0.377   9.324  2.5934 -2.2444  0.2433
  176SOPE  C21420032   6.422   0.261   9.198 -0.0703 -0.7712 -0.0480
  176SOPE  H14R20033   6.358   0.170   9.194 -2.8870  1.0611  0.8043
  176SOPE  H14S20034   6.501   0.239   9.273 -0.1243 -1.5193 -0.1977
  176SOPE  C21520035   6.489   0.263   9.060  0.4162 -0.0147  0.7986
  176SOPE  H15R20036   6.543   0.168   9.039  1.6469  1.2480 -2.4855
  176SOPE  H15S20037   6.562   0.342   9.034 -1.8164  1.4115 -1.6028
  176SOPE  C21620038   6.376   0.269   8.953 -0.2795 -0.1354 -0.3276
  176SOPE  H16R20039   6.340   0.374   8.955 -0.2543 -0.0952 -1.2344
  176SOPE  H16S20040   6.292   0.200   8.976  0.5518 -1.0909 -0.0844
  176SOPE  C21720041   6.433   0.243   8.812  0.2946 -0.0108  0.3424
  176SOPE  H17R20042   6.459   0.136   8.830 -0.9681  0.0859  3.2829
  176SOPE  H17S20043   6.520   0.307   8.785  0.4752 -1.1903 -2.1362
  176SOPE  C21820044   6.321   0.240   8.701  1.3448 -1.0886 -0.3535
  176SOPE  H18R20045   6.370   0.263   8.604  0.8003 -2.3113 -0.9437
  176SOPE  H18S20046   6.250   0.320   8.727 -0.0535 -2.8969  1.7069
  176SOPE  H18T20047   6.266   0.143   8.699  1.5405 -1.2050 -0.1785
  176SOPE   C3320048   6.740   0.956  10.141  0.1136  0.1588 -0.0295
  176SOPE   H3X20049   6.639   0.911  10.134  0.7450 -1.6596  1.4797
  176SOPE   H3Y20050   6.819   0.877  10.150  0.7462  0.8227  0.3459
  176SOPE   C3420051   6.772   1.042  10.016  0.5227 -0.0343 -0.8584
  176SOPE   H4X20052   6.871   1.091  10.026  2.0252 -3.1661  1.4434
  176SOPE   H4Y20053   6.695   1.123  10.016  0.8906  0.3250  0.0313
  176SOPE   C3520054   6.771   0.955   9.897  0.1502  0.2196  0.9488
  176SOPE   H5X20055   6.669   0.919   9.872  0.7914 -1.5220  0.6547
  176SOPE   H5Y20056   6.833   0.864   9.915  0.1749  0.1292  0.4194
  176SOPE   C3620057   6.827   1.011   9.769  0.0773  0.1408  0.3569
  176SOPE   H6X20058   6.938   1.004   9.778 -0.0711 -0.9795  1.5554
  176SOPE   H6Y20059   6.803   1.119   9.764 -0.1416  0.1746  1.7688
  176SOPE   C3720060   6.792   0.941   9.638  0.5775  0.0959  0.3778
  176SOPE   H7X20061   6.684   0.957   9.613  0.8071  0.6892 -0.2594
  176SOPE   H7Y20062   6.824   0.835   9.641 -2.6346 -0.9766  0.5383
  176SOPE   C3820063   6.864   1.004   9.513 -0.2161  0.5440  0.4074
  176SOPE   H8X20064   6.971   0.977   9.530  0.0290  0.9280 -0.4741
  176SOPE   H8Y20065   6.852   1.114   9.512  0.1067  0.5784 -0.6018
  176SOPE   C3920066   6.818   0.950   9.379  0.5513  0.6701  0.1597
  176SOPE   H9X20067   6.709   0.972   9.372  0.1800 -1.2521 -0.9459
  176SOPE   H9Y20068   6.820   0.838   9.379  0.1299  0.6387 -1.2760
  176SOPE  C31020069   6.892   0.993   9.251  0.2110 -0.2874  0.3043
  176SOPE  H10X20070   7.002   0.980   9.264  0.0687 -1.1121  0.7186
  176SOPE  H10Y20071   6.881   1.104   9.254  0.4006 -0.1685 -1.8796
  176SOPE  C31120072   6.837   0.954   9.111 -0.0511 -0.6191 -0.4494
  176SOPE  H11X20073   6.876   1.037   9.048 -0.7001 -1.1304 -1.5680
  176SOPE  H11Y20074   6.726   0.960   9.103  0.0499  0.3691 -1.3325
  176SOPE  C31220075   6.884   0.811   9.065 -0.1404  0.0666 -0.5552
  176SOPE  H12X20076   6.845   0.746   9.147 -1.4532  0.8482 -0.5310
  176SOPE  H12Y20077   6.994   0.803   9.063 -0.0083  1.5486 -0.2414
  176SOPE  C31320078   6.831   0.764   8.930  0.2356  0.1713  0.4553
  176SOPE  H13X20079   6.874   0.831   8.853 -1.7482  0.0639 -0.8300
  176SOPE  H13Y20080   6.724   0.793   8.936  0.4613  0.8549  1.4590
  176SOPE  C31420081   6.868   0.614   8.909 -0.3098  0.4989 -0.5766
  176SOPE  H14X20082   6.799   0.558   8.976 -0.3645 -0.9908 -1.8096
  176SOPE  H14Y20083   6.968   0.573   8.935 -0.9463  0.4315  2.0978
  176SOPE  C31520084   6.849   0.562   8.763 -0.7726  0.0671 -0.3082
  176SOPE  H15X20085   6.885   0.457   8.771  0.1912  0.4343  0.3793
  176SOPE  H15Y20086   6.928   0.624   8.717  0.3525  0.0035  1.4692
  176SOPE  C31620087   6.716   0.571   8.697  0.1426  0.2779 -0.7805
  176SOPE  H16X20088   6.706   0.676   8.662  0.8141  0.3961 -0.6268
  176SOPE  H16Y20089   6.644   0.548   8.779  0.6445  1.3187 -0.0255
  176SOPE  C31720090   6.709   0.488   8.567  0.1063  0.0981  0.4049
  176SOPE  H17X20091   6.614   0.513   8.515  1.1670 -1.3983 -2.4315
  176SOPE  H17Y20092   6.703   0.381   8.597 -3.0527  0.5570  1.8505
  176SOPE  C31820093   6.829   0.528   8.479 -0.5266 -0.3162 -0.3355
  176SOPE  H18X20094   6.816   0.474   8.382  0.2255 -1.4379  0.1633
  176SOPE  H18Y20095   6.925   0.494   8.524  0.2816 -0.3927 -2.0254
  176SOPE  H18Z20096   6.833   0.638   8.461  0.7271 -0.1231  0.9477
  177SOPE     N20097   4.882   3.813  11.023  0.3129  0.1114 -0.3871
  177SOPE   HN120098   4.918   3.717  11.003 -1.7545 -0.9114  0.5176
  177SOPE   HN220099   4.794   3.818  11.079  1.1529  2.4611  0.8566
  177SOPE   HN320100   4.851   3.863  10.937 -1.1917 -1.1150 -0.6002
  177SOPE   C1220101   4.979   3.897  11.092 -0.2239 -0.2280 -0.1775
  177SOPE  H12A20102   5.008   3.846  11.186 -1.1582 -0.7947 -0.1798
  177SOPE  H12B20103   4.929   3.992  11.120  0.7904  0.5002 -0.7866
  177SOPE   C1120104   5.108   3.915  11.004 -0.3672 -0.1093  0.4726
  177SOPE  H11A20105   5.193   3.970  11.050 -0.2079  2.0096 -2.1110
  177SOPE  H11B20106   5.091   3.987  10.921  0.0677 -0.3929  0.1273
  177SOPE     P20107   5.294   3.734  10.932 -0.0668  0.0491 -0.3179
  177SOPE   O1320108   5.275   3.592  10.909 -0.3413  0.2495  0.2258
  177SOPE   O1420109   5.368   3.781  11.055  0.1563  0.2242  0.1297
  177SOPE   O1220110   5.148   3.791  10.942  0.6758 -0.7261 -0.5183
  177SOPE   O1120111   5.343   3.801  10.794  0.5512  0.4076 -0.2238
  177SOPE    C120112   5.405   3.924  10.778  0.3525 -0.3130  0.2867
  177SOPE    HA20113   5.461   3.956  10.868  2.1329 -0.1850 -0.8252
  177SOPE    HB20114   5.331   4.001  10.748  0.5583 -0.3889 -0.4272
  177SOPE    C220115   5.510   3.907  10.663 -0.0722  0.9761 -0.9116
  177SOPE    HS20116   5.575   3.997  10.662 -0.2260  1.0860 -0.9364
  177SOPE   O2120117   5.455   3.877  10.538  0.0084  0.3647 -0.0229
  177SOPE   C2120118   5.431   3.975  10.456  0.1015  0.2502  0.8184
  177SOPE   O2220119   5.469   4.087  10.473  0.2602  0.1964 -0.7590
  177SOPE   C2220120   5.348   3.917  10.333  0.0580  0.6473  0.1050
  177SOPE   H2R20121   5.243   3.903  10.365 -0.2660  0.9456 -0.7843
  177SOPE   H2S20122   5.402   3.822  10.309  0.1429  0.3260  1.4890
  177SOPE    C320123   5.607   3.793  10.698 -0.1082 -0.0563  0.8247
  177SOPE    HX20124   5.542   3.706  10.719 -0.1694  0.1503  1.5043
  177SOPE    HY20125   5.661   3.817  10.792  1.4718 -1.7083  0.4033
  177SOPE   O3120126   5.699   3.763  10.588  0.4192 -1.0572 -0.0282
  177SOPE   C3120127   5.780   3.856  10.540 -0.0904  0.4154 -0.7433
  177SOPE   O3220128   5.802   3.967  10.584 -0.1683  0.4188 -0.1081
  177SOPE   C3220129   5.835   3.795  10.414  0.0890 -0.3422  0.0362
  177SOPE   H2X20130   5.880   3.700  10.448  1.6145  0.1535 -0.4988
  177SOPE   H2Y20131   5.922   3.858  10.386 -0.0618 -0.4222 -0.6309
  177SOPE   C2320132   5.354   4.012  10.215  0.2783  0.3230  0.0752
  177SOPE   H3R20133   5.457   4.048  10.198  0.7449 -0.6964  0.6385
  177SOPE   H3S20134   5.274   4.089  10.220 -1.4648 -1.3481 -0.6102
  177SOPE   C2420135   5.326   3.934  10.078 -0.1422  0.2797  0.2300
  177SOPE   H4R20136   5.398   3.849  10.075 -0.5527 -0.0552 -0.2450
  177SOPE   H4S20137   5.223   3.894  10.080 -0.5280  1.2560  0.5820
  177SOPE   C2520138   5.331   4.014   9.948 -0.4585  0.3298  0.1240
  177SOPE   H5R20139   5.245   4.084   9.954  0.8183  2.3592 -2.5095
  177SOPE   H5S20140   5.431   4.063   9.949 -0.5527  0.5244  1.3895
  177SOPE   C2620141   5.327   3.937   9.818  0.3378  0.1508 -0.1900
  177SOPE   H6R20142   5.419   3.877   9.797 -0.7927 -2.0815  0.8100
  177SOPE   H6S20143   5.251   3.856   9.819 -0.2160  0.5946 -2.1428
  177SOPE   C2720144   5.295   4.024   9.696  0.0920 -0.2654 -0.1623
  177SOPE   H7R20145   5.214   4.097   9.718  1.9264  0.9703  3.3437
  177SOPE   H7S20146   5.389   4.083   9.687  1.4881 -2.4293 -0.3988
  177SOPE   C2820147   5.250   3.946   9.574  0.0317  0.0357  0.0549
  177SOPE   H8R20148   5.310   3.853   9.574 -0.4409 -0.2869  1.3365
  177SOPE   H8S20149   5.147   3.922   9.607  0.4167 -0.2081  1.1462
  177SOPE   C2920150   5.274   4.030   9.446  0.2564  0.0617 -0.4527
  177SOPE   H9120151   5.268   4.140   9.447  2.2226  0.2402  2.0517
  177SOPE  C21020152   5.304   3.977   9.330 -0.5569 -0.0963  0.5937
  177SOPE  H10120153   5.317   4.042   9.243  1.1904  0.3506  1.1397
  177SOPE  C21120154   5.334   3.831   9.293 -0.5842 -0.9560 -0.3296
  177SOPE  H11R20155   5.237   3.776   9.288 -1.5144  0.6493 -1.3265
  177SOPE  H11S20156   5.388   3.776   9.372 -3.2974 -0.2760  2.1895
  177SOPE  C21220157   5.410   3.815   9.154  0.3756  0.1922 -0.7404
  177SOPE  H12R20158   5.456   3.714   9.151  0.0773  0.0839 -2.9625
  177SOPE  H12S20159   5.493   3.888   9.158  2.3152 -1.9419 -0.3666
  177SOPE  C21320160   5.317   3.836   9.040 -0.0644  0.0043 -0.0153
  177SOPE  H13R20161   5.301   3.943   9.018  0.9727 -0.3014 -2.5503
  177SOPE  H13S20162   5.216   3.795   9.065  0.5687 -0.2396  2.4080
  177SOPE  C21420163   5.363   3.766   8.915  0.0157 -0.3764 -0.3839
  177SOPE  H14R20164   5.269   3.764   8.856 -1.3349  1.7137  1.5222
  177SOPE  H14S20165   5.400   3.665   8.946  0.4515  0.6577  2.9152
  177SOPE  C21520166   5.482   3.842   8.845  0.2726  0.2462  0.4660
  177SOPE  H15R20167   5.571   3.860   8.909  1.7780  0.1655 -1.5168
  177SOPE  H15S20168   5.443   3.943   8.821  0.4186  0.2302  0.1556
  177SOPE  C21620169   5.518   3.784   8.708  0.4360 -0.1685  0.4264
  177SOPE  H16R20170   5.429   3.783   8.642  2.0693 -0.7407 -1.9388
  177SOPE  H16S20171   5.555   3.679   8.715  1.5327 -0.2499 -3.6132
  177SOPE  C21720172   5.633   3.851   8.624 -0.2273  0.4465  0.0241
  177SOPE  H17R20173   5.645   3.960   8.641 -1.6307  0.7912 -0.9749
  177SOPE  H17S20174   5.606   3.837   8.517 -1.1598 -1.4540  0.4636
  177SOPE  C21820175   5.769   3.776   8.634 -0.4546  0.2979  0.7300
  177SOPE  H18R20176   5.760   3.673   8.592 -1.0270  0.6157  0.0395
  177SOPE  H18S20177   5.813   3.769   8.736  0.7705  2.4399  0.4036
  177SOPE  H18T20178   5.851   3.825   8.579 -0.6065 -0.3623 -0.1137
  177SOPE   C3320179   5.732   3.779  10.300 -0.5698 -0.5805  0.7951
  177SOPE   H3X20180   5.685   3.878  10.280 -0.4896 -0.3289  1.7668
  177SOPE   H3Y20181   5.647   3.712  10.325 -1.1302 -1.6230 -3.2162
  177SOPE   C3420182   5.795   3.724  10.178  0.0206  0.5792  0.6601
  177SOPE   H4X20183   5.831   3.624  10.209 -2.3088 -0.0561  1.5253
  177SOPE   H4Y20184   5.879   3.793  10.155  0.6655 -0.3108  0.2953
  177SOPE   C3520185   5.704   3.728  10.055 -1.1605 -0.1048  0.0868
  177SOPE   H5X20186   5.689   3.834  10.024 -0.0854  0.1146  0.2702
  177SOPE   H5Y20187   5.604   3.689  10.084  0.4043 -4.7290  0.0118
  177SOPE   C3620188   5.769   3.647   9.940 -0.1762 -0.4996 -0.0874
  177SOPE   H6X20189   5.755   3.542   9.974  3.4541 -1.7876 -2.0172
  177SOPE   H6Y20190   5.879   3.653   9.932  0.0221 -1.5197  1.4456
  177SOPE   C3720191   5.703   3.681   9.804 -0.1355  0.3093 -0.6538
  177SOPE   H7X20192   5.739   3.784   9.784 -0.2562  0.6126  0.6552
  177SOPE   H7Y20193   5.593   3.690   9.819 -0.1959 -0.3819 -0.6482
  177SOPE   C3820194   5.736   3.593   9.683 -0.4893 -0.2224  0.3144
  177SOPE   H8X20195   5.675   3.501   9.690  0.7018 -1.0526  0.0928
  177SOPE   H8Y20196   5.844   3.566   9.681  0.0300  1.7080  0.3395
  177SOPE   C3920197   5.699   3.657   9.549  0.2434  0.1737 -0.1519
  177SOPE   H9X20198   5.759   3.747   9.526  0.7123 -0.5681 -2.0026
  177SOPE   H9Y20199   5.593   3.690   9.548  0.5781  1.2800 -0.2172
  177SOPE  C31020200   5.708   3.571   9.429 -0.4340  0.2302  0.1502
  177SOPE  H10X20201   5.639   3.484   9.437 -1.0007  0.5589 -1.0172
  177SOPE  H10Y20202   5.811   3.530   9.431 -0.4532  0.1699 -0.0621
  177SOPE  C31120203   5.693   3.653   9.300 -0.8859  0.9564  1.0331
  177SOPE  H11X20204   5.775   3.729   9.296  0.3136 -0.3387 -1.1086
  177SOPE  H11Y20205   5.593   3.702   9.298 -0.7976  1.1321  0.8644
  177SOPE  C31220206   5.725   3.557   9.183 -0.0528 -0.0134  0.0833
  177SOPE  H12X20207   5.643   3.487   9.160 -1.7636  2.0127 -0.3225
  177SOPE  H12Y20208   5.824   3.512   9.203  0.2174  0.0736 -0.9761
  177SOPE  C31320209   5.746   3.641   9.052 -0.7359 -0.2848  0.0184
  177SOPE  H13X20210   5.814   3.721   9.088  1.2324 -0.4476 -3.0387
  177SOPE  H13Y20211   5.650   3.684   9.016 -1.0914 -0.0493  1.1845
  177SOPE  C31420212   5.829   3.564   8.946  0.2887 -1.1108 -0.5026
  177SOPE  H14X20213   5.896   3.497   9.003  2.3946  0.0701 -1.4592
  177SOPE  H14Y20214   5.889   3.646   8.900 -0.9611  0.0134 -0.1704
  177SOPE  C31520215   5.740   3.485   8.857 -0.3713  0.0551  0.1875
  177SOPE  H15X20216   5.668   3.558   8.814 -1.5458 -0.3169  1.4490
  177SOPE  H15Y20217   5.662   3.425   8.908 -1.8169  1.4247 -0.3165
  177SOPE  C31620218   5.810   3.390   8.753  0.6257 -0.0661 -0.3758
  177SOPE  H16X20219   5.885   3.339   8.817 -1.7420 -1.7329  1.2009
  177SOPE  H16Y20220   5.852   3.449   8.668 -0.3551  0.2077 -0.6783
  177SOPE  C31720221   5.718   3.290   8.681 -0.0334  0.1867  0.1497
  177SOPE  H17X20222   5.649   3.346   8.614 -3.3874 -1.1941  2.1487
  177SOPE  H17Y20223   5.645   3.236   8.746  0.5924 -0.3397  0.4198
  177SOPE  C31820224   5.804   3.188   8.600  0.5208 -0.1845 -0.6089
  177SOPE  H18X20225   5.750   3.142   8.515  0.0870  2.5693 -1.9350
  177SOPE  H18Y20226   5.848   3.104   8.658  2.1741 -0.6614 -2.4501
  177SOPE  H18Z20227   5.902   3.223   8.559  0.2967 -0.2061 -1.1712
  178SOPE     N20228   3.076   1.336  11.184 -0.0346 -0.1719  0.6643
  178SOPE   HN120229   3.061   1.350  11.286  0.2183  2.4946  0.4005
  178SOPE   HN220230   3.176   1.356  11.161 -0.2054  1.5102  1.2382
  178SOPE   HN320231   3.016   1.402  11.131  1.4256  0.2551 -0.5305
  178SOPE   C1220232   3.038   1.193  11.145 -0.2691 -0.2531  0.5735
  178SOPE  H12A20233   2.932   1.181  11.176 -0.5665 -2.2071 -1.0184
  178SOPE  H12B20234   3.114   1.123  11.185 -0.1632 -2.0561 -2.4960
  178SOPE   C1120235   3.037   1.177  10.998  0.0734  0.1513  0.4560
  178SOPE  H11A20236   2.951   1.221  10.942  0.1895 -0.9159 -0.5978
  178SOPE  H11B20237   3.022   1.069  10.977  1.4802  0.1866 -0.8665
  178SOPE     P20238   3.250   1.132  10.841  0.0121  0.2339  0.1620
  178SOPE   O1320239   3.240   0.987  10.877 -0.2990  0.1796  0.7898
  178SOPE   O1420240   3.384   1.192  10.838 -0.2711  0.4995 -0.0649
  178SOPE   O1220241   3.160   1.216  10.940  0.1750 -0.0164 -0.0604
  178SOPE   O1120242   3.181   1.149  10.700  0.2105 -0.5670  0.4663
  178SOPE    C120243   3.161   1.281  10.655  0.0679 -0.7281 -0.8360
  178SOPE    HA20244   3.258   1.336  10.654  0.6507 -1.4559  2.6091
  178SOPE    HB20245   3.100   1.344  10.723  3.3728  1.6778  0.1784
  178SOPE    C220246   3.120   1.292  10.504  0.9234 -0.1812 -0.1739
  178SOPE    HS20247   3.086   1.396  10.487 -0.0362 -0.8036 -2.4872
  178SOPE   O2120248   3.013   1.203  10.468 -0.3384 -0.0462 -0.6688
  178SOPE   C2120249   2.888   1.216  10.516 -0.5676 -0.5847 -0.0741
  178SOPE   O2220250   2.851   1.312  10.584  0.1516  0.6241  0.0567
  178SOPE   C2220251   2.811   1.094  10.483 -0.6774 -0.4685  0.2199
  178SOPE   H2R20252   2.735   1.093  10.563  0.6616  2.2580  1.6612
  178SOPE   H2S20253   2.877   1.007  10.504  0.2890 -0.5910 -2.7940
  178SOPE    C320254   3.242   1.265  10.415 -0.1617 -0.4215  0.3151
  178SOPE    HX20255   3.239   1.157  10.388 -0.5184 -0.0066 -1.4105
  178SOPE    HY20256   3.331   1.274  10.482 -0.4747  0.0435  0.6728
  178SOPE   O3120257   3.244   1.347  10.292  0.3213  0.4411  0.1697
  178SOPE   C3120258   3.355   1.383  10.239 -0.0787  0.1707 -0.3223
  178SOPE   O3220259   3.468   1.348  10.277 -0.1344 -0.1304 -0.2293
  178SOPE   C3220260   3.340   1.458  10.109  0.0018 -0.4866  0.4067
  178SOPE   H2X20261   3.261   1.534  10.126 -1.4993 -1.4569 -1.8054
  178SOPE   H2Y20262   3.293   1.391  10.034  2.4305 -1.4144 -0.3920
  178SOPE   C2320263   2.742   1.096  10.344  0.4228 -0.4966 -0.0953
  178SOPE   H3R20264   2.679   1.183  10.315 -0.1552 -1.2509 -1.1528
  178SOPE   H3S20265   2.673   1.010  10.354  1.6281 -1.6681 -1.3777
  178SOPE   C2420266   2.837   1.068  10.227  0.4527 -0.8271  0.6213
  178SOPE   H4R20267   2.929   1.021  10.269  0.7603  0.8526  1.9029
  178SOPE   H4S20268   2.795   0.995  10.154 -0.0444  0.8795 -0.8564
  178SOPE   C2520269   2.866   1.190  10.144 -1.0692 -0.0797  0.5770
  178SOPE   H5R20270   2.769   1.240  10.121 -0.6100  0.5941  0.1115
  178SOPE   H5S20271   2.933   1.263  10.196 -2.4637  1.1596  0.7158
  178SOPE   C2620272   2.936   1.155  10.008  0.0219 -0.6380 -0.3284
  178SOPE   H6R20273   3.029   1.101  10.035 -0.9345 -1.5833  1.2416
  178SOPE   H6S20274   2.879   1.080   9.949 -1.0195  0.3302 -0.5918
  178SOPE   C2720275   2.966   1.280   9.925  0.0056 -0.7102  0.3409
  178SOPE   H7R20276   2.880   1.350   9.921  0.6439  0.0735 -0.6427
  178SOPE   H7S20277   3.039   1.343   9.981 -2.1630 -0.3900  2.9960
  178SOPE   C2820278   3.011   1.245   9.779  0.2394  0.1744 -0.1370
  178SOPE   H8R20279   3.081   1.159   9.776 -1.1194 -1.0264  1.0341
  178SOPE   H8S20280   2.913   1.208   9.740 -1.5146  3.2156  1.0490
  178SOPE   C2920281   3.060   1.364   9.699  0.1836 -0.5731 -0.2777
  178SOPE   H9120282   3.145   1.412   9.749 -0.9478  1.7067 -0.4126
  178SOPE  C21020283   3.012   1.409   9.582 -0.5883 -0.2919  0.3060
  178SOPE  H10120284   3.061   1.494   9.532  1.7550 -1.9796 -0.4567
  178SOPE  C21120285   2.899   1.354   9.502  0.0017 -0.1881 -0.1938
  178SOPE  H11R20286   2.815   1.420   9.473  0.6157 -0.1514 -2.0387
  178SOPE  H11S20287   2.863   1.260   9.548  1.4724 -1.2737 -1.1381
  178SOPE  C21220288   2.947   1.312   9.358 -0.3400 -0.3028  0.9114
  178SOPE  H12R20289   2.876   1.237   9.316 -3.0858  3.4948 -2.0205
  178SOPE  H12S20290   3.048   1.267   9.358  0.6346  1.6276 -1.4977
  178SOPE  C21320291   2.959   1.430   9.259 -0.6398 -0.5379  0.3237
  178SOPE  H13R20292   3.031   1.498   9.309 -2.2474  0.3635  1.5439
  178SOPE  H13S20293   2.860   1.480   9.250 -0.2565  0.3851  0.9817
  178SOPE  C21420294   3.003   1.385   9.121 -0.5065 -0.2956 -0.7001
  178SOPE  H14R20295   2.917   1.323   9.088  0.1759 -0.8847 -1.4017
  178SOPE  H14S20296   3.088   1.316   9.139  1.3103  1.5919 -1.6806
  178SOPE  C21520297   3.042   1.500   9.024  0.3528  0.8182  0.0337
  178SOPE  H15R20298   3.131   1.549   9.068  0.4277  1.0263 -0.3461
  178SOPE  H15S20299   2.953   1.566   9.018 -1.0142 -1.1032 -2.9067
  178SOPE  C21620300   3.090   1.449   8.889 -0.4341  0.3278  0.4689
  178SOPE  H16R20301   3.000   1.400   8.844 -0.6888  1.6255 -0.5007
  178SOPE  H16S20302   3.166   1.374   8.918  0.2489  2.0145  3.3609
  178SOPE  C21720303   3.160   1.554   8.800 -0.3417 -0.6067  0.1773
  178SOPE  H17R20304   3.222   1.509   8.720  0.9805  0.0298  0.8182
  178SOPE  H17S20305   3.237   1.594   8.869  0.1698 -0.0775 -0.6960
  178SOPE  C21820306   3.079   1.676   8.744 -0.3461 -0.2512 -0.0060
  178SOPE  H18R20307   3.145   1.740   8.683 -1.0415  0.2833 -0.2131
  178SOPE  H18S20308   3.029   1.741   8.819 -0.3688  0.5846 -0.7374
  178SOPE  H18T20309   3.000   1.622   8.687 -1.0730  0.0236  0.7239
  178SOPE   C3320310   3.475   1.505  10.040  0.8668 -0.0779 -0.7325
  178SOPE   H3X20311   3.545   1.419  10.036  3.1025  1.7280 -2.7786
  178SOPE   H3Y20312   3.519   1.590  10.096  1.4387  1.1558 -2.9670
  178SOPE   C3420313   3.445   1.567   9.905 -0.8542  0.2789  0.4043
  178SOPE   H4X20314   3.373   1.506   9.847 -0.4088  0.0046  0.1299
  178SOPE   H4Y20315   3.547   1.564   9.859 -0.3501 -0.5842  1.5221
  178SOPE   C3520316   3.401   1.710   9.901 -0.0706 -0.6402  0.3226
  178SOPE   H5X20317   3.479   1.777   9.942  2.3076 -2.1433 -1.4521
  178SOPE   H5Y20318   3.313   1.733   9.965  0.8083  0.1865  1.2774
  178SOPE   C3620319   3.343   1.743   9.763  0.3914  0.0754 -0.1767
  178SOPE   H6X20320   3.303   1.846   9.752 -0.9384 -0.5342 -1.4838
  178SOPE   H6Y20321   3.268   1.664   9.738 -0.5512  0.4867  1.2581
  178SOPE   C3720322   3.456   1.744   9.654 -0.2256 -0.3341  0.6394
  178SOPE   H7X20323   3.508   1.646   9.643 -1.6227 -1.3264  2.3291
  178SOPE   H7Y20324   3.523   1.823   9.696  1.5685 -0.9177 -0.9657
  178SOPE   C3820325   3.398   1.776   9.515  0.1313 -0.0274  0.2443
  178SOPE   H8X20326   3.331   1.864   9.526 -1.6607 -1.3599  0.6178
  178SOPE   H8Y20327   3.338   1.687   9.485 -0.3669 -0.0016  1.1193
  178SOPE   C3920328   3.513   1.797   9.415 -0.0681 -0.0690 -0.3303
  178SOPE   H9X20329   3.581   1.709   9.416  0.5879  0.4351  0.8533
  178SOPE   H9Y20330   3.573   1.884   9.448  0.5385 -1.5630  2.9548
  178SOPE  C31020331   3.467   1.790   9.273  0.0719 -0.6457 -0.3356
  178SOPE  H10X20332   3.399   1.877   9.256 -0.5582 -1.1591 -0.4846
  178SOPE  H10Y20333   3.410   1.697   9.255  0.5258 -1.1869  0.9369
  178SOPE  C31120334   3.590   1.791   9.176  0.3878  0.0459 -0.6252
  178SOPE  H11X20335   3.644   1.694   9.189  0.8584  0.3941  0.0619
  178SOPE  H11Y20336   3.654   1.880   9.192  0.5869 -0.0925 -0.6421
  178SOPE  C31220337   3.538   1.795   9.032  0.3648  0.7511 -0.2447
  178SOPE  H12X20338   3.476   1.884   9.007 -2.7269 -1.6575 -1.8672
  178SOPE  H12Y20339   3.471   1.707   9.021  2.9113 -1.3349  0.0220
  178SOPE  C31320340   3.660   1.811   8.945 -0.7867 -0.3873  0.5346
  178SOPE  H13X20341   3.726   1.725   8.969  0.3138 -0.0434 -1.0926
  178SOPE  H13Y20342   3.713   1.900   8.984 -1.4992  1.1450 -1.7493
  178SOPE  C31420343   3.634   1.810   8.795  0.5678  0.0922 -0.5399
  178SOPE  H14X20344   3.578   1.901   8.762 -3.0434 -1.3937  0.9623
  178SOPE  H14Y20345   3.557   1.733   8.775 -0.8500  1.6061 -1.1671
  178SOPE  C31520346   3.754   1.774   8.710  0.0364  0.2038 -0.1274
  178SOPE  H15X20347   3.780   1.676   8.754 -4.3036 -0.9868  0.2413
  178SOPE  H15Y20348   3.837   1.848   8.715 -0.1955  0.5397 -1.0822
  178SOPE  C31620349   3.727   1.770   8.560 -0.7355 -0.3276  0.6075
  178SOPE  H16X20350   3.655   1.690   8.529 -0.8033 -1.7214  3.9499
  178SOPE  H16Y20351   3.823   1.747   8.509 -0.4608 -0.3385  1.1281
  178SOPE  C31720352   3.673   1.907   8.507  0.8261 -0.2985 -0.1136
  178SOPE  H17X20353   3.723   1.991   8.560 -1.1351  0.2489  0.9521
  178SOPE  H17Y20354   3.571   1.911   8.549  1.6684  2.4325  2.0198
  178SOPE  C31820355   3.672   1.929   8.355 -0.6459  0.0865 -0.2391
  178SOPE  H18X20356   3.634   1.840   8.302  1.8002  0.2908 -2.5358
  178SOPE  H18Y20357   3.774   1.933   8.310 -0.7257 -0.0367 -0.4323
  178SOPE  H18Z20358   3.618   2.021   8.324 -0.3934  0.5842  0.7564
  179SOPE     N20359   1.634   3.026   6.536  0.2446 -0.1262  0.3879
  179SOPE   HN120360   1.635   3.045   6.638  0.6682  2.9759 -0.1078
  179SOPE   HN220361   1.633   3.116   6.485  2.8971  0.2542  0.8650
  179SOPE   HN320362   1.545   2.975   6.517  0.5113 -0.3660 -0.2693
  179SOPE   C1220363   1.747   2.932   6.495  0.0431  0.2079 -0.0410
  179SOPE  H12A20364   1.745   2.926   6.385 -1.2119 -0.5903  0.0020
  179SOPE  H12B20365   1.712   2.837   6.542 -1.0098  0.4143 -0.3954
  179SOPE   C1120366   1.875   2.986   6.546 -0.1738  0.2116  0.7466
  179SOPE  H11A20367   1.869   3.016   6.652 -0.6896  1.1160  0.4757
  179SOPE  H11B20368   1.903   3.086   6.505  0.4374  0.3681  1.5236
  179SOPE     P20369   2.067   2.871   6.429 -0.0454 -0.4121  0.1387
  179SOPE   O1320370   2.202   2.936   6.445 -0.1001  0.3441  0.5550
  179SOPE   O1420371   1.992   2.904   6.305  0.4586  0.1211  0.3577
  179SOPE   O1220372   1.979   2.888   6.548  0.2727 -0.3232  0.3054
  179SOPE   O1120373   2.082   2.714   6.437 -0.3642 -0.1542 -0.4217
  179SOPE    C120374   1.974   2.625   6.460  0.7036 -0.1372  0.5695
  179SOPE    HA20375   1.961   2.546   6.383  0.4570 -0.2548  0.7290
  179SOPE    HB20376   1.874   2.674   6.469  0.4085 -0.1788 -1.8628
  179SOPE    C220377   1.981   2.551   6.603 -0.7176 -0.2831  0.0307
  179SOPE    HS20378   1.884   2.498   6.619 -2.3322  2.0059 -1.5601
  179SOPE   O2120379   2.021   2.638   6.712 -0.1023 -0.3949  0.0303
  179SOPE   C2120380   1.926   2.704   6.766  0.3335 -0.3168  0.1525
  179SOPE   O2220381   1.804   2.695   6.737  0.1457  0.1327  0.5699
  179SOPE   C2220382   1.974   2.813   6.870 -0.6934  0.1432  0.2564
  179SOPE   H2R20383   2.002   2.898   6.805  0.2924  0.7182  1.4004
  179SOPE   H2S20384   2.068   2.781   6.919  0.0536  0.6112 -0.8435
  179SOPE    C320385   2.082   2.433   6.601 -0.3968 -0.4038 -0.9427
  179SOPE    HX20386   2.184   2.478   6.605 -1.4381  2.1180 -1.1625
  179SOPE    HY20387   2.059   2.383   6.504 -0.5084  1.0183 -1.6692
  179SOPE   O3120388   2.055   2.348   6.717 -0.2108 -0.2354 -0.2043
  179SOPE   C3120389   2.153   2.259   6.740 -0.2738 -0.3942  0.2944
  179SOPE   O3220390   2.247   2.234   6.667 -0.4155  0.2534 -0.0424
  179SOPE   C3220391   2.137   2.210   6.886 -0.2401  0.2580 -0.3245
  179SOPE   H2X20392   2.095   2.294   6.945  0.0616 -0.1576  0.4920
  179SOPE   H2Y20393   2.246   2.198   6.904 -0.7280 -0.5808  2.5811
  179SOPE   C2320394   1.872   2.852   6.977  0.3722 -0.3649 -0.2499
  179SOPE   H3R20395   1.864   2.763   7.042 -1.9846 -0.2143 -0.2493
  179SOPE   H3S20396   1.772   2.868   6.932  0.1828 -0.2897  0.1915
  179SOPE   C2420397   1.906   2.986   7.047 -0.2699  0.1300  0.1253
  179SOPE   H4R20398   2.002   2.966   7.098  0.8767  0.0301 -1.9444
  179SOPE   H4S20399   1.918   3.062   6.966 -1.5101  0.0054 -0.2004
  179SOPE   C2520400   1.805   3.033   7.145 -0.7981 -0.8314 -0.2967
  179SOPE   H5R20401   1.705   3.059   7.103 -0.2188  1.0199 -0.6394
  179SOPE   H5S20402   1.782   2.951   7.217  3.0146  1.2006  3.7089
  179SOPE   C2620403   1.847   3.144   7.240 -0.1352 -0.1344  0.0662
  179SOPE   H6R20404   1.903   3.215   7.175  0.4706 -1.1194 -0.5067
  179SOPE   H6S20405   1.758   3.190   7.287 -0.4067 -2.3997  1.9071
  179SOPE   C2720406   1.946   3.096   7.347  1.0162  1.4104 -0.2034
  179SOPE   H7R20407   1.894   3.018   7.408 -0.1410  2.1018 -0.2848
  179SOPE   H7S20408   2.027   3.037   7.298  0.1388 -1.1398  1.2006
  179SOPE   C2820409   2.003   3.207   7.432 -0.4311 -0.6762 -0.8629
  179SOPE   H8R20410   2.086   3.158   7.488  0.6075  0.1772 -1.6203
  179SOPE   H8S20411   2.048   3.284   7.367 -0.6789  1.3333  1.2122
  179SOPE   C2920412   1.911   3.275   7.529 -0.1819 -0.3752 -0.3209
  179SOPE   H9120413   1.845   3.341   7.471 -0.0976 -0.0760 -0.0732
  179SOPE  C21020414   1.912   3.275   7.662 -0.0284  0.0110  0.3142
  179SOPE  H10120415   1.834   3.334   7.713  1.8557  2.4996  0.4833
  179SOPE  C21120416   1.998   3.207   7.757  0.5174 -0.5469 -0.3065
  179SOPE  H11R20417   2.069   3.134   7.714  0.7778 -1.0755  0.9691
  179SOPE  H11S20418   1.934   3.153   7.829  1.5197 -1.2979  0.0434
  179SOPE  C21220419   2.095   3.302   7.830 -0.7220  0.1699  0.3067
  179SOPE  H12R20420   2.165   3.355   7.763  0.1485 -0.3431  0.7926
  179SOPE  H12S20421   2.153   3.243   7.905  3.9619  2.8585 -0.8166
  179SOPE  C21320422   2.014   3.396   7.921  0.9001 -0.3417  0.0805
  179SOPE  H13R20423   1.934   3.334   7.967  1.0055 -1.7589 -1.5258
  179SOPE  H13S20424   1.955   3.469   7.861 -0.0290 -1.5518 -0.5317
  179SOPE  C21420425   2.098   3.486   8.024 -0.4520 -0.3148 -0.3185
  179SOPE  H14R20426   2.182   3.538   7.974 -1.0031  1.5806  0.6249
  179SOPE  H14S20427   2.147   3.426   8.103 -1.8374  0.0287  0.8378
  179SOPE  C21520428   2.015   3.592   8.093 -0.6634 -0.6185  0.9677
  179SOPE  H15R20429   1.941   3.545   8.161 -1.5899 -1.3071 -0.4661
  179SOPE  H15S20430   1.958   3.646   8.015 -1.4892 -2.3811  0.2733
  179SOPE  C21620431   2.099   3.688   8.178 -0.5098  0.0795  0.0383
  179SOPE  H16R20432   2.170   3.747   8.117  1.6283 -0.2154  2.1071
  179SOPE  H16S20433   2.153   3.628   8.255 -1.7051  0.9356  1.5897
  179SOPE  C21720434   2.013   3.798   8.248 -0.0695 -0.1117  0.1181
  179SOPE  H17R20435   1.935   3.835   8.179  0.3468  0.7944  0.1278
  179SOPE  H17S20436   2.087   3.878   8.268 -1.2592  0.9172  0.4670
  179SOPE  C21820437   1.968   3.738   8.382  1.0957 -0.4206 -0.2437
  179SOPE  H18R20438   1.921   3.821   8.439 -0.8341 -0.4851 -1.6194
  179SOPE  H18S20439   2.053   3.690   8.435 -0.1652 -1.4272  0.9405
  179SOPE  H18T20440   1.890   3.661   8.362 -0.1134  0.9313 -0.9082
  179SOPE   C3320441   2.050   2.089   6.903  0.0293 -0.0940  0.6956
  179SOPE   H3X20442   2.094   1.996   6.860 -0.7987 -0.0958 -0.1744
  179SOPE   H3Y20443   1.955   2.103   6.848  0.4157 -0.4868 -0.0824
  179SOPE   C3420444   2.019   2.076   7.046 -0.6244  0.6007 -0.4072
  179SOPE   H4X20445   1.952   2.162   7.066 -0.5133  0.9537 -1.4899
  179SOPE   H4Y20446   2.119   2.080   7.095 -0.2134 -1.3472 -0.9836
  179SOPE   C3520447   1.953   1.946   7.081  0.6226 -0.1612 -0.4589
  179SOPE   H5X20448   2.003   1.856   7.039  1.1678  0.1000 -0.3799
  179SOPE   H5Y20449   1.851   1.941   7.036  0.3203 -1.7430  0.3197
  179SOPE   C3620450   1.926   1.928   7.231 -0.3446  0.3693  0.4156
  179SOPE   H6X20451   1.853   2.006   7.263  0.0838  0.9670 -0.0351
  179SOPE   H6Y20452   2.019   1.945   7.290  0.3523 -2.0456  0.1267
  179SOPE   C3720453   1.863   1.790   7.265 -0.2088 -0.1602 -0.2369
  179SOPE   H7X20454   1.921   1.709   7.216  0.9852 -0.0936  0.9904
  179SOPE   H7Y20455   1.766   1.788   7.211  1.0036 -1.1191 -2.5458
  179SOPE   C3820456   1.848   1.767   7.413 -0.4624  0.0933  0.0811
  179SOPE   H8X20457   1.790   1.676   7.441 -0.5213  0.3269  0.7229
  179SOPE   H8Y20458   1.789   1.854   7.447 -1.3208 -0.0161 -1.0452
  179SOPE   C3920459   1.981   1.770   7.487  0.3050 -0.1225 -0.5111
  179SOPE   H9X20460   2.039   1.863   7.465  1.2372 -1.0292 -2.0356
  179SOPE   H9Y20461   2.050   1.691   7.453  0.4283  0.3092 -1.2896
  179SOPE  C31020462   1.961   1.750   7.635  0.3378  0.3668 -0.1383
  179SOPE  H10X20463   2.061   1.756   7.684  0.3680 -1.5366  0.1030
  179SOPE  H10Y20464   1.927   1.645   7.648  3.0667 -0.5871  0.0635
  179SOPE  C31120465   1.852   1.844   7.693 -0.2676  0.7756  0.0035
  179SOPE  H11X20466   1.751   1.808   7.663 -1.7058  4.0167  0.5208
  179SOPE  H11Y20467   1.876   1.943   7.649 -0.7686  0.4590 -1.0235
  179SOPE  C31220468   1.863   1.850   7.844  1.0042  0.5351 -0.0896
  179SOPE  H12X20469   1.954   1.899   7.884  0.3231  2.5744 -0.9036
  179SOPE  H12Y20470   1.859   1.747   7.885 -0.8078  0.7086  0.2638
  179SOPE  C31320471   1.744   1.926   7.899 -0.2037 -0.1997  0.7190
  179SOPE  H13X20472   1.651   1.896   7.845 -0.2694  0.2845  0.5619
  179SOPE  H13Y20473   1.772   2.030   7.871 -1.3124 -0.4434 -1.5093
  179SOPE  C31420474   1.734   1.915   8.052 -0.6329  0.2537 -0.4792
  179SOPE  H14X20475   1.831   1.927   8.104 -1.1486 -2.9384  1.4707
  179SOPE  H14Y20476   1.697   1.813   8.077 -2.4731  1.0000 -0.0543
  179SOPE  C31520477   1.647   2.024   8.100 -0.1960  0.6776  0.3596
  179SOPE  H15X20478   1.542   2.021   8.065 -0.5406  1.0612  1.3227
  179SOPE  H15Y20479   1.696   2.117   8.064  2.0900 -1.5248 -2.7167
  179SOPE  C31620480   1.635   2.044   8.250 -0.2550 -0.1717 -0.5214
  179SOPE  H16X20481   1.738   2.065   8.286 -0.5803  0.7078 -0.0577
  179SOPE  H16Y20482   1.597   1.955   8.303 -0.3436  0.3108  0.2446
  179SOPE  C31720483   1.547   2.164   8.296  0.1630 -0.2193  0.4295
  179SOPE  H17X20484   1.452   2.151   8.239 -0.2781 -1.0555  1.3193
  179SOPE  H17Y20485   1.600   2.258   8.270 -0.1505 -0.7947 -2.6442
  179SOPE  C31820486   1.516   2.165   8.444  0.7757 -0.2649  0.0345
  179SOPE  H18X20487   1.442   2.242   8.475 -0.8239 -0.9351 -1.9168
  179SOPE  H18Y20488   1.618   2.192   8.480  2.7988 -1.6880 -3.9963
  179SOPE  H18Z20489   1.488   2.065   8.482  0.3649  0.0005  0.4404
  180SOPE     N20490   1.263   4.998   6.179  0.1089 -0.4286 -0.1160
  180SOPE   HN120491   1.225   4.924   6.116  0.2471 -1.4270  0.9371
  180SOPE   HN220492   1.193   5.074   6.179 -0.1988 -0.6291  2.3779
  180SOPE   HN320493   1.341   5.049   6.133 -1.6074 -0.0243 -2.7717
  180SOPE   C1220494   1.281   4.949   6.318  0.2069  0.7503 -0.5025
  180SOPE  H12A20495   1.343   5.024   6.372  1.9741 -0.4701 -0.7408
  180SOPE  H12B20496   1.342   4.857   6.312 -0.1837  0.5109 -0.8530
  180SOPE   C1120497   1.142   4.936   6.384  0.0374 -0.2425 -0.3124
  180SOPE  H11A20498   1.113   5.042   6.397 -0.2804 -0.0672 -2.1445
  180SOPE  H11B20499   1.155   4.883   6.481 -0.5905 -2.1450 -1.2071
  180SOPE     P20500   0.895   4.878   6.332  0.1752  0.0499  0.1011
  180SOPE   O1320501   0.828   4.789   6.236 -0.1716  0.3013 -0.8380
  180SOPE   O1420502   0.863   5.025   6.320  0.0940 -0.4196 -0.1294
  180SOPE   O1220503   1.049   4.863   6.301  0.1224 -0.2554  0.0573
  180SOPE   O1120504   0.888   4.830   6.484 -0.3343 -0.0890  0.1193
  180SOPE    C120505   0.760   4.826   6.541  0.4263  0.2746  0.5045
  180SOPE    HA20506   0.710   4.728   6.530  0.5512  0.2243  0.3770
  180SOPE    HB20507   0.689   4.901   6.500  0.5616  0.2579  0.2332
  180SOPE    C220508   0.774   4.854   6.694  0.5616 -1.0057  0.3022
  180SOPE    HS20509   0.675   4.883   6.733  0.4822 -3.5275  2.2562
  180SOPE   O2120510   0.873   4.958   6.727  0.5903 -0.5164 -0.1620
  180SOPE   C2120511   0.836   5.076   6.695 -0.1100 -0.0259  0.2323
  180SOPE   O2220512   0.736   5.102   6.630  0.2459 -0.5295 -0.0257
  180SOPE   C2220513   0.946   5.173   6.744 -0.5540  0.3180 -0.0258
  180SOPE   H2R20514   0.927   5.273   6.699  0.6995 -0.7678 -3.2522
  180SOPE   H2S20515   1.034   5.134   6.690 -0.8041 -0.0485 -0.1720
  180SOPE    C320516   0.808   4.729   6.782 -0.0232  0.8740  0.1568
  180SOPE    HX20517   0.912   4.699   6.756  0.9311  3.9993 -0.1694
  180SOPE    HY20518   0.738   4.645   6.762  1.3909  0.0611 -1.6221
  180SOPE   O3120519   0.793   4.764   6.917  0.0186 -0.2695 -0.5547
  180SOPE   C3120520   0.904   4.784   6.989 -0.0808  0.3870 -0.1000
  180SOPE   O3220521   1.019   4.776   6.943  0.5599 -0.3506  0.2959
  180SOPE   C3220522   0.868   4.800   7.145  0.5751 -0.3588 -0.7757
  180SOPE   H2X20523   0.840   4.698   7.179 -0.4935 -0.6541 -2.3786
  180SOPE   H2Y20524   0.775   4.860   7.149 -0.2392 -1.5977 -0.4699
  180SOPE   C2320525   0.975   5.171   6.893  0.1747  0.0002  0.2263
  180SOPE   H3R20526   1.055   5.246   6.911 -1.8004  2.1802  0.4910
  180SOPE   H3S20527   1.019   5.073   6.921  0.9735  0.1377 -0.4946
  180SOPE   C2420528   0.854   5.204   6.976  0.5862  0.0779  0.5439
  180SOPE   H4R20529   0.777   5.251   6.911  0.3352 -0.8636  0.1426
  180SOPE   H4S20530   0.814   5.112   7.025  0.2758  0.3800  0.8587
  180SOPE   C2520531   0.882   5.313   7.081 -0.8688  0.0366  0.5658
  180SOPE   H5R20532   0.971   5.282   7.140  0.6548  1.9957 -0.5906
  180SOPE   H5S20533   0.910   5.406   7.027  0.4160  0.7448  2.3518
  180SOPE   C2620534   0.780   5.368   7.176  0.3748  0.1191  0.5780
  180SOPE   H6R20535   0.803   5.471   7.213 -0.4013  0.4860  0.0671
  180SOPE   H6S20536   0.688   5.384   7.116  0.1117 -0.5291  0.8057
  180SOPE   C2720537   0.737   5.282   7.297  0.2324 -0.1649 -0.5122
  180SOPE   H7R20538   0.727   5.176   7.266 -1.6990  0.0593 -0.7583
  180SOPE   H7S20539   0.822   5.299   7.368 -0.5383  0.1868  0.3544
  180SOPE   C2820540   0.603   5.328   7.360 -1.3255 -0.6209 -0.3141
  180SOPE   H8R20541   0.528   5.301   7.283 -2.9844 -1.6780  1.5660
  180SOPE   H8S20542   0.572   5.262   7.445  0.1855  1.3166  1.8593
  180SOPE   C2920543   0.603   5.469   7.399 -0.3647 -0.5463 -0.2389
  180SOPE   H9120544   0.567   5.533   7.317  0.9000  1.3485  0.6128
  180SOPE  C21020545   0.639   5.524   7.516 -0.4072 -0.2877  0.8770
  180SOPE  H10120546   0.627   5.634   7.521 -4.1788 -0.2384 -3.0538
  180SOPE  C21120547   0.697   5.451   7.635  0.0924  0.1839 -0.2152
  180SOPE  H11R20548   0.781   5.511   7.675 -1.1320 -0.5866  3.9144
  180SOPE  H11S20549   0.736   5.353   7.600 -2.5925 -1.3263  0.7674
  180SOPE  C21220550   0.594   5.413   7.737 -0.0743  0.2652  0.1896
  180SOPE  H12R20551   0.636   5.345   7.814 -1.6909 -0.6977  0.2639
  180SOPE  H12S20552   0.520   5.341   7.695  0.1629 -1.5104  2.6171
  180SOPE  C21320553   0.533   5.529   7.822  0.6299 -0.1922 -0.1218
  180SOPE  H13R20554   0.462   5.482   7.893 -1.7462  3.0943 -0.1361
  180SOPE  H13S20555   0.471   5.599   7.762 -0.9459  1.3279  3.0603
  180SOPE  C21420556   0.638   5.615   7.898  0.3204 -0.1597 -0.5949
  180SOPE  H14R20557   0.682   5.690   7.828 -2.8982  0.6012 -1.9795
  180SOPE  H14S20558   0.714   5.555   7.951 -0.4183 -0.2824  0.3444
  180SOPE  C21520559   0.569   5.714   7.996  0.3174 -0.7387 -0.1873
  180SOPE  H15R20560   0.521   5.678   8.089  3.1045  0.9344  2.0662
  180SOPE  H15S20561   0.487   5.766   7.941  0.3936 -0.6772 -0.2427
  180SOPE  C21620562   0.681   5.819   8.044 -0.8486 -0.2773 -0.0009
  180SOPE  H16R20563   0.635   5.910   8.088  0.6566  0.7206 -0.3980
  180SOPE  H16S20564   0.731   5.864   7.956  0.4096  1.3651  1.4854
  180SOPE  C21720565   0.786   5.763   8.146  0.2819  0.0735 -0.4217
  180SOPE  H17R20566   0.852   5.688   8.098 -1.5715 -0.9476 -1.5354
  180SOPE  H17S20567   0.728   5.703   8.219 -1.4494 -0.9059 -2.4793
  180SOPE  C21820568   0.869   5.877   8.217  0.0962 -0.0381 -0.0255
  180SOPE  H18R20569   0.900   5.950   8.140  1.1804 -0.6054 -0.1503
  180SOPE  H18S20570   0.946   5.836   8.285  1.2941 -0.6975 -1.6920
  180SOPE  H18T20571   0.789   5.921   8.280 -0.6636 -0.8665 -0.3678
  180SOPE   C3320572   0.984   4.848   7.234  0.0858  0.3112 -0.1035
  180SOPE   H3X20573   1.079   4.791   7.227 -0.2580 -0.0641 -2.8449
  180SOPE   H3Y20574   0.959   4.826   7.340  0.2245 -2.0154 -0.4974
  180SOPE   C3420575   1.016   4.993   7.221 -0.0513  0.0120  0.7244
  180SOPE   H4X20576   0.921   5.043   7.193  0.8355  0.8693 -0.9337
  180SOPE   H4Y20577   1.084   5.011   7.135 -2.0004  1.0242 -0.6722
  180SOPE   C3520578   1.067   5.048   7.353  0.2468 -0.3945  0.0627
  180SOPE   H5X20579   1.153   4.985   7.386  0.5883 -0.5124 -1.0280
  180SOPE   H5Y20580   0.979   5.036   7.420 -0.3090  0.6906 -0.4499
  180SOPE   C3620581   1.126   5.194   7.352 -0.1480 -0.2241  0.0301
  180SOPE   H6X20582   1.040   5.264   7.353  1.3648  1.7364 -0.4713
  180SOPE   H6Y20583   1.180   5.206   7.255  0.7346 -0.6385  0.4550
  180SOPE   C3720584   1.230   5.231   7.461 -0.2411  0.0576  0.4290
  180SOPE   H7X20585   1.278   5.329   7.442  0.6066 -0.8284 -2.5362
  180SOPE   H7Y20586   1.314   5.158   7.460 -0.6054 -0.3678 -0.0585
  180SOPE   C3820587   1.181   5.239   7.598  0.3363  0.3535  0.6158
  180SOPE   H8X20588   1.094   5.171   7.611 -0.4432  0.9583 -1.1089
  180SOPE   H8Y20589   1.137   5.340   7.612 -1.7709 -0.2341 -1.1740
  180SOPE   C3920590   1.295   5.218   7.700 -0.1146 -0.1089 -0.1642
  180SOPE   H9X20591   1.376   5.293   7.687 -0.3080  0.1197 -0.0324
  180SOPE   H9Y20592   1.337   5.115   7.690 -0.7690 -0.3638 -0.3011
  180SOPE  C31020593   1.249   5.226   7.849 -0.5178  0.4395 -0.2947
  180SOPE  H10X20594   1.181   5.141   7.874  0.0064 -0.0818 -0.5969
  180SOPE  H10Y20595   1.181   5.313   7.857 -0.0048  0.6543  3.3119
  180SOPE  C31120596   1.357   5.250   7.950 -0.0142  0.3301  0.2714
  180SOPE  H11X20597   1.388   5.355   7.935 -0.5937  0.3748 -0.6024
  180SOPE  H11Y20598   1.446   5.184   7.936  0.0951  0.4886  0.2205
  180SOPE  C31220599   1.311   5.228   8.097 -0.5498  0.4701  0.0327
  180SOPE  H12X20600   1.401   5.260   8.154  1.4392 -3.0270 -0.8486
  180SOPE  H12Y20601   1.294   5.119   8.116 -1.2705  0.8119  1.4371
  180SOPE  C31320602   1.193   5.315   8.146 -0.3392 -0.6671  0.7096
  180SOPE  H13X20603   1.102   5.255   8.124 -0.2617 -0.4764 -0.1687
  180SOPE  H13Y20604   1.180   5.406   8.084 -2.3718  0.2146  2.3063
  180SOPE  C31420605   1.202   5.359   8.290 -0.0654  0.6582 -0.0823
  180SOPE  H14X20606   1.296   5.416   8.305  1.3136 -1.4712 -0.2028
  180SOPE  H14Y20607   1.204   5.266   8.350 -1.8827  1.0862  0.7378
  180SOPE  C31520608   1.079   5.442   8.333  0.4551 -0.5701 -0.4104
  180SOPE  H15X20609   0.997   5.406   8.268  0.2495 -0.7128 -0.0704
  180SOPE  H15Y20610   1.101   5.547   8.302  3.0173 -0.5088  1.2511
  180SOPE  C31620611   1.048   5.439   8.480 -0.1636  0.3676  0.0195
  180SOPE  H16X20612   1.134   5.473   8.541  2.7134 -2.0957 -2.3394
  180SOPE  H16Y20613   1.031   5.330   8.498 -2.1771  0.3422 -1.6839
  180SOPE  C31720614   0.921   5.525   8.508 -0.6046  0.3714  0.5844
  180SOPE  H17X20615   0.842   5.483   8.443 -0.5214  1.2887 -0.1149
  180SOPE  H17Y20616   0.953   5.630   8.492  1.1981  0.3728  3.5215
  180SOPE  C31820617   0.870   5.528   8.646  0.1409 -0.2306 -0.4547
  180SOPE  H18X20618   0.851   5.425   8.682  0.6659  0.4901  2.0854
  180SOPE  H18Y20619   0.775   5.584   8.659 -0.9948 -2.3783  1.1684
  180SOPE  H18Z20620   0.941   5.575   8.718 -1.7178  2.2817 -0.1028
  181SOPE     N20621   5.789   1.359   5.830 -0.0875 -0.1605  0.0968
  181SOPE   HN120622   5.781   1.365   5.727  1.0906 -0.4393 -0.0230
  181SOPE   HN220623   5.703   1.310   5.862 -0.0073 -0.0669  0.4577
  181SOPE   HN320624   5.781   1.455   5.868 -2.4923 -0.3393  0.2383
  181SOPE   C1220625   5.922   1.311   5.883  0.7340 -0.1759  0.3264
  181SOPE  H12A20626   5.994   1.394   5.868  2.5881 -1.8474 -0.4352
  181SOPE  H12B20627   5.960   1.234   5.813  2.6893  2.0216 -1.1951
  181SOPE   C1120628   5.907   1.263   6.028 -0.7414 -0.0558 -0.4696
  181SOPE  H11A20629   5.924   1.354   6.089  1.1078 -0.6939  0.0496
  181SOPE  H11B20630   5.986   1.193   6.063  0.3513 -0.0372 -2.6880
  181SOPE     P20631   5.767   1.042   6.069 -0.2190 -0.3195  0.3233
  181SOPE   O1320632   5.819   0.991   5.943 -0.1094 -0.2829  0.5476
  181SOPE   O1420633   5.638   1.000   6.114  0.1423 -0.2858 -0.6763
  181SOPE   O1220634   5.782   1.204   6.058 -0.0968 -0.7955 -0.1367
  181SOPE   O1120635   5.873   1.001   6.185 -0.2375 -0.0984 -0.5160
  181SOPE    C120636   5.864   1.070   6.304 -0.1472  0.1411 -0.0162
  181SOPE    HA20637   5.769   1.124   6.324  0.1523  0.8598 -0.5306
  181SOPE    HB20638   5.944   1.146   6.309 -1.6223  1.6700  1.3122
  181SOPE    C220639   5.882   0.966   6.421 -0.6118  0.9654  0.6450
  181SOPE    HS20640   5.796   0.895   6.422 -1.7047  2.1661  3.3918
  181SOPE   O2120641   5.884   1.036   6.547  0.0971  0.5035  0.2479
  181SOPE   C2120642   5.840   0.976   6.652 -0.3536  0.4166 -0.6893
  181SOPE   O2220643   5.784   0.870   6.661  0.4752 -0.0029 -0.5483
  181SOPE   C2220644   5.861   1.070   6.772 -0.2072 -0.2466  0.4489
  181SOPE   H2R20645   5.933   1.141   6.727 -0.3809 -0.6422 -0.4917
  181SOPE   H2S20646   5.912   1.001   6.842 -1.4133 -1.4628  0.1839
  181SOPE    C320647   6.022   0.890   6.403 -0.0716  0.1136  0.0586
  181SOPE    HX20648   6.097   0.972   6.399 -0.3876  0.4536  0.8328
  181SOPE    HY20649   6.021   0.829   6.310  0.5246 -0.9235  0.7095
  181SOPE   O3120650   6.049   0.806   6.524  0.4783 -0.1247  0.2562
  181SOPE   C3120651   5.981   0.693   6.524  0.2689 -0.0661  0.6675
  181SOPE   O3220652   5.892   0.670   6.438  0.1608  0.5293 -0.0834
  181SOPE   C3220653   6.032   0.600   6.632  0.0009  0.9452 -0.0712
  181SOPE   H2X20654   6.053   0.669   6.717  0.1983  1.0968 -0.2427
  181SOPE   H2Y20655   6.123   0.549   6.594 -0.6815  0.0747 -0.5641
  181SOPE   C2320656   5.732   1.130   6.835 -1.1162  0.9590 -0.3910
  181SOPE   H3R20657   5.672   1.042   6.868  1.8105 -1.1025 -0.2484
  181SOPE   H3S20658   5.680   1.203   6.769  1.1299  2.9093 -0.1344
  181SOPE   C2420659   5.757   1.210   6.963  0.2545 -0.6894  0.2532
  181SOPE   H4R20660   5.786   1.136   7.041  2.1010 -2.1155 -1.6787
  181SOPE   H4S20661   5.844   1.278   6.948  1.6638 -2.7296 -1.4078
  181SOPE   C2520662   5.631   1.292   7.017 -0.1830  0.8995  0.6450
  181SOPE   H5R20663   5.625   1.388   6.961  1.4492  0.1875 -0.8424
  181SOPE   H5S20664   5.541   1.234   6.987  1.0376 -0.5207 -0.4117
  181SOPE   C2620665   5.631   1.313   7.170  0.5839 -0.0626  0.1091
  181SOPE   H6R20666   5.528   1.351   7.189  1.0337  1.3898 -0.1609
  181SOPE   H6S20667   5.639   1.222   7.233  1.4696 -0.7443 -0.9516
  181SOPE   C2720668   5.736   1.421   7.205  0.4557  0.6428  0.7701
  181SOPE   H7R20669   5.836   1.382   7.176  0.2076 -0.8872  1.8454
  181SOPE   H7S20670   5.717   1.516   7.151  0.8839  0.0719 -0.4132
  181SOPE   C2820671   5.720   1.458   7.356 -0.0805 -0.7486  0.4145
  181SOPE   H8R20672   5.772   1.554   7.377 -1.6866  0.4658 -0.9242
  181SOPE   H8S20673   5.609   1.464   7.360 -0.5630 -3.9340 -2.7973
  181SOPE   C2920674   5.771   1.355   7.452  0.6710 -0.4476 -0.1260
  181SOPE   H9120675   5.780   1.253   7.412  0.3645 -0.3136 -0.5497
  181SOPE  C21020676   5.809   1.379   7.581  0.0949 -0.3717 -0.8525
  181SOPE  H10120677   5.839   1.294   7.644  0.2165 -1.6843 -2.6198
  181SOPE  C21120678   5.805   1.513   7.652  0.4478 -0.0620  0.3481
  181SOPE  H11R20679   5.758   1.593   7.591  0.4362  0.0566  0.5119
  181SOPE  H11S20680   5.902   1.566   7.647 -0.5778  1.8220 -0.3911
  181SOPE  C21220681   5.735   1.510   7.780  0.3335 -0.1833 -0.0783
  181SOPE  H12R20682   5.631   1.472   7.770 -0.8394  2.9621 -0.6220
  181SOPE  H12S20683   5.728   1.612   7.824  0.9418 -0.5892  1.0155
  181SOPE  C21320684   5.817   1.424   7.882  0.1032 -0.0347  0.1205
  181SOPE  H13R20685   5.924   1.451   7.900  0.5259 -1.9181  0.6245
  181SOPE  H13S20686   5.810   1.321   7.841  0.9069  0.9094 -2.6864
  181SOPE  C21420687   5.760   1.425   8.020  0.3373 -0.8172  0.0754
  181SOPE  H14R20688   5.650   1.415   8.014  0.0617  2.0688 -1.3042
  181SOPE  H14S20689   5.758   1.526   8.067 -1.1942 -1.0112  0.4875
  181SOPE  C21520690   5.804   1.317   8.120 -0.1756  0.4111  0.0903
  181SOPE  H15R20691   5.898   1.352   8.167  0.3840  0.3076 -0.9195
  181SOPE  H15S20692   5.804   1.211   8.087  0.7112 -0.5575  2.8928
  181SOPE  C21620693   5.712   1.291   8.243  0.3359 -0.4677  0.6272
  181SOPE  H16R20694   5.615   1.261   8.198 -0.2031  0.4350  1.1629
  181SOPE  H16S20695   5.691   1.394   8.279 -2.1769 -0.3264 -0.9702
  181SOPE  C21720696   5.772   1.197   8.348 -0.5638 -0.0055 -0.3366
  181SOPE  H17R20697   5.854   1.256   8.393 -1.8659  1.0803  0.6796
  181SOPE  H17S20698   5.822   1.116   8.289 -1.0417 -0.6206  0.0892
  181SOPE  C21820699   5.666   1.157   8.444  0.0848  0.2692  0.6234
  181SOPE  H18R20700   5.586   1.102   8.389 -1.2207  1.1262  1.6033
  181SOPE  H18S20701   5.630   1.248   8.496 -0.2150 -0.3837  1.6031
  181SOPE  H18T20702   5.700   1.087   8.523  0.8665  0.6466  0.6224
  181SOPE   C3320703   5.932   0.484   6.669 -1.1898 -0.2019 -0.3017
  181SOPE   H3X20704   5.905   0.423   6.580  1.2836 -1.8956 -0.0085
  181SOPE   H3Y20705   5.845   0.532   6.719 -0.5221  1.1384 -0.3870
  181SOPE   C3420706   5.996   0.376   6.760 -0.6834  0.6467 -0.3307
  181SOPE   H4X20707   6.102   0.369   6.728 -0.5316 -0.4702  0.3462
  181SOPE   H4Y20708   5.937   0.282   6.755  0.8546 -0.4532  1.0743
  181SOPE   C3520709   6.012   0.408   6.909 -0.0799  0.2217 -0.0993
  181SOPE   H5X20710   6.069   0.503   6.919  0.6537 -0.2081 -0.0805
  181SOPE   H5Y20711   6.076   0.333   6.960  0.6063  0.2276 -0.9301
  181SOPE   C3620712   5.876   0.416   6.979 -0.1348  0.6397  0.4030
  181SOPE   H6X20713   5.809   0.346   6.925 -0.1271  0.5138  0.5590
  181SOPE   H6Y20714   5.837   0.516   6.952 -1.3532  0.8592  2.7756
  181SOPE   C3720715   5.878   0.407   7.132  0.0922  0.8019  0.3363
  181SOPE   H7X20716   5.906   0.301   7.150 -0.2701  0.2807 -1.9225
  181SOPE   H7Y20717   5.779   0.433   7.176 -0.1774 -1.0392  0.8850
  181SOPE   C3820718   5.991   0.485   7.196 -0.0414 -0.1623 -0.6132
  181SOPE   H8X20719   5.972   0.592   7.172  1.5263 -0.0370 -1.4858
  181SOPE   H8Y20720   6.089   0.461   7.148  0.7265 -2.5702  1.9223
  181SOPE   C3920721   6.024   0.462   7.344  0.9395  0.5038  0.8111
  181SOPE   H9X20722   6.109   0.530   7.369  0.8447  1.0741 -0.3917
  181SOPE   H9Y20723   6.051   0.354   7.349 -2.7906 -0.6205 -0.5880
  181SOPE  C31020724   5.906   0.502   7.436 -0.2324  0.1095  0.1284
  181SOPE  H10X20725   5.824   0.429   7.418 -0.7412  0.9379 -0.9873
  181SOPE  H10Y20726   5.861   0.601   7.413  0.2310  0.8128  2.0138
  181SOPE  C31120727   5.951   0.502   7.585  0.1921  0.6123 -0.1785
  181SOPE  H11X20728   6.046   0.559   7.588 -0.5269  1.8136  1.9224
  181SOPE  H11Y20729   5.972   0.403   7.632  0.9275  0.7533 -0.1976
  181SOPE  C31220730   5.846   0.569   7.676 -0.3319  1.0762 -0.3936
  181SOPE  H12X20731   5.756   0.504   7.681  0.4832 -0.0430  3.2181
  181SOPE  H12Y20732   5.825   0.674   7.646  0.0696  1.1141 -0.5479
  181SOPE  C31320733   5.899   0.584   7.824  0.0044  0.6598  1.3381
  181SOPE  H13X20734   5.956   0.679   7.824  3.0129 -1.0130  0.9966
  181SOPE  H13Y20735   5.981   0.509   7.833  0.1238  0.5045 -0.7326
  181SOPE  C31420736   5.798   0.561   7.940  0.4492  1.0709 -0.1099
  181SOPE  H14X20737   5.731   0.472   7.932  0.2904  1.0650  1.1361
  181SOPE  H14Y20738   5.729   0.647   7.947 -0.6237  0.4128 -1.9381
  181SOPE  C31520739   5.875   0.559   8.074 -0.2061  0.0285 -0.5062
  181SOPE  H15X20740   5.935   0.653   8.080  0.6201 -0.5389  0.3329
  181SOPE  H15Y20741   5.940   0.469   8.075 -0.9379 -0.5038  0.4931
  181SOPE  C31620742   5.789   0.540   8.197 -0.1063 -0.0407 -0.4968
  181SOPE  H16X20743   5.722   0.459   8.162 -0.9346  0.2165  0.4583
  181SOPE  H16Y20744   5.723   0.629   8.210  1.7269  1.3214 -0.0518
  181SOPE  C31720745   5.865   0.496   8.330  0.5261  0.5065  0.8069
  181SOPE  H17X20746   5.936   0.578   8.357 -1.1950  1.9888  1.0309
  181SOPE  H17Y20747   5.935   0.413   8.305 -1.2395  0.0556 -3.5058
  181SOPE  C31820748   5.760   0.472   8.431  0.3348 -0.6140 -0.2731
  181SOPE  H18X20749   5.800   0.436   8.529  1.9140 -0.5467 -0.8646
  181SOPE  H18Y20750   5.673   0.413   8.393 -0.0946  0.5954 -1.2181
  181SOPE  H18Z20751   5.720   0.572   8.455  0.8155 -0.6464  0.7466
  182SOPE     N20752   1.177   3.033   6.414  0.4615 -0.0528  0.1552
  182SOPE   HN120753   1.168   3.130   6.450  0.6450  0.0677 -0.1239
  182SOPE   HN220754   1.085   2.985   6.427  0.1188  0.5002 -0.2039
  182SOPE   HN320755   1.247   2.979   6.470  0.7669  0.7360  0.5458
  182SOPE   C1220756   1.190   3.054   6.263 -0.2252  0.6642 -0.0947
  182SOPE  H12A20757   1.168   2.955   6.217  0.5531  0.2156  0.4645
  182SOPE  H12B20758   1.297   3.074   6.242  0.3563 -3.1855 -1.8457
  182SOPE   C1120759   1.093   3.159   6.220  0.5867  0.1487 -0.1807
  182SOPE  H11A20760   1.003   3.099   6.193  1.8452 -0.6395 -3.0448
  182SOPE  H11B20761   1.149   3.203   6.136 -0.5405  0.7717 -0.6300
  182SOPE     P20762   0.941   3.351   6.318 -0.3842 -0.5275 -0.0561
  182SOPE   O1320763   0.914   3.385   6.172  0.2816  0.3651 -0.3546
  182SOPE   O1420764   0.954   3.467   6.414 -0.3941  0.1598  0.2397
  182SOPE   O1220765   1.074   3.262   6.324  0.1295  0.3223 -0.2642
  182SOPE   O1120766   0.845   3.241   6.371 -0.2855 -0.9178 -0.4738
  182SOPE    C120767   0.838   3.192   6.506 -0.1444  0.3894  0.3149
  182SOPE    HA20768   0.932   3.207   6.565 -2.2806  0.3018  4.0295
  182SOPE    HB20769   0.830   3.082   6.499  0.7368  0.3821 -0.9395
  182SOPE    C220770   0.707   3.231   6.571  0.1159 -0.4331  0.5268
  182SOPE    HS20771   0.711   3.342   6.584  0.7176 -0.2827 -0.7525
  182SOPE   O2120772   0.703   3.154   6.687  0.7272  0.3081  0.1887
  182SOPE   C2120773   0.764   3.220   6.793 -0.1516  0.3713  0.1858
  182SOPE   O2220774   0.830   3.320   6.782  0.4710 -0.0173 -0.0235
  182SOPE   C2220775   0.726   3.157   6.925  0.8126 -0.1767 -0.3791
  182SOPE   H2R20776   0.701   3.240   6.995 -0.3788  2.5879 -3.8057
  182SOPE   H2S20777   0.812   3.098   6.963  2.1166 -0.0488 -2.8998
  182SOPE    C320778   0.582   3.203   6.489  0.1332  0.3341  0.9389
  182SOPE    HX20779   0.579   3.093   6.479  0.3412  0.4852 -1.1213
  182SOPE    HY20780   0.582   3.237   6.383 -1.0482 -0.0746  0.7899
  182SOPE   O3120781   0.458   3.249   6.553 -0.5327  0.3807  0.0858
  182SOPE   C3120782   0.376   3.331   6.477  0.2309  0.3397 -0.5660
  182SOPE   O3220783   0.409   3.382   6.374  0.1736 -0.1687  0.1945
  182SOPE   C3220784   0.251   3.357   6.559  0.0691 -0.0482 -0.5923
  182SOPE   H2X20785   0.179   3.285   6.514  1.7613 -1.8637 -0.5630
  182SOPE   H2Y20786   0.227   3.465   6.552 -1.9367 -0.5003 -1.4310
  182SOPE   C2320787   0.592   3.075   6.925  0.3508 -0.0330  0.5996
  182SOPE   H3R20788   0.609   2.985   6.862  0.4632 -0.3524  1.0857
  182SOPE   H3S20789   0.512   3.135   6.875  0.1312 -0.6328  0.2277
  182SOPE   C2420790   0.542   3.028   7.060  1.5275  0.4397  0.5803
  182SOPE   H4R20791   0.500   3.114   7.118 -1.2658 -0.2953 -0.2277
  182SOPE   H4S20792   0.454   2.961   7.050  0.7058  1.5597  0.0243
  182SOPE   C2520793   0.648   2.953   7.138 -0.0514  1.5359 -0.0113
  182SOPE   H5R20794   0.694   2.888   7.061  0.1020  0.8169  0.6718
  182SOPE   H5S20795   0.736   3.005   7.182  0.3395  0.1517  0.9301
  182SOPE   C2620796   0.600   2.850   7.241  0.3730  0.6046  0.0628
  182SOPE   H6R20797   0.540   2.778   7.183  0.1524  0.0986  0.9025
  182SOPE   H6S20798   0.674   2.786   7.294 -2.2287 -2.6122  0.0960
  182SOPE   C2720799   0.516   2.928   7.350 -0.5512  0.2657  0.7693
  182SOPE   H7R20800   0.565   3.024   7.375 -0.8214  1.2990 -2.2516
  182SOPE   H7S20801   0.419   2.965   7.310 -0.3222  0.3944  0.3215
  182SOPE   C2820802   0.493   2.837   7.472  0.6937 -0.1064 -1.2081
  182SOPE   H8R20803   0.448   2.744   7.433 -2.7536 -0.0519  2.0916
  182SOPE   H8S20804   0.591   2.811   7.517  0.4625  1.0467  0.0282
  182SOPE   C2920805   0.398   2.894   7.574  1.3977 -0.0025 -0.7787
  182SOPE   H9120806   0.308   2.932   7.525  1.0322  0.7524  0.4339
  182SOPE  C21020807   0.410   2.894   7.709 -0.2667  0.2864 -0.2339
  182SOPE  H10120808   0.325   2.934   7.768  1.4055  1.5489  1.4324
  182SOPE  C21120809   0.522   2.836   7.787 -0.0648  0.0030 -0.1550
  182SOPE  H11R20810   0.595   2.912   7.825 -1.1828  0.8515  0.3419
  182SOPE  H11S20811   0.587   2.770   7.726  0.5822 -2.4700  2.9647
  182SOPE  C21220812   0.475   2.760   7.915 -0.2863 -0.0702  0.1399
  182SOPE  H12R20813   0.421   2.835   7.976 -0.0623  0.8676 -0.7784
  182SOPE  H12S20814   0.563   2.729   7.976 -1.5199 -2.8404  0.6828
  182SOPE  C21320815   0.387   2.641   7.892 -0.2673  0.3245  0.2417
  182SOPE  H13R20816   0.426   2.571   7.816 -0.0092 -0.6675  1.2604
  182SOPE  H13S20817   0.287   2.682   7.863 -0.7140 -0.6470  0.3723
  182SOPE  C21420818   0.360   2.558   8.021 -0.2184  0.3814  0.7990
  182SOPE  H14R20819   0.353   2.631   8.104  1.6328 -0.0288  1.3451
  182SOPE  H14S20820   0.430   2.477   8.051 -2.1548 -0.7544  2.5550
  182SOPE  C21520821   0.224   2.475   8.017 -0.1117 -0.0687 -0.4661
  182SOPE  H15R20822   0.214   2.402   7.934  0.4101 -0.4337 -0.2208
  182SOPE  H15S20823   0.146   2.554   8.027  1.4002  1.2914  1.7033
  182SOPE  C21620824   0.205   2.401   8.150  0.3114 -0.7583 -0.8044
  182SOPE  H16R20825   0.215   2.474   8.233 -0.3900 -0.6255 -0.8248
  182SOPE  H16S20826   0.288   2.331   8.171  3.6692  2.9828 -0.5015
  182SOPE  C21720827   0.067   2.331   8.165 -0.0422 -0.7921  0.9805
  182SOPE  H17R20828   0.044   2.263   8.081 -0.6326  1.5689 -0.9006
  182SOPE  H17S20829  -0.008   2.413   8.155 -0.4231 -0.9946  2.1193
  182SOPE  C21820830   0.043   2.273   8.304  0.1415  0.4518  0.5685
  182SOPE  H18R20831   0.050   2.355   8.380  0.7338  0.4498  0.5228
  182SOPE  H18S20832   0.126   2.200   8.316  0.8051  1.1845  0.4901
  182SOPE  H18T20833  -0.055   2.223   8.297  1.2206 -1.5194 -4.0496
  182SOPE   C3320834   0.263   3.328   6.708 -0.5708 -0.1177 -0.7666
  182SOPE   H3X20835   0.333   3.408   6.741  0.7822 -0.9403 -1.5628
  182SOPE   H3Y20836   0.313   3.231   6.725 -1.7234 -0.6007  0.0299
  182SOPE   C3420837   0.124   3.326   6.773 -0.0131  0.1300  0.1487
  182SOPE   H4X20838   0.078   3.225   6.766 -0.1439  0.2934 -2.3031
  182SOPE   H4Y20839   0.051   3.397   6.728  0.1482  0.1614 -0.0651
  182SOPE   C3520840   0.138   3.361   6.920  0.1220 -0.4601 -0.3430
  182SOPE   H5X20841   0.034   3.388   6.947 -0.0963  2.0513 -3.2041
  182SOPE   H5Y20842   0.203   3.452   6.922  0.5893 -0.7607 -1.2951
  182SOPE   C3620843   0.187   3.242   7.005  0.1843 -0.8900  0.3934
  182SOPE   H6X20844   0.297   3.244   6.994  0.0576  1.2640 -1.1879
  182SOPE   H6Y20845   0.142   3.152   6.958 -0.7038  0.0022 -0.5170
  182SOPE   C3720846   0.161   3.252   7.161 -0.0719  0.3786 -0.2066
  182SOPE   H7X20847   0.222   3.334   7.203 -1.4675  1.3423  0.0379
  182SOPE   H7Y20848   0.187   3.151   7.198 -0.6371  0.7824  1.3426
  182SOPE   C3820849   0.009   3.282   7.196  0.3929  0.2055 -0.7882
  182SOPE   H8X20850  -0.055   3.218   7.132  0.2478 -0.4031 -0.0436
  182SOPE   H8Y20851  -0.016   3.389   7.180  0.7159 -0.1576 -4.9240
  182SOPE   C3920852  -0.013   3.235   7.340  0.7916 -0.3978 -0.1720
  182SOPE   H9X20853   0.026   3.132   7.356 -0.2814 -0.4948  2.3113
  182SOPE   H9Y20854  -0.122   3.239   7.362  0.2342  1.6978 -2.7614
  182SOPE  C31020855   0.057   3.317   7.447 -0.0419  0.4987 -0.1354
  182SOPE  H10X20856   0.010   3.418   7.448 -1.7605 -0.2560 -0.7272
  182SOPE  H10Y20857   0.160   3.344   7.415 -0.5762  0.2841 -2.2268
  182SOPE  C31120858   0.049   3.271   7.587  0.1858 -0.7070 -1.1753
  182SOPE  H11X20859   0.117   3.323   7.658 -0.4971 -0.5593 -0.6062
  182SOPE  H11Y20860   0.064   3.161   7.592  0.5147 -0.6700 -1.3622
  182SOPE  C31220861  -0.089   3.302   7.660 -1.0474  0.6038  0.1928
  182SOPE  H12X20862  -0.174   3.272   7.596  0.4701 -2.4421 -0.6013
  182SOPE  H12Y20863  -0.083   3.409   7.690  1.3002  0.3389  0.9290
  182SOPE  C31320864  -0.083   3.227   7.797 -0.4808  0.1835 -0.2784
  182SOPE  H13X20865   0.015   3.246   7.845  1.0736  0.2700 -3.2122
  182SOPE  H13Y20866  -0.093   3.118   7.779  0.0470  0.0909 -0.0241
  182SOPE  C31420867  -0.207   3.269   7.880 -0.5379  0.5983  0.0974
  182SOPE  H14X20868  -0.289   3.244   7.810  0.2824  0.2205 -0.7406
  182SOPE  H14Y20869  -0.207   3.380   7.871 -0.2951  0.4849 -1.5596
  182SOPE  C31520870  -0.233   3.210   8.017  0.1912 -0.2228  0.6006
  182SOPE  H15X20871  -0.241   3.099   8.009  2.1093 -0.3120 -0.7444
  182SOPE  H15Y20872  -0.330   3.245   8.058 -0.1375 -1.6037  1.0422
  182SOPE  C31620873  -0.133   3.232   8.130 -0.2398 -0.3028 -0.4393
  182SOPE  H16X20874  -0.108   3.341   8.127 -0.2138 -0.3198 -0.8796
  182SOPE  H16Y20875  -0.038   3.180   8.106  0.5574  1.9955 -2.7107
  182SOPE  C31720876  -0.174   3.168   8.263 -0.0254 -0.4258  0.2614
  182SOPE  H17X20877  -0.182   3.058   8.256  1.5272 -0.5791  0.4184
  182SOPE  H17Y20878  -0.278   3.199   8.288  0.5196  0.0633  2.1056
  182SOPE  C31820879  -0.104   3.206   8.394 -0.2618 -0.3961  0.7608
  182SOPE  H18X20880  -0.100   3.315   8.413 -0.7767 -0.2004 -0.1839
  182SOPE  H18Y20881  -0.004   3.159   8.398 -0.4889 -0.8605  1.2132
  182SOPE  H18Z20882  -0.158   3.157   8.479  1.7329 -2.3742  0.9737
  183SOPE     N20883   2.190   1.214   6.435  0.3673 -0.5735  0.4426
  183SOPE   HN120884   2.090   1.183   6.431 -0.0440  0.7855 -1.2135
  183SOPE   HN220885   2.203   1.271   6.521 -1.4261 -0.1923  0.4972
  183SOPE   HN320886   2.210   1.283   6.360  0.5782  0.7670  1.7042
  183SOPE   C1220887   2.282   1.092   6.445  0.1440  0.4544 -0.3659
  183SOPE  H12A20888   2.240   1.019   6.517  0.3251  1.3946  0.7112
  183SOPE  H12B20889   2.383   1.119   6.481  0.7429 -1.1884 -0.7530
  183SOPE   C1120890   2.285   1.011   6.312 -0.6264 -0.2223  0.3363
  183SOPE  H11A20891   2.270   1.081   6.227 -0.9055 -1.2667 -0.4915
  183SOPE  H11B20892   2.199   0.940   6.306 -1.7648  1.2204 -2.1473
  183SOPE     P20893   2.541   1.005   6.257  0.2933 -0.3771  0.3505
  183SOPE   O1320894   2.515   1.152   6.240 -0.1103  0.6101 -0.2186
  183SOPE   O1420895   2.594   0.938   6.132 -0.3579 -0.3534 -0.6676
  183SOPE   O1220896   2.403   0.939   6.298 -0.2220  0.3936 -0.2656
  183SOPE   O1120897   2.648   0.970   6.366 -0.0302  0.5016 -0.2968
  183SOPE    C120898   2.657   0.846   6.441 -0.0610 -0.4136  0.0504
  183SOPE    HA20899   2.732   0.785   6.386  1.9027  2.0476 -0.1832
  183SOPE    HB20900   2.561   0.791   6.445  0.3754 -1.0837  3.0463
  183SOPE    C220901   2.722   0.861   6.577 -0.7379 -0.5189  0.1377
  183SOPE    HS20902   2.660   0.939   6.625  0.4509 -1.2374  3.0076
  183SOPE   O2120903   2.858   0.908   6.549 -0.1834  0.0480 -0.2688
  183SOPE   C2120904   2.900   0.994   6.654  0.7366  1.1468  1.0795
  183SOPE   O2220905   2.834   1.033   6.748  0.0050 -0.6001  0.3290
  183SOPE   C2220906   3.051   1.014   6.641 -0.1811 -1.0640  1.3840
  183SOPE   H2R20907   3.081   1.077   6.555 -0.3807 -1.5013  0.9851
  183SOPE   H2S20908   3.092   0.913   6.621 -1.4744 -1.7015  1.8105
  183SOPE    C320909   2.724   0.732   6.660 -0.2742 -0.7355 -0.5846
  183SOPE    HX20910   2.812   0.670   6.634  2.9872  2.5686  1.5404
  183SOPE    HY20911   2.632   0.672   6.643 -2.5073  2.2799 -0.0600
  183SOPE   O3120912   2.748   0.765   6.796 -0.4159 -0.2790  0.2510
  183SOPE   C3120913   2.656   0.810   6.873  0.0314 -0.1679 -0.5288
  183SOPE   O3220914   2.545   0.852   6.836 -0.4948 -0.1591  0.5248
  183SOPE   C3220915   2.709   0.821   7.015 -0.1883  0.0332 -0.1615
  183SOPE   H2X20916   2.815   0.846   7.033 -0.4454  0.9239  0.1511
  183SOPE   H2Y20917   2.697   0.717   7.053 -2.5821  0.2536 -0.1157
  183SOPE   C2320918   3.124   1.075   6.766 -0.0614  0.2686  0.1570
  183SOPE   H3R20919   3.085   1.179   6.777  2.8705  1.4975 -0.2261
  183SOPE   H3S20920   3.233   1.070   6.746 -0.1697 -2.1154 -0.1641
  183SOPE   C2420921   3.109   0.995   6.894 -0.0274 -0.4306 -0.9244
  183SOPE   H4R20922   3.003   0.976   6.922 -0.4367  2.0830 -0.5610
  183SOPE   H4S20923   3.148   0.892   6.881  0.1945  0.0494 -5.5090
  183SOPE   C2520924   3.160   1.065   7.025 -0.1457  0.3959  0.0396
  183SOPE   H5R20925   3.268   1.081   7.005 -0.4272  1.0117 -1.0522
  183SOPE   H5S20926   3.101   1.158   7.035 -2.2673 -0.8208 -0.5755
  183SOPE   C2620927   3.154   0.965   7.145  0.3577 -1.0760  0.1041
  183SOPE   H6R20928   3.052   0.924   7.131 -0.9385  1.2889  1.8981
  183SOPE   H6S20929   3.235   0.889   7.140  1.3337 -0.2611  2.2284
  183SOPE   C2720930   3.159   1.044   7.273  0.2279 -0.1386  0.3062
  183SOPE   H7R20931   3.257   1.095   7.289  0.7827 -1.1840  0.2897
  183SOPE   H7S20932   3.089   1.129   7.252  1.4477  0.3986 -1.9996
  183SOPE   C2820933   3.109   0.974   7.397  0.4235 -1.0233 -0.1111
  183SOPE   H8R20934   3.016   0.922   7.365 -0.6898  0.5361  0.4692
  183SOPE   H8S20935   3.187   0.903   7.434  0.3872 -1.1578 -0.2901
  183SOPE   C2920936   3.081   1.059   7.517  0.4028 -0.5021 -0.8853
  183SOPE   H9120937   3.165   1.125   7.543 -1.1099  0.0310  3.3774
  183SOPE  C21020938   2.973   1.077   7.589  0.7290  1.1192 -0.3408
  183SOPE  H10120939   2.981   1.151   7.670  3.0070 -0.6998  1.2416
  183SOPE  C21120940   2.832   1.028   7.579  0.1476 -0.1328  0.3304
  183SOPE  H11R20941   2.835   0.948   7.502  0.4936  1.2114 -1.1080
  183SOPE  H11S20942   2.771   1.110   7.536  1.8086  0.1832 -1.5884
  183SOPE  C21220943   2.752   0.989   7.705 -0.1298 -0.5613 -0.3847
  183SOPE  H12R20944   2.829   0.932   7.762  0.7144 -0.3469 -1.2771
  183SOPE  H12S20945   2.664   0.925   7.683 -0.5191 -0.0955 -0.1738
  183SOPE  C21320946   2.706   1.111   7.787 -0.3989 -0.0550 -0.0891
  183SOPE  H13R20947   2.632   1.163   7.723 -0.4591  0.7161  0.5959
  183SOPE  H13S20948   2.794   1.175   7.808  0.5716 -2.0860  2.6786
  183SOPE  C21420949   2.635   1.090   7.917  0.3202  0.5221 -0.4790
  183SOPE  H14R20950   2.620   0.984   7.945  1.1377  0.9285  1.6677
  183SOPE  H14S20951   2.543   1.150   7.903 -0.4293 -0.5793 -0.3923
  183SOPE  C21520952   2.699   1.148   8.045 -0.2273 -0.2397  0.1962
  183SOPE  H15R20953   2.798   1.098   8.043  0.7333  1.5249  1.2660
  183SOPE  H15S20954   2.650   1.107   8.136  0.1128 -0.5169  0.2590
  183SOPE  C21620955   2.710   1.299   8.048  0.2319  0.5137 -0.0946
  183SOPE  H16R20956   2.722   1.338   7.945 -0.9399  0.0327 -0.4219
  183SOPE  H16S20957   2.788   1.351   8.109  0.7372  0.1824 -0.4563
  183SOPE  C21720958   2.578   1.368   8.093 -0.0621 -0.6180  0.3263
  183SOPE  H17R20959   2.544   1.341   8.196 -1.6243  1.0074  0.2910
  183SOPE  H17S20960   2.498   1.337   8.022  1.3157 -1.6694 -0.8186
  183SOPE  C21820961   2.583   1.521   8.098  0.1396 -0.0112  0.9810
  183SOPE  H18R20962   2.654   1.553   8.177 -0.1453  1.4551  0.6696
  183SOPE  H18S20963   2.482   1.562   8.121  0.1018 -0.1386  1.0440
  183SOPE  H18T20964   2.613   1.570   8.003 -0.0552 -1.5975  0.0744
  183SOPE   C3320965   2.626   0.927   7.094 -0.5868 -0.5049 -0.0420
  183SOPE   H3X20966   2.523   0.910   7.056 -0.6839 -1.3330  0.5700
  183SOPE   H3Y20967   2.657   1.033   7.075 -0.8982 -0.0666  1.7333
  183SOPE   C3420968   2.632   0.906   7.245  0.1755  0.9139 -0.4241
  183SOPE   H4X20969   2.603   1.002   7.293 -0.7668  0.5254 -0.1978
  183SOPE   H4Y20970   2.735   0.873   7.270 -0.0044 -1.1830 -2.1678
  183SOPE   C3520971   2.541   0.790   7.297  0.1286 -0.3161 -0.3563
  183SOPE   H5X20972   2.575   0.695   7.250  2.2660 -0.5878  1.5809
  183SOPE   H5Y20973   2.434   0.817   7.282  0.4681  1.2733 -0.1401
  183SOPE   C3620974   2.549   0.775   7.454  0.0528  0.4666  0.1266
  183SOPE   H6X20975   2.534   0.873   7.503  1.7539  0.9610 -0.2731
  183SOPE   H6Y20976   2.654   0.746   7.480 -0.0349  0.2408  0.2391
  183SOPE   C3720977   2.458   0.661   7.493  0.4086 -0.0690 -0.3883
  183SOPE   H7X20978   2.502   0.574   7.440 -2.7926 -0.8802 -1.9691
  183SOPE   H7Y20979   2.355   0.682   7.458  0.8414  2.8021 -0.1760
  183SOPE   C3820980   2.453   0.624   7.642 -0.0504 -0.5292 -0.1896
  183SOPE   H8X20981   2.549   0.583   7.680 -0.3355  0.2727  1.4909
  183SOPE   H8Y20982   2.374   0.547   7.652 -1.9059  1.2042 -0.7647
  183SOPE   C3920983   2.400   0.739   7.736  0.4806  0.3035  0.2606
  183SOPE   H9X20984   2.293   0.752   7.713 -0.1971 -1.2334  2.2335
  183SOPE   H9Y20985   2.454   0.835   7.723  0.6634  0.5542  2.5999
  183SOPE  C31020986   2.392   0.698   7.880 -0.1890 -0.6546 -0.0740
  183SOPE  H10X20987   2.495   0.673   7.912  1.3092  3.5623 -0.9573
  183SOPE  H10Y20988   2.334   0.603   7.884  0.7505 -1.2306  0.0822
  183SOPE  C31120989   2.313   0.806   7.964  0.8041  0.2811  0.8837
  183SOPE  H11X20990   2.217   0.827   7.912  0.7688  4.0414  2.2098
  183SOPE  H11Y20991   2.377   0.896   7.967 -1.2390  1.9283 -1.1784
  183SOPE  C31220992   2.283   0.760   8.108 -0.6300 -0.4733  0.0765
  183SOPE  H12X20993   2.383   0.736   8.152 -0.8899  1.2105  1.7180
  183SOPE  H12Y20994   2.221   0.669   8.113 -1.1596 -0.2092 -1.2669
  183SOPE  C31320995   2.214   0.872   8.190 -0.1687 -0.4420 -0.2883
  183SOPE  H13X20996   2.150   0.929   8.119  0.7422  1.6642  0.4725
  183SOPE  H13Y20997   2.285   0.950   8.226 -0.0494 -0.3415 -0.7333
  183SOPE  C31420998   2.130   0.826   8.316  0.2467 -1.0850 -0.4112
  183SOPE  H14X20999   2.204   0.791   8.392  0.1410  0.5722  0.5218
  183SOPE  H14Y21000   2.077   0.738   8.276  2.5885 -2.9694  0.3974
  183SOPE  C31521001   2.043   0.940   8.364  0.2092 -0.6247 -0.2407
  183SOPE  H15X21002   1.987   0.990   8.282  1.6549 -0.0775 -0.9241
  183SOPE  H15Y21003   2.104   1.030   8.384 -2.2619  1.0924 -0.0161
  183SOPE  C31621004   1.944   0.920   8.482  1.0186 -0.5617  0.0194
  183SOPE  H16X21005   1.869   1.003   8.484  0.6253 -0.9200  0.2573
  183SOPE  H16Y21006   2.004   0.923   8.575  0.0038  1.6364  0.6930
  183SOPE  C31721007   1.875   0.779   8.484  0.0926 -0.2721 -0.5679
  183SOPE  H17X21008   1.826   0.769   8.583 -1.4159  0.2479 -1.2352
  183SOPE  H17Y21009   1.968   0.718   8.488  0.3016  0.0598  3.5180
  183SOPE  C31821010   1.789   0.753   8.364  0.0126 -0.3025  0.0762
  183SOPE  H18X21011   1.739   0.654   8.354 -2.6365  0.9779 -0.2260
  183SOPE  H18Y21012   1.845   0.761   8.268 -0.3931  0.6464 -0.0890
  183SOPE  H18Z21013   1.718   0.839   8.358  0.2394  0.0847  2.0961
  184SOPE     N21014   2.952   1.316   6.083  0.0610 -0.4784  0.2035
  184SOPE   HN121015   2.994   1.345   5.992  0.4612 -0.5754  0.3563
  184SOPE   HN221016   2.996   1.230   6.121 -0.3732  0.6760  3.6265
  184SOPE   HN321017   2.848   1.306   6.079  0.0428 -0.5592  0.8370
  184SOPE   C1221018   2.962   1.434   6.176 -0.2210 -0.3355  0.3542
  184SOPE  H12A21019   3.056   1.491   6.157 -0.8746  0.8891  0.6374
  184SOPE  H12B21020   2.956   1.400   6.282 -2.7989 -1.7684 -0.1643
  184SOPE   C1121021   2.844   1.531   6.157  0.6170  0.1663  0.2580
  184SOPE  H11A21022   2.854   1.575   6.055  1.2162 -2.4210 -0.8827
  184SOPE  H11B21023   2.863   1.621   6.219 -1.9200  0.6663  0.4121
  184SOPE     P21024   2.603   1.583   6.205  0.3984 -0.3249 -0.4526
  184SOPE   O1321025   2.471   1.516   6.183  0.1949 -0.5618 -0.1314
  184SOPE   O1421026   2.618   1.715   6.142  0.3870  0.1071 -0.3521
  184SOPE   O1221027   2.713   1.480   6.161  0.1767 -0.1424 -0.3852
  184SOPE   O1121028   2.613   1.604   6.367 -0.9371 -0.5275  0.4941
  184SOPE    C121029   2.672   1.493   6.443 -0.7236  0.1118 -0.4509
  184SOPE    HA21030   2.739   1.536   6.520 -0.4369  0.9652 -1.1671
  184SOPE    HB21031   2.738   1.421   6.390  0.6283 -0.9517  2.4578
  184SOPE    C221032   2.562   1.412   6.512 -0.3201  0.1881  0.1449
  184SOPE    HS21033   2.484   1.396   6.435 -0.1566 -2.4431  0.4398
  184SOPE   O2121034   2.514   1.497   6.622  0.1830 -0.3536 -0.3906
  184SOPE   C2121035   2.382   1.475   6.663  0.3866  0.6763  0.0935
  184SOPE   O2221036   2.315   1.387   6.611 -0.5937  0.3404 -0.1153
  184SOPE   C2221037   2.331   1.577   6.770 -0.5256 -0.2152  0.3524
  184SOPE   H2R21038   2.221   1.565   6.761 -0.3659 -0.0807 -3.3712
  184SOPE   H2S21039   2.361   1.674   6.724 -1.1432 -0.3392 -0.3358
  184SOPE    C321040   2.618   1.277   6.564  0.6231 -0.6157 -0.2142
  184SOPE    HX21041   2.687   1.227   6.494  0.6054  0.0163 -0.6866
  184SOPE    HY21042   2.540   1.200   6.581  0.6796 -0.2311  2.1042
  184SOPE   O3121043   2.697   1.293   6.681  0.1106 -0.2230 -0.5466
  184SOPE   C3121044   2.641   1.279   6.804 -0.1257 -0.6903  0.2927
  184SOPE   O3221045   2.523   1.247   6.823  0.7139 -0.6648  0.5426
  184SOPE   C3221046   2.741   1.301   6.914 -0.3726  0.2685  0.0409
  184SOPE   H2X21047   2.839   1.319   6.864 -0.2254  0.0774  0.2598
  184SOPE   H2Y21048   2.761   1.204   6.964 -0.8538 -0.1907 -0.6333
  184SOPE   C2321049   2.385   1.552   6.917 -0.1209 -0.2447 -0.6863
  184SOPE   H3R21050   2.493   1.564   6.893 -0.4114  3.9437 -0.6191
  184SOPE   H3S21051   2.367   1.453   6.964  1.2444  0.2197  0.8908
  184SOPE   C2421052   2.342   1.666   7.011  0.1001 -0.2793 -0.1784
  184SOPE   H4R21053   2.369   1.762   6.963 -1.8445 -0.5430 -1.9384
  184SOPE   H4S21054   2.232   1.657   7.025  0.2230 -1.0291  0.3814
  184SOPE   C2521055   2.392   1.655   7.163  0.8923 -0.1249  0.7911
  184SOPE   H5R21056   2.348   1.564   7.208 -2.3894  0.5913 -0.7159
  184SOPE   H5S21057   2.501   1.634   7.151  0.8783  0.4707 -0.6662
  184SOPE   C2621058   2.351   1.769   7.256  0.1865 -0.3277 -0.5901
  184SOPE   H6R21059   2.242   1.755   7.276  0.7779 -0.3844  3.2970
  184SOPE   H6S21060   2.407   1.761   7.352 -0.2428  1.1762 -0.1793
  184SOPE   C2721061   2.377   1.906   7.206 -0.7943  0.3589 -0.6740
  184SOPE   H7R21062   2.481   1.905   7.166 -0.6949  1.3693 -0.4622
  184SOPE   H7S21063   2.306   1.920   7.121 -2.2183 -1.0185  0.2187
  184SOPE   C2821064   2.375   2.012   7.316 -0.1311  0.3031 -0.9461
  184SOPE   H8R21065   2.468   2.010   7.376  0.6845  2.9991 -1.9558
  184SOPE   H8S21066   2.404   2.107   7.267  1.6790  0.7367  0.8394
  184SOPE   C2921067   2.254   2.030   7.400 -0.1525 -0.3540 -0.4249
  184SOPE   H9121068   2.204   1.935   7.425  2.1500 -1.2327  1.1485
  184SOPE  C21021069   2.201   2.142   7.447  0.4301 -0.6243 -0.7507
  184SOPE  H10121070   2.113   2.122   7.510 -0.3863 -1.5134 -2.1359
  184SOPE  C21121071   2.245   2.286   7.438  0.2616 -0.0001  0.4410
  184SOPE  H11R21072   2.162   2.348   7.399  0.1710 -0.4815 -0.1486
  184SOPE  H11S21073   2.329   2.300   7.366 -1.5477  0.4264 -1.6934
  184SOPE  C21221074   2.295   2.350   7.570  0.0539  0.0382  0.9073
  184SOPE  H12R21075   2.336   2.452   7.558 -0.3315  0.0656 -0.3692
  184SOPE  H12S21076   2.386   2.294   7.601  0.4196  0.2438  0.2322
  184SOPE  C21321077   2.190   2.357   7.684  0.1464  0.5715  0.3247
  184SOPE  H13R21078   2.129   2.263   7.684  0.7101  0.2010 -0.0224
  184SOPE  H13S21079   2.116   2.436   7.661 -0.9970 -0.8706 -1.1442
  184SOPE  C21421080   2.251   2.392   7.818  0.7011  0.1625 -0.2750
  184SOPE  H14R21081   2.319   2.479   7.812 -0.5555  1.3526  1.4924
  184SOPE  H14S21082   2.311   2.302   7.845 -0.9065 -0.4746  1.4526
  184SOPE  C21521083   2.146   2.430   7.922 -0.1201 -0.4450  0.9816
  184SOPE  H15R21084   2.074   2.502   7.878  1.5781  0.4155 -0.5315
  184SOPE  H15S21085   2.194   2.476   8.012 -1.7580  2.4757  0.5153
  184SOPE  C21621086   2.076   2.307   7.966  0.2753 -0.1611 -0.0183
  184SOPE  H16R21087   2.142   2.221   7.992 -1.4777 -2.0506 -1.4355
  184SOPE  H16S21088   2.007   2.287   7.881  0.7631 -0.2754 -0.3901
  184SOPE  C21721089   1.980   2.322   8.087  0.1175 -0.1181 -0.7007
  184SOPE  H17R21090   1.872   2.324   8.063  0.1865 -0.9626 -1.0987
  184SOPE  H17S21091   1.997   2.424   8.128  0.5046 -0.2686 -0.4804
  184SOPE  C21821092   1.998   2.203   8.196  0.8272 -0.0476  0.0429
  184SOPE  H18R21093   1.949   2.228   8.293 -0.6308 -1.1152 -0.3653
  184SOPE  H18S21094   2.103   2.174   8.216  0.9500 -0.2018 -0.7903
  184SOPE  H18T21095   1.957   2.112   8.147  0.2258  0.9051 -1.3136
  184SOPE   C3321096   2.709   1.412   7.015  0.1355 -0.1409 -0.4593
  184SOPE   H3X21097   2.605   1.398   7.053 -0.1011  0.6615 -0.7846
  184SOPE   H3Y21098   2.709   1.516   6.976 -0.2424  0.3623  0.8118
  184SOPE   C3421099   2.801   1.422   7.139 -0.2750  1.4090 -0.0721
  184SOPE   H4X21100   2.772   1.516   7.190 -2.1120  0.2017  1.2487
  184SOPE   H4Y21101   2.908   1.427   7.111  0.4239  0.3422  2.1921
  184SOPE   C3521102   2.792   1.305   7.232  0.3650 -0.1040 -0.3722
  184SOPE   H5X21103   2.867   1.316   7.313  1.3795 -1.1533 -1.1433
  184SOPE   H5Y21104   2.821   1.208   7.187  1.5313  0.8942 -1.8621
  184SOPE   C3621105   2.657   1.290   7.312 -0.3934  0.7367  0.2731
  184SOPE   H6X21106   2.682   1.202   7.375  0.8544 -0.1143 -1.3343
  184SOPE   H6Y21107   2.571   1.266   7.244 -2.4738  1.0905  2.6335
  184SOPE   C3721108   2.605   1.412   7.385  0.7808 -0.1593 -0.3432
  184SOPE   H7X21109   2.497   1.406   7.412  0.8252  1.8350  0.5092
  184SOPE   H7Y21110   2.603   1.506   7.324  3.2543  0.4457  0.3773
  184SOPE   C3821111   2.686   1.446   7.513 -0.8381 -0.8325 -0.4092
  184SOPE   H8X21112   2.773   1.514   7.501 -0.0100 -1.2525  2.4514
  184SOPE   H8Y21113   2.741   1.357   7.548  0.7997 -0.6258 -2.3113
  184SOPE   C3921114   2.608   1.500   7.627  0.0518  0.0927 -0.1186
  184SOPE   H9X21115   2.655   1.464   7.721 -0.8429 -1.9752 -0.3981
  184SOPE   H9Y21116   2.516   1.438   7.633 -0.4530  0.8129 -0.3166
  184SOPE  C31021117   2.576   1.650   7.621 -1.0059 -0.4265  0.1743
  184SOPE  H10X21118   2.583   1.677   7.514 -0.0659 -0.4321  0.2267
  184SOPE  H10Y21119   2.662   1.701   7.669  0.3758 -0.5961 -2.0338
  184SOPE  C31121120   2.440   1.693   7.679  0.0654 -0.4205  0.4442
  184SOPE  H11X21121   2.421   1.634   7.771  2.7584  0.9174  1.9577
  184SOPE  H11Y21122   2.361   1.685   7.602  1.0313  0.9029 -0.7345
  184SOPE  C31221123   2.439   1.841   7.716 -0.1339  0.2559  0.5487
  184SOPE  H12X21124   2.472   1.907   7.633 -0.3735  0.4811  0.6285
  184SOPE  H12Y21125   2.521   1.859   7.789  0.6671  2.2724 -0.7650
  184SOPE  C31321126   2.299   1.873   7.761 -0.7457 -0.7347 -0.4025
  184SOPE  H13X21127   2.261   1.789   7.823  0.3671 -1.6922 -0.9534
  184SOPE  H13Y21128   2.238   1.881   7.669  0.8800  0.0720 -1.4593
  184SOPE  C31421129   2.295   2.010   7.830  0.4274 -0.0948  0.3942
  184SOPE  H14X21130   2.188   2.033   7.850  0.3962 -0.9039  1.2237
  184SOPE  H14Y21131   2.339   2.090   7.766  1.0478 -1.2464 -0.6649
  184SOPE  C31521132   2.372   2.009   7.972  0.0568 -0.0448  0.6320
  184SOPE  H15X21133   2.375   2.114   8.008  0.6714  0.5772 -1.1212
  184SOPE  H15Y21134   2.475   1.968   7.961 -0.6795 -2.1212  1.0094
  184SOPE  C31621135   2.302   1.913   8.071  0.2256  0.9485  0.3995
  184SOPE  H16X21136   2.333   1.808   8.047  2.1873  1.5711  0.0024
  184SOPE  H16Y21137   2.193   1.930   8.058  0.1971  1.1231  0.8854
  184SOPE  C31721138   2.348   1.925   8.219  0.1327 -0.3515 -0.0526
  184SOPE  H17X21139   2.279   1.860   8.276  0.7965 -0.5023  0.5897
  184SOPE  H17Y21140   2.341   2.029   8.259  0.5738 -0.2023 -0.3549
  184SOPE  C31821141   2.492   1.884   8.251 -0.0078  0.2274  0.0813
  184SOPE  H18X21142   2.518   1.909   8.357 -0.0397 -1.1448  0.4378
  184SOPE  H18Y21143   2.569   1.927   8.184  1.8120 -3.3832 -0.3977
  184SOPE  H18Z21144   2.520   1.777   8.248 -1.7936 -0.3301  1.5263
  185SAPI   C1221145   6.728   4.230  10.716 -0.0701  0.0559  0.6179
  185SAPI    H221146   6.663   4.164  10.778  0.7713 -0.2255  1.2188
  185SAPI    O221147   6.808   4.310  10.811  0.8336 -0.2120  0.2181
  185SAPI   HO221148   6.751   4.384  10.833 -0.9759 -1.7284  0.8126
  185SAPI   C1321149   6.822   4.156  10.615 -0.5286 -0.2670  0.7685
  185SAPI    H321150   6.754   4.104  10.544 -0.5728  1.3983 -0.4482
  185SAPI    O321151   6.906   4.065  10.694  0.3207  0.8022  0.1455
  185SAPI   HO321152   6.907   3.978  10.654 -0.0131  0.8007  0.1410
  185SAPI   C1421153   6.911   4.266  10.546  0.5867 -0.0181 -0.0001
  185SAPI    H421154   6.958   4.333  10.621 -1.7726  1.4262  0.2937
  185SAPI    O421155   7.020   4.211  10.466 -0.3658  0.3072 -0.3037
  185SAPI   HO421156   7.060   4.282  10.417  1.2748  0.9325  1.8065
  185SAPI   C1521157   6.822   4.357  10.459 -0.0337 -0.1268  0.7579
  185SAPI    H521158   6.776   4.296  10.377 -0.1534  0.8661  0.0700
  185SAPI    O521159   6.905   4.452  10.393  0.2292  0.3643  0.4011
  185SAPI   HO521160   6.858   4.534  10.374  0.7112  0.4804 -0.3340
  185SAPI   C1621161   6.713   4.418  10.552 -0.5262 -0.6343  0.6826
  185SAPI    H621162   6.765   4.490  10.619 -0.3459  0.7616 -0.8895
  185SAPI    O621163   6.627   4.483  10.463 -0.3739  0.5615 -0.1480
  185SAPI   HO621164   6.550   4.522  10.506 -0.1816  0.3791  0.3617
  185SAPI   C1121165   6.633   4.315  10.634  0.0127  0.0930  0.0765
  185SAPI    H121166   6.578   4.246  10.567 -0.2104 -0.4920  0.8598
  185SAPI     P21167   6.391   4.436  10.698 -0.5693  0.0186  0.2641
  185SAPI   O1321168   6.342   4.498  10.821  0.7168  0.2041 -0.2356
  185SAPI   O1421169   6.303   4.333  10.635 -0.0027  0.1054  0.0910
  185SAPI   O1221170   6.548   4.388  10.729  0.0697 -0.5078 -0.1283
  185SAPI   O1121171   6.416   4.554  10.589 -0.2136  0.2126  0.1970
  185SAPI    C121172   6.323   4.655  10.551  0.1836 -0.5497 -0.8278
  185SAPI    HA21173   6.242   4.671  10.625  1.3035  0.8806  0.1457
  185SAPI    HB21174   6.373   4.754  10.554 -1.8842  0.5396 -0.6874
  185SAPI    C221175   6.261   4.619  10.413  0.1179 -0.4307  0.0138
  185SAPI    HS21176   6.221   4.517  10.428  3.1808 -1.6915  0.3342
  185SAPI   O2121177   6.361   4.617  10.312 -0.7041  0.1515 -0.7367
  185SAPI   C2121178   6.369   4.498  10.258 -0.6215  0.3972  0.4209
  185SAPI   O2221179   6.303   4.395  10.267  0.1294  0.2788 -0.1371
  185SAPI   C2221180   6.481   4.505  10.152  0.7845  0.1214  0.6731
  185SAPI   H2R21181   6.518   4.610  10.142 -1.4816  0.8278 -1.2096
  185SAPI   H2S21182   6.570   4.444  10.179 -0.2391 -2.7604 -1.9008
  185SAPI    C321183   6.141   4.709  10.375 -0.0832 -0.5069 -0.6988
  185SAPI    HX21184   6.174   4.814  10.364 -0.2142 -0.5524 -1.6176
  185SAPI    HY21185   6.075   4.714  10.464 -0.7523  0.5412 -1.2302
  185SAPI   O3121186   6.081   4.660  10.257 -0.3992  0.3757 -0.1584
  185SAPI   C3121187   6.062   4.742  10.154 -0.5492  0.9727 -0.3760
  185SAPI   O3221188   6.109   4.851  10.145 -0.1399 -0.3861 -0.2696
  185SAPI   C3221189   5.973   4.686  10.045  0.2483 -0.0596  0.2942
  185SAPI   H2X21190   5.866   4.674  10.071  0.3867 -0.8452  0.5124
  185SAPI   H2Y21191   6.015   4.590  10.007  0.2589  0.2671 -0.5411
  185SAPI   C2321192   6.430   4.463  10.006 -0.0920 -0.3188  0.4870
  185SAPI   H3R21193   6.374   4.368  10.023  1.0952 -1.1122  0.1513
  185SAPI   H3S21194   6.516   4.457   9.937 -0.7693  1.1614 -0.5259
  185SAPI   C2421195   6.326   4.558   9.945  0.8288 -0.0805 -0.1876
  185SAPI   H4R21196   6.233   4.561  10.007 -0.3606 -2.0247 -1.7696
  185SAPI   H4S21197   6.291   4.509   9.851  4.1207  0.3117 -1.7497
  185SAPI   C2521198   6.379   4.692   9.914  0.0909  0.0825 -0.1201
  185SAPI   H5R21199   6.398   4.761   9.997 -0.6328 -0.1850  0.2824
  185SAPI   C2621200   6.416   4.726   9.793 -1.1678 -0.2478  0.6329
  185SAPI   H6R21201   6.462   4.826   9.787 -1.7689 -0.0584 -1.7539
  185SAPI   C2721202   6.412   4.647   9.664 -0.3997  0.1715 -0.2169
  185SAPI   H7R21203   6.403   4.722   9.583 -3.7504 -0.0718 -0.2243
  185SAPI   H7S21204   6.315   4.593   9.657 -1.4779  2.1204 -1.1744
  185SAPI   C2821205   6.525   4.555   9.655  0.0516 -0.0748 -0.8420
  185SAPI   H8R21206   6.560   4.510   9.749 -2.3795  0.9191  0.6056
  185SAPI   C2921207   6.583   4.531   9.541  0.8916  0.4840  0.4336
  185SAPI   H9R21208   6.651   4.444   9.542  0.0175 -0.2527 -0.6320
  185SAPI  C21021209   6.540   4.572   9.402 -0.4303 -0.5298  0.5397
  185SAPI  H10R21210   6.589   4.670   9.385  0.1857 -0.8857  0.2331
  185SAPI  H10S21211   6.431   4.579   9.382 -0.2586  1.0630  0.0028
  185SAPI  C21121212   6.581   4.473   9.293  0.2684  0.0542 -0.0615
  185SAPI  H11R21213   6.625   4.380   9.331 -0.0782 -1.0976 -2.3148
  185SAPI  C21221214   6.595   4.506   9.166  0.4228  0.1908  0.1287
  185SAPI  H12R21215   6.628   4.428   9.095 -1.2794 -0.3074 -0.1468
  185SAPI  C21321216   6.570   4.639   9.096  0.3205 -0.1021 -0.1357
  185SAPI  H13R21217   6.516   4.719   9.152  0.2864  0.4772 -0.9759
  185SAPI  H13S21218   6.508   4.615   9.007 -2.6377  0.4423  1.6297
  185SAPI  C21421219   6.704   4.700   9.056  0.3595  0.3864 -0.2886
  185SAPI  H14R21220   6.779   4.728   9.131  0.0036  0.7873 -0.0805
  185SAPI  C21521221   6.738   4.730   8.934 -0.2364  0.3569 -0.7479
  185SAPI  H15R21222   6.845   4.753   8.923  0.0221 -0.3789  0.1529
  185SAPI  C21621223   6.650   4.727   8.814  0.7668  0.1862  0.6844
  185SAPI  H16R21224   6.544   4.723   8.846 -0.3860 -0.0846 -2.8059
  185SAPI  H16S21225   6.679   4.636   8.758  1.4769  1.6099 -1.3710
  185SAPI  C21721226   6.674   4.846   8.714 -0.8760 -0.0696 -0.5236
  185SAPI  H17R21227   6.778   4.851   8.677 -0.7909  0.4186 -0.2254
  185SAPI  H17S21228   6.654   4.940   8.771  0.0392  0.8837 -1.7208
  185SAPI  C21821229   6.587   4.833   8.587 -0.0794 -0.1789 -0.6058
  185SAPI  H18R21230   6.484   4.840   8.628  0.8185  0.7326  1.6874
  185SAPI  H18S21231   6.611   4.732   8.548  1.0598 -1.1528  2.2894
  185SAPI  C21921232   6.623   4.946   8.477  0.3636  0.4165 -0.8606
  185SAPI  H19R21233   6.717   4.921   8.423  1.3551  0.7881  0.6575
  185SAPI  H19S21234   6.649   5.033   8.540  0.3763 -1.0268  1.2150
  185SAPI  C22021235   6.513   4.977   8.375  0.0318 -0.3418 -0.3327
  185SAPI  H20R21236   6.554   5.040   8.294  0.8887  1.3143  1.3078
  185SAPI  H20S21237   6.422   5.016   8.425  0.0920  0.0871 -0.5548
  185SAPI  H20T21238   6.481   4.877   8.338 -0.9435  0.6601 -2.3560
  185SAPI   C3321239   5.969   4.788   9.927 -0.5433  0.0577 -0.3456
  185SAPI   H3X21240   6.072   4.820   9.900 -0.2450  0.1747  0.8676
  185SAPI   H3Y21241   5.917   4.881   9.957  0.0877  0.5244 -0.6810
  185SAPI   C3421242   5.903   4.728   9.798 -0.2687 -0.5253 -0.5562
  185SAPI   H4X21243   5.797   4.695   9.808  0.1088 -1.6538 -0.1551
  185SAPI   H4Y21244   5.970   4.645   9.767  0.6019 -0.0780  0.0770
  185SAPI   C3521245   5.909   4.833   9.682  0.3787 -0.5121  0.1862
  185SAPI   H5X21246   6.010   4.877   9.669 -0.1051  0.4965 -0.2971
  185SAPI   H5Y21247   5.839   4.918   9.699 -0.1900 -0.6020 -1.5263
  185SAPI   C3621248   5.879   4.787   9.541 -0.4808  0.1307  0.3521
  185SAPI   H6X21249   5.891   4.879   9.479  0.3021 -0.1956  0.0099
  185SAPI   H6Y21250   5.776   4.747   9.536 -0.2817 -0.2276 -2.0706
  185SAPI   C3721251   5.990   4.684   9.500  0.6931  0.3174 -0.3550
  185SAPI   H7X21252   5.981   4.590   9.559  2.3790  1.0989  1.2661
  185SAPI   H7Y21253   6.089   4.731   9.520  1.6542 -1.2800 -1.1321
  185SAPI   C3821254   5.989   4.649   9.347 -0.5417  0.3085 -0.2660
  185SAPI   H8X21255   5.994   4.740   9.285  0.0547  0.5143  0.0710
  185SAPI   H8Y21256   5.895   4.593   9.327  0.6307 -0.7405 -3.3601
  185SAPI   C3921257   6.119   4.567   9.317  0.1082  0.6221 -0.5153
  185SAPI   H9X21258   6.109   4.474   9.376  3.2148  0.6427  0.2206
  185SAPI   H9Y21259   6.205   4.621   9.363 -1.1354  0.9719  1.5229
  185SAPI  C31021260   6.123   4.524   9.169 -0.3308 -0.5101 -0.1237
  185SAPI  H10X21261   6.129   4.622   9.117 -1.6852 -0.6162 -0.5177
  185SAPI  H10Y21262   6.024   4.491   9.130 -0.6318  1.5123 -1.1996
  185SAPI  C31121263   6.211   4.414   9.117 -0.8641 -0.4316 -0.7035
  185SAPI  H11X21264   6.183   4.324   9.175 -0.9201 -1.1636 -1.8298
  185SAPI  H11Y21265   6.319   4.433   9.134 -0.7754 -0.6462 -1.0234
  185SAPI  C31221266   6.200   4.375   8.972 -0.2295 -0.3886  0.9324
  185SAPI  H12X21267   6.105   4.321   8.957 -0.8049  1.1449 -1.8084
  185SAPI  H12Y21268   6.286   4.309   8.950  0.1327  0.6186 -0.9587
  185SAPI  C31321269   6.191   4.497   8.878 -0.8509  0.0972  0.4357
  185SAPI  H13X21270   6.278   4.564   8.896  0.6599 -1.3589 -1.1025
  185SAPI  H13Y21271   6.098   4.557   8.891 -0.0050  1.5609 -0.0752
  185SAPI  C31421272   6.197   4.458   8.730  0.9192  0.2036  0.2296
  185SAPI  H14X21273   6.128   4.378   8.697  0.2462 -0.1672  2.3899
  185SAPI  H14Y21274   6.304   4.436   8.706  0.8296  2.2948 -2.5920
  185SAPI  C31521275   6.167   4.580   8.638  0.5257  0.2076 -0.3397
  185SAPI  H15X21276   6.199   4.560   8.533  0.5021  0.7886 -0.4638
  185SAPI  H15Y21277   6.230   4.660   8.682  0.4289 -0.0917  0.3437
  185SAPI  C31621278   6.022   4.629   8.626  0.2438 -0.4278  0.8028
  185SAPI  H16X21279   5.985   4.631   8.730 -0.4051  0.9263  0.5645
  185SAPI  H16Y21280   5.962   4.560   8.562 -0.0101  1.1199 -0.7083
  185SAPI  C31721281   6.010   4.768   8.562  0.0520 -0.4611  0.2666
  185SAPI  H17X21282   6.062   4.848   8.619 -0.0433 -1.2658  1.5274
  185SAPI  H17Y21283   5.904   4.795   8.579  0.6283  1.8953  0.5350
  185SAPI  C31821284   6.037   4.770   8.417  0.2546  0.0094  0.2829
  185SAPI  H18X21285   5.984   4.688   8.364 -0.9623  1.4790 -0.8536
  185SAPI  H18Y21286   6.142   4.742   8.393  0.6268  0.3820  1.3897
  185SAPI  H18Z21287   5.996   4.863   8.373 -0.0579  0.3428  1.2439
  186SAPI   C1221288   0.349   2.375  10.784  0.7726  0.3182 -0.0345
  186SAPI    H221289   0.350   2.396  10.675  2.9122  1.6066  0.1880
  186SAPI    O221290   0.242   2.292  10.835  0.2989  0.1504  0.0297
  186SAPI   HO221291   0.170   2.290  10.772 -1.8831 -1.5855  2.3251
  186SAPI   C1321292   0.474   2.312  10.819 -0.5198 -0.7487  0.0527
  186SAPI    H321293   0.560   2.371  10.783 -0.0828 -1.8965 -0.8534
  186SAPI    O321294   0.484   2.194  10.737 -0.2308  0.1876  0.4202
  186SAPI   HO321295   0.403   2.143  10.738  0.9831 -1.8489  1.1144
  186SAPI   C1421296   0.484   2.297  10.972 -0.0592 -0.2121  0.4742
  186SAPI    H421297   0.404   2.229  11.009 -1.3233 -0.3981 -2.3424
  186SAPI    O421298   0.605   2.233  11.014  0.3978  0.6893 -0.6632
  186SAPI   HO421299   0.575   2.188  11.093 -0.0215 -1.5529 -2.0292
  186SAPI   C1521300   0.470   2.434  11.034  0.2290  0.0891  0.3501
  186SAPI    H521301   0.549   2.505  11.001 -0.4832  0.6686 -0.1231
  186SAPI    O521302   0.475   2.428  11.175  0.4572  0.4225  0.3861
  186SAPI   HO521303   0.381   2.436  11.195  0.1339  1.1546 -1.2409
  186SAPI   C1621304   0.341   2.503  11.001 -0.6251  0.4621  0.2767
  186SAPI    H621305   0.256   2.449  11.048  0.9745 -0.7947  1.8497
  186SAPI    O621306   0.336   2.633  11.065  0.3590 -0.2930  0.0702
  186SAPI   HO621307   0.317   2.708  11.008  0.8728 -0.9171 -0.9424
  186SAPI   C1121308   0.339   2.517  10.852  0.1227 -0.2354  0.5205
  186SAPI    H121309   0.430   2.571  10.818 -0.7088  0.5576 -0.5108
  186SAPI     P21310   0.210   2.743  10.769  0.5401  0.4873 -0.0480
  186SAPI   O1321311   0.253   2.814  10.890  0.0733  0.2286  0.8705
  186SAPI   O1421312   0.070   2.767  10.718 -0.2875  0.2527 -0.3417
  186SAPI   O1221313   0.219   2.585  10.803 -0.2264  0.2341  0.1003
  186SAPI   O1121314   0.315   2.748  10.655  0.5756  0.2676 -0.5229
  186SAPI    C121315   0.362   2.873  10.598  0.0437  0.0638  0.1398
  186SAPI    HA21316   0.379   2.951  10.676  1.9900 -0.0166 -0.1680
  186SAPI    HB21317   0.466   2.854  10.565  0.1530 -0.2812  0.6802
  186SAPI    C221318   0.265   2.926  10.491 -1.0452 -0.4118  0.9719
  186SAPI    HS21319   0.164   2.924  10.536 -1.5233 -0.5377 -0.0783
  186SAPI   O2121320   0.271   2.828  10.381 -0.0686  0.4130  0.0124
  186SAPI   C2121321   0.173   2.827  10.292  0.1104 -0.1026 -0.0428
  186SAPI   O2221322   0.088   2.912  10.283  0.2354 -0.2487 -0.7917
  186SAPI   C2221323   0.189   2.712  10.192  0.0588 -0.0452 -0.1000
  186SAPI   H2R21324   0.294   2.678  10.188  0.0304 -0.0981 -0.4682
  186SAPI   H2S21325   0.128   2.625  10.223  0.4639 -0.6819 -1.0423
  186SAPI    C321326   0.295   3.069  10.440 -0.6401 -0.3617  0.5109
  186SAPI    HX21327   0.290   3.138  10.527  0.9162 -1.1131  1.2313
  186SAPI    HY21328   0.216   3.100  10.368 -1.0882 -1.7101  0.3961
  186SAPI   O3121329   0.426   3.074  10.382 -0.4708  0.4866 -0.7503
  186SAPI   C3121330   0.463   3.188  10.326  0.4888  0.1814 -0.0553
  186SAPI   O3221331   0.402   3.291  10.329 -0.3235  0.3726  0.6892
  186SAPI   C3221332   0.598   3.169  10.264  0.5336 -0.4009  0.4375
  186SAPI   H2X21333   0.676   3.117  10.324  2.2281  1.8738  0.3281
  186SAPI   H2Y21334   0.635   3.273  10.267  2.0042 -0.9170  2.7272
  186SAPI   C2321335   0.151   2.760  10.043 -0.2717 -0.9812 -0.4185
  186SAPI   H3R21336   0.223   2.842  10.025 -1.2258  0.5308  2.0169
  186SAPI   H3S21337   0.046   2.797  10.048 -0.2352 -0.9711  0.5074
  186SAPI   C2421338   0.162   2.647   9.948  0.0161 -0.8780 -0.0518
  186SAPI   H4R21339   0.101   2.670   9.858 -1.0082 -1.2296  0.5445
  186SAPI   H4S21340   0.108   2.561   9.993  1.0823 -0.8806  1.2599
  186SAPI   C2521341   0.304   2.600   9.913  0.8377  1.0834  0.7381
  186SAPI   H5R21342   0.367   2.570   9.998  1.7065  0.6080 -0.0551
  186SAPI   C2621343   0.349   2.593   9.791  0.7263  0.2000  0.2589
  186SAPI   H6R21344   0.454   2.560   9.791  0.6089 -0.2194 -1.1428
  186SAPI   C2721345   0.294   2.629   9.658  0.7485  0.1559 -0.0856
  186SAPI   H7R21346   0.204   2.690   9.681 -0.6133 -2.0043  0.6046
  186SAPI   H7S21347   0.265   2.541   9.597 -0.9241  0.3409  0.4003
  186SAPI   C2821348   0.385   2.700   9.566  0.0997  0.0321  0.0615
  186SAPI   H8R21349   0.489   2.715   9.600  1.9278 -0.2711 -4.7207
  186SAPI   C2921350   0.348   2.751   9.447  0.2504 -0.6352 -0.1261
  186SAPI   H9R21351   0.426   2.798   9.384  1.0640 -0.8197  0.7155
  186SAPI  C21021352   0.208   2.743   9.383 -0.1204  0.5960  0.3530
  186SAPI  H10R21353   0.190   2.842   9.337 -1.8572 -0.1571 -0.6992
  186SAPI  H10S21354   0.127   2.722   9.456 -0.8752 -1.8918 -1.0743
  186SAPI  C21121355   0.209   2.631   9.285  0.8652 -0.6069 -0.0822
  186SAPI  H11R21356   0.208   2.527   9.322 -0.4965 -0.9725 -1.1038
  186SAPI  C21221357   0.215   2.641   9.152  0.0525 -0.5915 -0.0315
  186SAPI  H12R21358   0.207   2.552   9.088  1.0093 -0.5734 -0.1885
  186SAPI  C21321359   0.226   2.766   9.069 -0.1241  0.0653 -0.2193
  186SAPI  H13R21360   0.260   2.851   9.131  0.4735 -1.6485  1.9158
  186SAPI  H13S21361   0.132   2.797   9.018  0.4127 -1.1947 -2.1035
  186SAPI  C21421362   0.335   2.742   8.969 -0.0669 -0.6326 -0.7289
  186SAPI  H14R21363   0.432   2.711   9.009  0.7265  3.5358  1.1195
  186SAPI  C21521364   0.326   2.756   8.832 -0.8807 -0.3823 -0.1864
  186SAPI  H15R21365   0.407   2.718   8.767 -0.6268  1.1052 -0.7672
  186SAPI  C21621366   0.206   2.793   8.758 -0.3109  0.9483  0.3855
  186SAPI  H16R21367   0.122   2.817   8.826 -1.9966  0.2363 -1.3482
  186SAPI  H16S21368   0.166   2.706   8.701  1.6098 -0.5158  1.1571
  186SAPI  C21721369   0.227   2.899   8.651  0.2678 -0.0230  0.9374
  186SAPI  H17R21370   0.262   2.997   8.690 -1.6860  1.0522  0.0801
  186SAPI  H17S21371   0.130   2.921   8.603 -0.6261  0.7897  3.0073
  186SAPI  C21821372   0.325   2.864   8.542 -0.5012 -0.3742 -0.9295
  186SAPI  H18R21373   0.303   2.763   8.503 -2.0080 -0.6517  0.5064
  186SAPI  H18S21374   0.430   2.857   8.577 -1.0751 -1.3871  0.7068
  186SAPI  C21921375   0.333   2.967   8.432  0.5168  0.4554 -0.2636
  186SAPI  H19R21376   0.340   3.070   8.474  2.1286 -0.3078  1.4690
  186SAPI  H19S21377   0.236   2.971   8.376  0.4641  1.3103 -0.1203
  186SAPI  C22021378   0.443   2.922   8.330  0.0190 -0.1838 -0.5288
  186SAPI  H20R21379   0.541   2.923   8.382 -1.1714 -1.5031  1.9783
  186SAPI  H20S21380   0.445   2.975   8.232  0.7122 -0.3572 -0.6103
  186SAPI  H20T21381   0.428   2.815   8.304  2.8965 -0.5467 -1.0015
  186SAPI   C3321382   0.581   3.114  10.118  0.5101  0.0365 -0.0392
  186SAPI   H3X21383   0.516   3.024  10.118  1.3262 -0.5989 -1.8301
  186SAPI   H3Y21384   0.678   3.072  10.084  1.7666  0.9708  2.1852
  186SAPI   C3421385   0.525   3.208  10.006  0.2924 -0.1881  0.7734
  186SAPI   H4X21386   0.604   3.285   9.992 -1.2318  1.2133 -0.5992
  186SAPI   H4Y21387   0.434   3.259  10.042 -0.2727 -0.1522 -0.6281
  186SAPI   C3521388   0.490   3.129   9.879 -0.3960  0.1688 -1.1825
  186SAPI   H5X21389   0.412   3.055   9.909 -0.2659  1.0960  1.7309
  186SAPI   H5Y21390   0.581   3.077   9.843 -0.6662 -0.1465 -1.4224
  186SAPI   C3621391   0.438   3.207   9.759  0.1612  0.2418 -0.0889
  186SAPI   H6X21392   0.494   3.303   9.752 -1.6728  1.2598 -1.4927
  186SAPI   H6Y21393   0.334   3.231   9.787  0.8658  2.9221  0.5497
  186SAPI   C3721394   0.447   3.120   9.627  0.5290 -0.1732 -0.3509
  186SAPI   H7X21395   0.378   3.035   9.646 -0.6646  0.6996 -0.6420
  186SAPI   H7Y21396   0.547   3.091   9.587  1.9494  1.1809  2.0315
  186SAPI   C3821397   0.381   3.199   9.512 -0.5812  0.7453 -0.1046
  186SAPI   H8X21398   0.427   3.300   9.508  1.0866  0.0533  0.7517
  186SAPI   H8Y21399   0.271   3.207   9.528 -1.0646 -3.5354 -0.3429
  186SAPI   C3921400   0.410   3.128   9.379  0.2010 -0.4535  0.1916
  186SAPI   H9X21401   0.364   3.027   9.385 -2.2718  0.4000 -2.1359
  186SAPI   H9Y21402   0.520   3.123   9.368  0.2695 -1.0405  1.0765
  186SAPI  C31021403   0.361   3.202   9.251  0.6168  0.1901  0.0998
  186SAPI  H10X21404   0.257   3.238   9.263  0.1710 -0.5860 -1.3219
  186SAPI  H10Y21405   0.365   3.129   9.167 -0.8981  1.4640 -1.1271
  186SAPI  C31121406   0.461   3.313   9.202  0.1661  0.5513 -0.3316
  186SAPI  H11X21407   0.561   3.268   9.215  0.5381  1.5740  0.5688
  186SAPI  H11Y21408   0.454   3.398   9.273 -0.7045  1.2077 -1.1726
  186SAPI  C31221409   0.436   3.364   9.065  0.2783  0.1523  0.2784
  186SAPI  H12X21410   0.342   3.420   9.054  0.4657  0.5749  0.7630
  186SAPI  H12Y21411   0.415   3.279   8.997 -0.0781  0.3312  0.1677
  186SAPI  C31321412   0.551   3.451   9.005 -0.2354  1.0302  0.8144
  186SAPI  H13X21413   0.643   3.397   9.039 -0.4805  0.4511  0.5621
  186SAPI  H13Y21414   0.552   3.553   9.047  2.1348  0.6980  1.7465
  186SAPI  C31421415   0.531   3.464   8.855 -0.4335  0.4582 -0.1191
  186SAPI  H14X21416   0.432   3.511   8.836 -1.2317 -0.1196  2.3119
  186SAPI  H14Y21417   0.525   3.360   8.816  0.8473 -0.3798  1.7596
  186SAPI  C31521418   0.643   3.539   8.785  0.0495  0.1783  0.6448
  186SAPI  H15X21419   0.743   3.512   8.824  1.2947  2.3828 -0.7678
  186SAPI  H15Y21420   0.616   3.645   8.805  0.5600  0.4610 -0.1296
  186SAPI  C31621421   0.651   3.531   8.632  0.2425 -0.4433 -0.4052
  186SAPI  H16X21422   0.547   3.544   8.597  0.0268 -0.7139  0.1281
  186SAPI  H16Y21423   0.691   3.430   8.606  3.2274  1.1637 -2.7246
  186SAPI  C31721424   0.741   3.639   8.570  0.7394  0.0328 -0.0762
  186SAPI  H17X21425   0.841   3.590   8.577  1.8160  2.1800  0.4910
  186SAPI  H17Y21426   0.742   3.726   8.639 -2.3205  0.8326 -0.9062
  186SAPI  C31821427   0.700   3.680   8.428 -0.3189 -0.2470 -0.2502
  186SAPI  H18X21428   0.598   3.724   8.426 -0.4714 -0.6339 -1.6890
  186SAPI  H18Y21429   0.714   3.601   8.351 -0.6871  1.3118 -1.9808
  186SAPI  H18Z21430   0.772   3.755   8.390 -0.0116 -1.2666 -1.7479
  187SAPI   C1221431   2.263   5.014   6.065 -0.1875 -0.2269 -0.1498
  187SAPI    H221432   2.353   5.068   6.101  0.5709 -1.2875 -0.3947
  187SAPI    O221433   2.200   4.942   6.170  0.3539 -0.2204  0.4106
  187SAPI   HO221434   2.271   4.913   6.227  0.7334  1.1456  0.6737
  187SAPI   C1321435   2.170   5.132   6.013  0.3242  0.1975  0.8635
  187SAPI    H321436   2.211   5.179   5.921 -0.5228 -2.9700 -1.3161
  187SAPI    O321437   2.144   5.229   6.111  0.6678  0.6202  0.6405
  187SAPI   HO321438   2.111   5.178   6.186  1.0277 -0.5715  0.0195
  187SAPI   C1421439   2.038   5.069   5.953  0.1152  0.4182  0.1793
  187SAPI    H421440   1.993   5.009   6.035  0.4362  0.1375  0.1521
  187SAPI    O421441   1.952   5.174   5.902  0.4027  0.0245  0.0193
  187SAPI   HO421442   1.877   5.191   5.959  0.4383 -1.9247  0.7117
  187SAPI   C1521443   2.071   4.972   5.844 -0.7528  0.1430  0.0423
  187SAPI    H521444   2.118   5.025   5.758 -0.2796 -1.0619 -0.4750
  187SAPI    O521445   1.948   4.921   5.787  0.1386 -0.0226  0.1358
  187SAPI   HO521446   1.914   4.995   5.737 -0.4761  0.5821  1.4041
  187SAPI   C1621447   2.171   4.862   5.895  0.9376  0.4159 -0.3146
  187SAPI    H621448   2.108   4.793   5.956  1.1399  0.3076 -0.2257
  187SAPI    O621449   2.210   4.795   5.779 -0.3489  0.1513  0.0815
  187SAPI   HO621450   2.287   4.744   5.807  0.5248  1.4573  0.1740
  187SAPI   C1121451   2.296   4.917   5.956  0.8092  0.9505  0.0016
  187SAPI    H121452   2.355   4.969   5.878  1.0699 -0.2351 -0.6296
  187SAPI     P21453   2.522   4.827   6.057  0.0608 -0.2411 -0.1144
  187SAPI   O1321454   2.579   4.947   5.996 -0.1594  0.4268  0.1313
  187SAPI   O1421455   2.604   4.708   6.048 -0.0506 -0.2396  0.0082
  187SAPI   O1221456   2.376   4.803   5.996 -0.6822  0.1966 -0.2469
  187SAPI   O1121457   2.484   4.856   6.208 -0.1965  0.3497 -0.2744
  187SAPI    C121458   2.430   4.761   6.296  0.0251 -0.1046 -0.0171
  187SAPI    HA21459   2.319   4.755   6.299  0.1133 -2.6685  1.0427
  187SAPI    HB21460   2.470   4.662   6.264  2.1828  0.8764 -0.5148
  187SAPI    C221461   2.466   4.788   6.445  0.6642 -0.9459 -0.6172
  187SAPI    HS21462   2.401   4.722   6.505 -2.0897  0.5408 -1.7539
  187SAPI   O2121463   2.438   4.929   6.479  0.4265 -0.2945 -0.5789
  187SAPI   C2121464   2.307   4.959   6.487 -0.3442 -0.4358  0.3003
  187SAPI   O2221465   2.218   4.879   6.476  0.5380 -0.6741  0.0904
  187SAPI   C2221466   2.289   5.112   6.511 -0.0988 -0.5048 -0.3082
  187SAPI   H2R21467   2.273   5.157   6.411 -0.5757 -0.1161 -0.0640
  187SAPI   H2S21468   2.185   5.127   6.545 -1.1618 -1.2176 -3.0090
  187SAPI    C321469   2.616   4.760   6.476  0.6700 -0.9422 -0.1055
  187SAPI    HX21470   2.673   4.821   6.403  0.0304  2.2170  1.8877
  187SAPI    HY21471   2.646   4.657   6.446  0.1528 -1.0389 -0.3022
  187SAPI   O3121472   2.646   4.801   6.613  0.6041 -0.2968  0.3213
  187SAPI   C3121473   2.650   4.703   6.700 -1.5089 -0.0078  0.8429
  187SAPI   O3221474   2.654   4.585   6.669  0.1660  0.0999 -0.0943
  187SAPI   C3221475   2.650   4.758   6.844 -0.7936 -0.2748  0.4342
  187SAPI   H2X21476   2.641   4.868   6.832 -1.2510 -0.4554 -1.1503
  187SAPI   H2Y21477   2.747   4.751   6.899 -1.4306 -2.3929  1.3876
  187SAPI   C2321478   2.403   5.174   6.592 -1.1811  0.4750  0.1756
  187SAPI   H3R21479   2.422   5.268   6.535  2.5805 -0.4677 -0.3780
  187SAPI   H3S21480   2.497   5.116   6.597 -1.5524 -0.3346 -1.6252
  187SAPI   C2421481   2.375   5.207   6.739 -0.3210  0.0971 -0.7363
  187SAPI   H4R21482   2.264   5.220   6.735 -0.5343 -1.2037  0.2441
  187SAPI   H4S21483   2.422   5.298   6.783 -0.1691 -2.2272  4.7755
  187SAPI   C2521484   2.402   5.087   6.830 -0.9234  0.1415  0.2876
  187SAPI   H5R21485   2.480   5.019   6.796 -0.0834  2.1271 -2.0511
  187SAPI   C2621486   2.337   5.063   6.944  0.0928 -0.2977 -0.0312
  187SAPI   H6R21487   2.363   4.972   6.999 -0.0896 -0.7764 -0.7267
  187SAPI   C2721488   2.222   5.137   7.016  0.1116  0.2817  0.1330
  187SAPI   H7R21489   2.163   5.051   7.055  0.7351 -0.6968 -1.0186
  187SAPI   H7S21490   2.151   5.192   6.950  0.4475  1.0033  0.3550
  187SAPI   C2821491   2.272   5.234   7.123 -0.1224 -0.6993 -0.4726
  187SAPI   H8R21492   2.280   5.339   7.092 -0.5843 -0.6962 -0.5757
  187SAPI   C2921493   2.306   5.205   7.249 -0.4594 -0.3913  0.3367
  187SAPI   H9R21494   2.347   5.277   7.321 -0.6515 -2.0566  2.2077
  187SAPI  C21021495   2.317   5.066   7.315  0.0210  0.4483  0.0121
  187SAPI  H10R21496   2.417   5.050   7.362 -0.5855 -2.4604  0.4821
  187SAPI  H10S21497   2.321   4.986   7.238 -1.2894 -0.4735  0.8637
  187SAPI  C21121498   2.210   5.031   7.411 -0.5501 -0.0492 -0.1842
  187SAPI  H11R21499   2.119   4.998   7.358 -0.6122 -2.3357  1.2349
  187SAPI  C21221500   2.221   5.022   7.548 -0.4461  0.2637  0.1525
  187SAPI  H12R21501   2.132   4.990   7.603 -0.7172  0.3887 -0.2103
  187SAPI  C21321502   2.342   5.037   7.635  0.1574 -0.7004 -0.0501
  187SAPI  H13R21503   2.426   4.993   7.577  1.1540  0.0218  0.7956
  187SAPI  H13S21504   2.333   4.971   7.723  1.1479  1.2854  1.6271
  187SAPI  C21421505   2.374   5.184   7.670 -0.2187  0.1944  0.2028
  187SAPI  H14R21506   2.351   5.252   7.586 -1.6148  0.7482  1.0009
  187SAPI  C21521507   2.443   5.220   7.776 -0.7339 -0.0603  0.6969
  187SAPI  H15R21508   2.464   5.327   7.789  0.2742 -0.1624 -0.0604
  187SAPI  C21621509   2.494   5.131   7.888 -0.2575 -0.1284 -0.3129
  187SAPI  H16R21510   2.600   5.164   7.896 -0.4768  1.2827 -2.3892
  187SAPI  H16S21511   2.501   5.026   7.852  2.5914 -0.5631  1.2047
  187SAPI  C21721512   2.418   5.140   8.027 -0.0291  0.2075  0.3055
  187SAPI  H17R21513   2.434   5.044   8.079  1.3416 -1.1857 -2.4539
  187SAPI  H17S21514   2.310   5.144   7.999  0.4201 -0.1212 -1.6791
  187SAPI  C21821515   2.470   5.250   8.116 -0.8736 -0.5057 -0.5667
  187SAPI  H18R21516   2.433   5.347   8.077  1.0220  0.7397  0.5714
  187SAPI  H18S21517   2.578   5.240   8.140 -1.1953 -1.7578  0.4865
  187SAPI  C21921518   2.416   5.249   8.257  0.7347  0.1264  0.2831
  187SAPI  H19R21519   2.431   5.146   8.298 -1.9181  0.0059  1.1361
  187SAPI  H19S21520   2.306   5.264   8.258  0.6509 -0.3912 -0.4437
  187SAPI  C22021521   2.461   5.360   8.351  0.1589 -0.2955  0.1293
  187SAPI  H20R21522   2.415   5.450   8.306  1.2451 -0.3151 -1.0735
  187SAPI  H20S21523   2.572   5.368   8.356  0.0552  0.3912  2.9998
  187SAPI  H20T21524   2.432   5.340   8.456  0.0981  0.1986  0.2083
  187SAPI   C3321525   2.538   4.707   6.939  0.2281 -0.0405 -0.4503
  187SAPI   H3X21526   2.542   4.596   6.938 -1.5719 -0.1692  1.3754
  187SAPI   H3Y21527   2.438   4.745   6.909 -0.1501 -1.2750 -0.8050
  187SAPI   C3421528   2.563   4.747   7.083 -0.3131 -0.5812  0.0726
  187SAPI   H4X21529   2.541   4.855   7.097 -1.8957 -0.3432 -3.1644
  187SAPI   H4Y21530   2.671   4.733   7.104 -0.3872  0.0640  0.9580
  187SAPI   C3521531   2.473   4.657   7.172 -0.4414  0.2881  0.1264
  187SAPI   H5X21532   2.491   4.551   7.144 -0.2154  1.2149 -3.8804
  187SAPI   H5Y21533   2.365   4.662   7.145 -0.3858 -4.3002 -1.7950
  187SAPI   C3621534   2.482   4.694   7.322 -0.2420  0.0061  0.4357
  187SAPI   H6X21535   2.424   4.788   7.324 -0.6049 -0.1204 -1.7811
  187SAPI   H6Y21536   2.590   4.715   7.336  0.1685 -0.2559 -2.0329
  187SAPI   C3721537   2.420   4.578   7.397  0.0609  0.1101  0.6914
  187SAPI   H7X21538   2.472   4.482   7.380 -0.5792 -0.3687  1.3542
  187SAPI   H7Y21539   2.316   4.569   7.359  0.7979  3.1211 -2.5695
  187SAPI   C3821540   2.404   4.597   7.549  0.1581  0.2592  0.7399
  187SAPI   H8X21541   2.329   4.524   7.587  1.2587 -1.4638 -0.2352
  187SAPI   H8Y21542   2.372   4.701   7.569 -0.2145  0.4331 -0.6253
  187SAPI   C3921543   2.541   4.582   7.616  0.1503  0.0655  0.3379
  187SAPI   H9X21544   2.605   4.666   7.581 -2.0402  2.5127  1.7909
  187SAPI   H9Y21545   2.578   4.481   7.590 -0.1504  0.2322 -0.7846
  187SAPI  C31021546   2.531   4.585   7.774  0.1988  0.1182  0.3662
  187SAPI  H10X21547   2.441   4.527   7.805  0.7507 -0.9785 -0.0325
  187SAPI  H10Y21548   2.518   4.687   7.816  2.0500 -0.1034  1.5992
  187SAPI  C31121549   2.642   4.512   7.850 -0.3679 -0.6656 -0.3258
  187SAPI  H11X21550   2.729   4.491   7.783 -0.4423 -0.8242 -0.3736
  187SAPI  H11Y21551   2.607   4.419   7.899  1.7272 -0.9490  0.7692
  187SAPI  C31221552   2.689   4.596   7.966  0.1704  0.3273  0.1262
  187SAPI  H12X21553   2.597   4.634   8.015  0.9290  0.9795  1.0713
  187SAPI  H12Y21554   2.748   4.685   7.938  2.1977 -0.8921  0.2828
  187SAPI  C31321555   2.770   4.524   8.074  0.6100  0.1774  0.0276
  187SAPI  H13X21556   2.864   4.489   8.026  1.2939  0.8162  0.8730
  187SAPI  H13Y21557   2.719   4.433   8.113 -0.7474  0.3940 -1.1693
  187SAPI  C31421558   2.810   4.616   8.194  0.6858 -0.2145  0.3044
  187SAPI  H14X21559   2.713   4.657   8.228 -0.3328 -0.7629 -1.7622
  187SAPI  H14Y21560   2.865   4.692   8.135  0.1323 -0.3069 -0.3483
  187SAPI  C31521561   2.915   4.560   8.295  0.7162 -0.2578 -0.2064
  187SAPI  H15X21562   3.023   4.552   8.269  1.3820  1.6363  1.6404
  187SAPI  H15Y21563   2.881   4.459   8.325  2.4695 -0.2289  2.1398
  187SAPI  C31621564   2.930   4.644   8.421 -0.2961 -0.4088  0.0613
  187SAPI  H16X21565   3.005   4.599   8.490 -0.4669  1.3398  1.4765
  187SAPI  H16Y21566   2.832   4.661   8.472 -0.1262 -0.7770  0.5152
  187SAPI  C31721567   2.981   4.787   8.393 -0.2674  0.3912  0.2365
  187SAPI  H17X21568   2.900   4.845   8.343 -0.2107 -0.6042 -1.0518
  187SAPI  H17Y21569   3.063   4.786   8.319 -0.1402  0.2057  0.3795
  187SAPI  C31821570   3.037   4.863   8.513  0.3672 -0.1967 -0.0642
  187SAPI  H18X21571   3.142   4.830   8.530  1.1056  1.3284 -1.3695
  187SAPI  H18Y21572   2.963   4.842   8.594 -0.2329  0.7929 -0.3363
  187SAPI  H18Z21573   3.044   4.973   8.496  0.6617 -0.2365 -0.2014
  188SAPI   C1221574   4.879   2.384   6.134 -0.3723 -0.4444  0.3105
  188SAPI    H221575   4.933   2.336   6.219  2.4537  2.6648  0.4748
  188SAPI    O221576   4.828   2.511   6.184  0.3079 -0.2547 -0.3198
  188SAPI   HO221577   4.769   2.486   6.256  0.1257 -0.7299 -0.6321
  188SAPI   C1321578   5.001   2.408   6.036 -0.0008 -0.3059 -0.4636
  188SAPI    H321579   5.040   2.310   6.003 -1.8505 -0.9758 -0.8140
  188SAPI    O321580   5.111   2.480   6.103 -0.4832 -0.4858  0.5691
  188SAPI   HO321581   5.071   2.562   6.132 -0.8084 -0.8984  1.2960
  188SAPI   C1421582   4.943   2.485   5.919 -0.1399  0.4571  0.2530
  188SAPI    H421583   4.900   2.580   5.956 -0.6222  0.5582 -0.5463
  188SAPI    O421584   5.054   2.509   5.822  0.0952  0.1705  0.3653
  188SAPI   HO421585   5.131   2.521   5.878  0.8240  1.6656 -0.8645
  188SAPI   C1521586   4.837   2.410   5.844 -0.5631 -0.2902 -0.2935
  188SAPI    H521587   4.880   2.313   5.813 -1.8682 -0.8582 -0.4075
  188SAPI    O521588   4.787   2.475   5.727  0.3548  0.2560  0.6223
  188SAPI   HO521589   4.824   2.437   5.647  0.3240 -0.3900  0.9088
  188SAPI   C1621590   4.719   2.385   5.938 -0.3625  0.6525 -1.2825
  188SAPI    H621591   4.668   2.478   5.973 -3.7203 -1.5944  0.3752
  188SAPI    O621592   4.621   2.306   5.872  0.0222 -0.4946 -0.1363
  188SAPI   HO621593   4.533   2.344   5.868  0.0738 -0.3807 -0.1858
  188SAPI   C1121594   4.765   2.308   6.065  0.4387 -0.5532 -0.1632
  188SAPI    H121595   4.806   2.212   6.027  0.9684 -0.1379 -0.6687
  188SAPI     P21596   4.683   2.191   6.290 -0.3817 -0.1505  0.1625
  188SAPI   O1321597   4.804   2.112   6.271 -0.3542  0.7368 -0.0579
  188SAPI   O1421598   4.557   2.126   6.326  0.3688 -0.1327  0.2255
  188SAPI   O1221599   4.659   2.285   6.158  0.0182  0.3628  0.6133
  188SAPI   O1121600   4.714   2.296   6.411  0.0649  0.7249 -0.6609
  188SAPI    C121601   4.726   2.244   6.543 -0.2589  0.4529  0.2731
  188SAPI    HA21602   4.747   2.332   6.609  0.2433  0.7768 -0.3096
  188SAPI    HB21603   4.628   2.212   6.584  0.6527 -0.0612  2.1758
  188SAPI    C221604   4.833   2.133   6.564  0.7251  0.3892 -0.0638
  188SAPI    HS21605   4.815   2.050   6.493  1.4323  3.5187 -4.2809
  188SAPI   O2121606   4.828   2.091   6.706 -0.2768  0.2405 -0.4381
  188SAPI   C2121607   4.726   2.023   6.735 -0.5369  0.3239  0.2875
  188SAPI   O2221608   4.642   1.983   6.657 -0.0193  0.1845  0.3732
  188SAPI   C2221609   4.726   1.985   6.881  0.1261 -0.1419  0.0624
  188SAPI   H2R21610   4.830   1.992   6.921 -0.9146  1.1888  2.7448
  188SAPI   H2S21611   4.674   2.068   6.933  1.6237 -0.4631  2.2223
  188SAPI    C321612   4.977   2.185   6.529  0.3496  1.0508  0.2792
  188SAPI    HX21613   4.990   2.207   6.421 -0.6559  2.9107  0.4847
  188SAPI    HY21614   5.031   2.089   6.540 -0.4008  0.5696 -0.1961
  188SAPI   O3121615   5.024   2.293   6.617 -0.2872 -0.0426 -0.7083
  188SAPI   C3121616   5.128   2.265   6.700  0.2712  0.5187 -0.3110
  188SAPI   O3221617   5.196   2.168   6.703  0.1723  0.6319  0.7631
  188SAPI   C3221618   5.167   2.397   6.766  0.8356 -0.2985 -0.6965
  188SAPI   H2X21619   5.074   2.457   6.777  2.2968  1.6567  2.4957
  188SAPI   H2Y21620   5.235   2.453   6.699  1.1446  0.7585  0.4591
  188SAPI   C2321621   4.670   1.841   6.900  0.1417  0.3445 -0.1105
  188SAPI   H3R21622   4.742   1.769   6.855  0.7768  0.5444  0.5538
  188SAPI   H3S21623   4.575   1.838   6.843  1.5332 -3.0195 -2.6406
  188SAPI   C2421624   4.657   1.801   7.045 -0.5067 -0.4890 -0.1520
  188SAPI   H4R21625   4.755   1.800   7.097 -0.3923 -0.3182 -0.3611
  188SAPI   H4S21626   4.620   1.696   7.052  0.3088 -0.9420 -1.9532
  188SAPI   C2521627   4.556   1.892   7.108  0.0804  0.0053 -0.3695
  188SAPI   H5R21628   4.484   1.933   7.036  0.7723  1.6113 -0.1936
  188SAPI   C2621629   4.545   1.931   7.232  0.0772 -0.4513  0.2752
  188SAPI   H6R21630   4.477   2.012   7.260  0.3317 -0.3233  0.5309
  188SAPI   C2721631   4.627   1.878   7.344 -0.4539  0.5143 -0.5493
  188SAPI   H7R21632   4.728   1.924   7.343  0.3736 -1.0839  1.2252
  188SAPI   H7S21633   4.647   1.770   7.324 -2.2913  0.2993 -1.3879
  188SAPI   C2821634   4.576   1.880   7.488 -0.0030 -0.1064 -0.4549
  188SAPI   H8R21635   4.486   1.942   7.505 -0.1017 -0.5099  0.5394
  188SAPI   C2921636   4.628   1.814   7.592 -0.3774  0.4092 -0.1643
  188SAPI   H9R21637   4.574   1.821   7.687  1.1735 -1.5490  0.9591
  188SAPI  C21021638   4.737   1.705   7.591 -0.1290  0.1178 -0.6255
  188SAPI  H10R21639   4.834   1.753   7.617  1.3948 -1.9314 -2.1055
  188SAPI  H10S21640   4.759   1.662   7.491  0.6416  0.3050 -0.5473
  188SAPI  C21121641   4.712   1.582   7.671  0.3396  0.4231 -0.0671
  188SAPI  H11R21642   4.675   1.496   7.613 -4.0193  2.2044 -0.3065
  188SAPI  C21221643   4.719   1.568   7.806  0.3432 -0.6601  0.2565
  188SAPI  H12R21644   4.689   1.476   7.857 -0.4733 -0.0762  0.8538
  188SAPI  C21321645   4.768   1.677   7.898  0.6540  0.3808  0.3323
  188SAPI  H13R21646   4.750   1.783   7.871 -3.2131  0.0309  1.0246
  188SAPI  H13S21647   4.873   1.656   7.931  0.8135  0.1971 -0.2800
  188SAPI  C21421648   4.693   1.649   8.031  0.0013  0.1015 -0.6329
  188SAPI  H14R21649   4.689   1.543   8.062 -2.4355  0.3910  0.2494
  188SAPI  C21521650   4.612   1.731   8.102  0.4960  1.9932  0.3396
  188SAPI  H15R21651   4.568   1.687   8.193  1.1374  1.3665  0.3455
  188SAPI  C21621652   4.582   1.871   8.060  0.0649  0.0247 -0.6727
  188SAPI  H16R21653   4.623   1.905   7.962 -2.4249  0.3743 -1.6489
  188SAPI  H16S21654   4.626   1.931   8.143 -0.3754 -0.4336 -0.0956
  188SAPI  C21721655   4.431   1.892   8.049 -0.1513  0.0590 -0.1145
  188SAPI  H17R21656   4.401   1.817   7.973 -1.4193 -1.2089  1.5600
  188SAPI  H17S21657   4.406   1.993   8.012  2.3195  1.9170  2.8020
  188SAPI  C21821658   4.343   1.871   8.173  0.1713 -0.2749  0.1459
  188SAPI  H18R21659   4.374   1.946   8.249 -1.3289  0.6670 -0.1388
  188SAPI  H18S21660   4.355   1.769   8.217 -0.5977 -0.9954 -1.2643
  188SAPI  C21921661   4.197   1.882   8.149 -0.6447  0.1325  0.7397
  188SAPI  H19R21662   4.164   1.796   8.086  0.7875  1.0478 -1.3823
  188SAPI  H19S21663   4.174   1.974   8.090  0.6216  0.9890  1.5281
  188SAPI  C22021664   4.108   1.872   8.274  0.2088 -0.2070  0.2962
  188SAPI  H20R21665   4.150   1.796   8.344  0.3777 -0.4655 -0.0818
  188SAPI  H20S21666   4.006   1.844   8.241 -0.3018  2.2908 -0.4956
  188SAPI  H20T21667   4.100   1.963   8.337  3.5670  1.2229 -1.0704
  188SAPI   C3321668   5.205   2.380   6.911  0.3941 -0.1511  0.0279
  188SAPI   H3X21669   5.233   2.483   6.943  1.2287 -0.8385  1.5969
  188SAPI   H3Y21670   5.288   2.307   6.919 -0.2988 -0.9985 -0.3786
  188SAPI   C3421671   5.096   2.325   6.998 -0.8452 -0.2598  0.3437
  188SAPI   H4X21672   5.061   2.228   6.957 -0.0687 -0.4698  0.1602
  188SAPI   H4Y21673   5.006   2.389   7.001  0.4579  1.7024 -0.3007
  188SAPI   C3521674   5.145   2.295   7.141 -0.3291 -0.0391 -0.5473
  188SAPI   H5X21675   5.178   2.386   7.196  0.5118 -0.5668 -0.1628
  188SAPI   H5Y21676   5.222   2.216   7.138  0.3072  0.5629 -0.4065
  188SAPI   C3621677   5.036   2.234   7.222 -0.4354  0.3271 -0.5138
  188SAPI   H6X21678   4.991   2.158   7.154  0.6278  0.6025 -1.5573
  188SAPI   H6Y21679   4.960   2.314   7.235  0.1408  0.8502 -0.3248
  188SAPI   C3721680   5.083   2.183   7.358 -0.3065  0.1358 -0.1184
  188SAPI   H7X21681   5.115   2.274   7.413  0.1926 -0.2078  0.1641
  188SAPI   H7Y21682   5.174   2.120   7.350 -0.6781 -1.1304  3.7016
  188SAPI   C3821683   4.980   2.088   7.423  0.4914 -0.2746 -0.6844
  188SAPI   H8X21684   4.948   2.006   7.355  2.3213  0.5527 -2.6627
  188SAPI   H8Y21685   4.890   2.151   7.444  0.3784 -0.1335 -1.5375
  188SAPI   C3921686   5.025   2.031   7.561 -0.3768 -0.6185  0.3294
  188SAPI   H9X21687   5.129   1.992   7.561 -1.1918 -2.9962 -0.4132
  188SAPI   H9Y21688   4.968   1.936   7.576 -0.2478 -1.4610 -3.4146
  188SAPI  C31021689   4.989   2.126   7.673 -0.3629 -0.6021  0.5108
  188SAPI  H10X21690   4.897   2.181   7.644 -0.3423 -0.8494 -0.0247
  188SAPI  H10Y21691   5.063   2.208   7.668 -1.2130  0.3580  2.4566
  188SAPI  C31121692   4.958   2.053   7.807 -0.0168 -0.7832  0.1847
  188SAPI  H11X21693   5.046   1.986   7.818  0.9627  0.2772 -0.8527
  188SAPI  H11Y21694   4.866   1.998   7.778 -0.7897  1.0047 -0.8778
  188SAPI  C31221695   4.936   2.142   7.932 -0.1618 -0.1718  0.0843
  188SAPI  H12X21696   4.847   2.206   7.913 -0.3520 -0.3235  0.4498
  188SAPI  H12Y21697   5.020   2.214   7.928 -0.0423 -0.0608  2.5982
  188SAPI  C31321698   4.927   2.061   8.065  0.0362  0.0649  0.0750
  188SAPI  H13X21699   4.833   2.003   8.073  1.0488 -1.5088  1.1963
  188SAPI  H13Y21700   4.922   2.125   8.156 -1.0915 -0.2880  0.2735
  188SAPI  C31421701   5.048   1.969   8.087 -0.2048 -0.4174 -0.2203
  188SAPI  H14X21702   5.141   2.030   8.080  1.2936 -2.5384  0.2403
  188SAPI  H14Y21703   5.066   1.895   8.006 -1.2331 -0.1341 -0.7254
  188SAPI  C31521704   5.051   1.894   8.217  0.1524 -0.0049 -0.0066
  188SAPI  H15X21705   5.032   1.962   8.302  2.2940  0.1701  0.3639
  188SAPI  H15Y21706   5.153   1.853   8.234  0.2627  0.9479  1.7605
  188SAPI  C31621707   4.947   1.773   8.215  0.0024  0.4557  0.4743
  188SAPI  H16X21708   4.969   1.706   8.129  0.0312  0.5802  0.3837
  188SAPI  H16Y21709   4.844   1.812   8.197  0.3552  0.8386 -0.8199
  188SAPI  C31721710   4.946   1.687   8.338 -0.2980 -0.2045 -0.0139
  188SAPI  H17X21711   4.926   1.741   8.433  0.5116 -0.0754  0.0939
  188SAPI  H17Y21712   5.049   1.648   8.357 -0.8807 -0.7560  2.2597
  188SAPI  C31821713   4.853   1.561   8.327 -0.0834 -0.0373  0.0183
  188SAPI  H18X21714   4.878   1.485   8.404  0.0417 -0.7597 -0.7245
  188SAPI  H18Y21715   4.871   1.498   8.237 -0.3072 -0.3518  0.1916
  188SAPI  H18Z21716   4.748   1.596   8.334 -0.0160 -0.0579  1.4334
  189POPC     N21717   5.073   0.790  10.955  0.4619 -0.0875  0.0996
  189POPC   C1221718   5.105   0.892  11.054 -0.0301  0.3120  0.4256
  189POPC  H12A21719   5.146   0.851  11.144 -1.2001  1.4779  1.5262
  189POPC  H12B21720   5.007   0.930  11.080  0.2494  0.3725  1.4046
  189POPC   C1321721   4.987   0.695  11.038  0.0963  0.2867  0.2386
  189POPC  H13A21722   5.038   0.657  11.126  4.4760  2.0642 -1.2605
  189POPC  H13B21723   4.892   0.737  11.068  1.2266  2.5788  0.7988
  189POPC  H13C21724   4.955   0.606  10.985 -0.8811  1.1932 -0.7301
  189POPC   C1421725   4.989   0.847  10.846 -0.0222  0.1339 -0.0808
  189POPC  H14A21726   4.902   0.894  10.890  1.3013  1.2947  1.3985
  189POPC  H14B21727   5.044   0.922  10.791  0.4234  0.5515  0.9128
  189POPC  H14C21728   4.956   0.772  10.775  1.0870 -0.4282 -0.0187
  189POPC   C1521729   5.193   0.732  10.898 -1.0904  0.6119  0.1017
  189POPC  H15A21730   5.269   0.709  10.972 -0.6495  0.9249 -0.2415
  189POPC  H15B21731   5.235   0.804  10.828 -1.7839  0.0184 -0.9428
  189POPC  H15C21732   5.169   0.646  10.838 -1.0072  1.2048 -0.8180
  189POPC   C1121733   5.204   1.001  11.005 -0.1391 -0.3839  0.4789
  189POPC  H11A21734   5.304   0.966  10.973  1.2272  2.1971  1.6403
  189POPC  H11B21735   5.225   1.070  11.089 -1.9076  2.4280 -1.2354
  189POPC     P21736   5.225   1.150  10.784 -0.0808  0.2846 -0.2378
  189POPC   O1321737   5.262   1.038  10.690 -0.2301  0.1546 -0.2720
  189POPC   O1421738   5.335   1.242  10.836 -0.7641 -0.3180  0.1011
  189POPC   O1221739   5.143   1.080  10.897 -0.1839  0.4613 -0.0075
  189POPC   O1121740   5.116   1.247  10.716 -0.5574  0.2234  0.4406
  189POPC    C121741   4.979   1.214  10.689 -0.5663  0.5926  0.3567
  189POPC    HA21742   4.933   1.315  10.682  0.1222  1.1370  2.7127
  189POPC    HB21743   4.939   1.146  10.767 -0.7814 -0.6231 -0.7923
  189POPC    C221744   4.972   1.139  10.553 -0.0347 -0.6037  0.0869
  189POPC    HS21745   5.031   1.045  10.558  0.7080 -0.1259  0.4461
  189POPC   O2121746   5.026   1.217  10.443 -0.1807 -0.3593  0.3164
  189POPC   C2121747   5.100   1.149  10.353  0.0960  0.6772 -0.2895
  189POPC   O2221748   5.128   1.030  10.346  1.1265 -0.2208  0.1902
  189POPC   C2221749   5.132   1.248  10.238 -0.2898 -0.2126 -0.2584
  189POPC   H2R21750   5.197   1.326  10.283 -0.7175 -0.8183  1.4652
  189POPC   H2S21751   5.039   1.296  10.201 -0.8440 -1.4983 -0.5935
  189POPC    C321752   4.825   1.101  10.519 -0.3145 -0.3080 -0.4389
  189POPC    HX21753   4.763   1.192  10.505  0.7544  0.6034  0.5326
  189POPC    HY21754   4.779   1.043  10.602  2.0548 -2.1977 -0.3170
  189POPC   O3121755   4.811   1.016  10.402 -0.1083  0.4549  0.4013
  189POPC   C3121756   4.865   0.896  10.417 -0.6418  0.1592 -0.0857
  189POPC   O3221757   4.913   0.853  10.524  0.2677  0.6115  0.5770
  189POPC   C3221758   4.857   0.814  10.296 -0.6997  0.2148 -0.4386
  189POPC   H2X21759   4.843   0.883  10.210  0.9462  0.2579 -0.6962
  189POPC   H2Y21760   4.766   0.750  10.309 -2.5103  2.7277  0.0777
  189POPC   C2321761   5.207   1.188  10.113  0.3675  0.6382 -0.0722
  189POPC   H3R21762   5.152   1.100  10.074  0.0504  1.0122 -0.4825
  189POPC   H3S21763   5.306   1.147  10.144  0.5371 -1.5921 -3.1095
  189POPC   C2421764   5.220   1.292   9.996 -0.5192 -0.6183  0.1769
  189POPC   H4R21765   5.286   1.373  10.033 -0.4755 -0.3107 -0.5562
  189POPC   H4S21766   5.121   1.335   9.973  0.3319  2.5490  1.9087
  189POPC   C2521767   5.283   1.227   9.870  0.0032 -0.4187 -0.2052
  189POPC   H5R21768   5.218   1.148   9.827  0.9848 -0.7032 -1.2337
  189POPC   H5S21769   5.375   1.177   9.907 -0.0591 -1.0569 -0.8830
  189POPC   C2621770   5.323   1.320   9.756 -0.0635  0.3359 -0.0895
  189POPC   H6R21771   5.367   1.254   9.678 -1.0079 -0.9241  0.4322
  189POPC   H6S21772   5.379   1.412   9.785 -0.6236  0.3991  0.8233
  189POPC   C2721773   5.197   1.369   9.689  0.0607  0.1746  0.2819
  189POPC   H7R21774   5.165   1.456   9.750  1.4654  0.5969  0.4668
  189POPC   H7S21775   5.117   1.292   9.696  0.8196 -0.6435  0.1027
  189POPC   C2821776   5.214   1.406   9.542 -0.2321 -0.5038 -0.1743
  189POPC   H8R21777   5.268   1.321   9.495  0.2421  0.1320 -0.7964
  189POPC   H8S21778   5.284   1.492   9.540 -1.9265  0.9761  1.0602
  189POPC   C2921779   5.097   1.442   9.460 -0.2688 -0.0237 -0.4141
  189POPC   H9121780   5.078   1.550   9.457 -1.1531 -0.1580  0.0119
  189POPC  C21021781   5.024   1.347   9.402  0.7184  0.3030  0.5881
  189POPC  H10121782   4.931   1.368   9.347  0.9184 -0.2308  0.0300
  189POPC  C21121783   5.051   1.196   9.407  0.4091 -0.0959  0.3197
  189POPC  H11R21784   5.063   1.158   9.511  0.4666  1.0346  0.7418
  189POPC  H11S21785   5.150   1.181   9.360 -0.9626 -1.2226 -2.4438
  189POPC  C21221786   4.945   1.109   9.328 -0.3852 -0.2418 -0.4380
  189POPC  H12R21787   4.843   1.147   9.350  0.2348  0.8743  0.5874
  189POPC  H12S21788   4.949   1.002   9.357  0.7745 -0.2249 -0.4811
  189POPC  C21321789   4.960   1.121   9.178  0.0326  0.2673  0.6834
  189POPC  H13R21790   5.060   1.086   9.144 -1.4341  0.2673 -4.4695
  189POPC  H13S21791   4.948   1.227   9.143  1.3977  0.0834 -0.4307
  189POPC  C21421792   4.855   1.039   9.102 -0.2868  0.4969  0.2639
  189POPC  H14R21793   4.754   1.074   9.130 -0.5460 -0.0173 -0.0162
  189POPC  H14S21794   4.854   0.930   9.126  0.6674  0.4576  0.1731
  189POPC  C21521795   4.877   1.049   8.949 -0.5360  0.1343  0.0548
  189POPC  H15R21796   4.971   0.999   8.916 -0.0148  0.9568  0.2747
  189POPC  H15S21797   4.881   1.158   8.927 -0.2049  0.5916  2.1746
  189POPC  C21621798   4.759   0.995   8.866 -0.2578  0.0844  0.4166
  189POPC  H16R21799   4.663   1.043   8.895  0.7246  1.4712  1.5410
  189POPC  H16S21800   4.751   0.884   8.871  0.2339  0.0435  0.3396
  189POPC  C21721801   4.785   1.014   8.710 -0.2895  1.0226  0.8682
  189POPC  H17R21802   4.878   0.961   8.681 -0.5524  1.3173 -0.5698
  189POPC  H17S21803   4.808   1.122   8.701  2.4135  0.3902 -0.6703
  189POPC  C21821804   4.676   0.962   8.615 -0.0780  0.4693  0.5075
  189POPC  H18R21805   4.703   0.950   8.508 -0.7485 -0.8111  0.4527
  189POPC  H18S21806   4.578   1.013   8.624  0.4125  1.3293  1.1123
  189POPC  H18T21807   4.653   0.859   8.651 -0.0918 -0.7740 -2.7481
  189POPC   C3321808   4.990   0.733  10.269  0.0708 -0.3360  0.6026
  189POPC   H3X21809   5.012   0.672  10.359 -1.7069 -3.4105 -0.8893
  189POPC   H3Y21810   5.061   0.806  10.225 -1.8673 -0.1869 -2.6290
  189POPC   C3421811   4.975   0.624  10.157  0.0697 -0.0797 -0.4807
  189POPC   H4X21812   4.900   0.554  10.200  0.5930 -0.6892 -0.5344
  189POPC   H4Y21813   5.074   0.574  10.148 -0.3235 -1.3053  1.3567
  189POPC   C3521814   4.931   0.685  10.023 -0.4028 -0.2296  0.1122
  189POPC   H5X21815   5.006   0.764  10.005  0.4477 -0.7055  1.4151
  189POPC   H5Y21816   4.829   0.725  10.044 -1.0957 -2.4395  1.4272
  189POPC   C3621817   4.921   0.585   9.909  0.5763  0.2419  0.2213
  189POPC   H6X21818   4.841   0.509   9.917  0.2455  0.2894 -2.0416
  189POPC   H6Y21819   5.016   0.527   9.902 -0.0529 -0.8123  0.3426
  189POPC   C3721820   4.910   0.638   9.770  0.2774  0.3466 -0.0209
  189POPC   H7X21821   4.983   0.721   9.762  0.7103  0.0258  0.5399
  189POPC   H7Y21822   4.807   0.679   9.763  0.9884  1.9622 -1.9218
  189POPC   C3821823   4.937   0.532   9.665  0.5275  0.4375  0.0570
  189POPC   H8X21824   4.865   0.448   9.677  1.0600 -0.2160 -1.1631
  189POPC   H8Y21825   5.033   0.478   9.682  0.0625 -0.8042 -1.0809
  189POPC   C3921826   4.945   0.592   9.526  0.2174 -0.4550  0.0858
  189POPC   H9X21827   5.028   0.666   9.521 -0.7303  0.6384  0.1999
  189POPC   H9Y21828   4.852   0.648   9.503  0.6313 -0.0382 -0.5943
  189POPC  C31021829   4.967   0.481   9.426  1.1444 -0.7930  0.2691
  189POPC  H10X21830   4.926   0.388   9.472 -1.1587  0.4550  0.8965
  189POPC  H10Y21831   5.071   0.467   9.390  2.2611  1.5051  2.3473
  189POPC  C31121832   4.877   0.502   9.303 -0.7029  0.1430  0.9220
  189POPC  H11X21833   4.768   0.504   9.326 -0.9284 -0.5612 -0.0302
  189POPC  H11Y21834   4.877   0.409   9.243 -2.9559  0.0895  0.9124
  189POPC  C31221835   4.914   0.621   9.204 -0.5701  0.4204 -0.0232
  189POPC  H12X21836   4.944   0.715   9.254  2.5852 -0.4916  0.0339
  189POPC  H12Y21837   4.817   0.648   9.158  0.0996  0.8913 -1.1914
  189POPC  C31321838   5.024   0.592   9.103 -0.2370  0.6709 -0.0431
  189POPC  H13X21839   5.022   0.483   9.079 -2.2939  0.7964 -0.5907
  189POPC  H13Y21840   5.124   0.619   9.145  0.3273  0.5242 -1.2354
  189POPC  C31421841   5.015   0.674   8.978 -0.2726  0.1460 -0.2560
  189POPC  H14X21842   5.045   0.779   8.998  0.6236 -0.0781 -0.3884
  189POPC  H14Y21843   4.915   0.666   8.930 -0.9743 -0.8956  1.2929
  189POPC  C31521844   5.111   0.613   8.869  0.5407  0.0067 -0.1392
  189POPC  H15X21845   5.078   0.514   8.831  2.5087 -0.2620 -1.2850
  189POPC  H15Y21846   5.213   0.597   8.910  0.7204  1.6142  0.0762
  189POPC  C31621847   5.127   0.712   8.753 -0.1937  0.1119  0.0205
  189POPC  H16X21848   5.028   0.751   8.720 -1.0065 -0.6837  1.4119
  189POPC  H16Y21849   5.166   0.661   8.663 -0.7755  0.6552 -0.5525
  189POPC  H16Z21850   5.182   0.806   8.773  0.2866  0.2780 -1.9499
  190POPC     N21851   5.583   6.776  11.097  0.6592  0.6005 -0.2336
  190POPC   C1221852   5.727   6.777  11.038  0.1091 -0.2330 -0.7005
  190POPC  H12A21853   5.798   6.733  11.106  1.1440  1.9916 -0.2409
  190POPC  H12B21854   5.754   6.882  11.036 -0.4782  0.0498  2.0094
  190POPC   C1321855   5.566   6.865  11.217 -0.1386 -0.6456  0.3561
  190POPC  H13A21856   5.631   6.836  11.298  0.6264  0.0393  0.0018
  190POPC  H13B21857   5.583   6.969  11.192 -1.4090 -0.4479  0.2438
  190POPC  H13C21858   5.464   6.859  11.251 -0.1387  1.9003  1.0084
  190POPC   C1421859   5.480   6.830  10.989 -0.7284 -0.2795 -0.5798
  190POPC  H14A21860   5.503   6.778  10.897 -2.6302 -2.1879 -0.0527
  190POPC  H14B21861   5.377   6.820  11.019 -0.7778 -0.2188 -0.7276
  190POPC  H14C21862   5.494   6.937  10.977 -0.8899 -0.2318 -0.3342
  190POPC   C1521863   5.524   6.643  11.147 -0.7459 -0.6376  0.8955
  190POPC  H15A21864   5.594   6.614  11.224  2.7377  0.1878 -1.7126
  190POPC  H15B21865   5.532   6.571  11.067  2.0214  2.2944 -1.7557
  190POPC  H15C21866   5.421   6.649  11.180 -1.1900 -1.0982 -0.3467
  190POPC   C1121867   5.752   6.711  10.903  0.1097  0.5242  0.1303
  190POPC  H11A21868   5.861   6.690  10.899 -0.0877 -0.4675 -0.7156
  190POPC  H11B21869   5.709   6.780  10.828 -2.0245 -0.8684 -0.0410
  190POPC     P21870   5.730   6.442  10.919 -0.3243 -0.0588 -0.0353
  190POPC   O1321871   5.618   6.355  10.953  0.3549  0.5354  0.3795
  190POPC   O1421872   5.837   6.452  11.021 -0.0176 -0.1191  0.7827
  190POPC   O1221873   5.681   6.589  10.891  0.3413  0.3726  0.3690
  190POPC   O1121874   5.794   6.394  10.785 -0.5739 -0.2183  0.0981
  190POPC    C121875   5.929   6.432  10.757 -0.2089  0.1064 -0.7839
  190POPC    HA21876   5.996   6.457  10.842  1.9564 -0.6092 -2.1950
  190POPC    HB21877   5.914   6.521  10.693  0.3721  1.8093  1.3468
  190POPC    C221878   6.014   6.317  10.680 -0.3234 -0.2749 -0.1040
  190POPC    HS21879   6.118   6.351  10.665  0.3212 -2.4557 -0.8999
  190POPC   O2121880   5.954   6.299  10.548 -0.4645  0.6851 -0.3027
  190POPC   C2121881   5.946   6.401  10.465  0.6024  0.1283 -0.0104
  190POPC   O2221882   6.003   6.506  10.479 -0.4038 -0.1830  0.2544
  190POPC   C2221883   5.876   6.347  10.336 -1.0985 -0.3176 -0.4614
  190POPC   H2R21884   5.767   6.365  10.346 -1.5568 -3.2727  0.7074
  190POPC   H2S21885   5.875   6.236  10.341 -2.1608 -0.2462  1.9845
  190POPC    C321886   6.022   6.188  10.753 -0.7635 -0.5797  1.1018
  190POPC    HX21887   5.924   6.137  10.766 -1.3649 -0.1198 -1.1379
  190POPC    HY21888   6.054   6.194  10.859  0.0956 -0.2161  0.8282
  190POPC   O3121889   6.122   6.102  10.691 -0.0316 -0.1840 -0.4381
  190POPC   C3121890   6.076   6.016  10.604 -0.2975 -0.1494 -0.0637
  190POPC   O3221891   5.959   5.979  10.588 -0.0168  0.0594 -0.3097
  190POPC   C3221892   6.196   5.941  10.544  0.0869 -0.0839 -0.1518
  190POPC   H2X21893   6.161   5.875  10.462 -0.2701 -0.2033  0.0928
  190POPC   H2Y21894   6.229   5.867  10.620  1.3335  0.1344 -0.4606
  190POPC   C2321895   5.936   6.387  10.197  0.4376  0.2865 -0.0783
  190POPC   H3R21896   6.038   6.342  10.200 -0.1398 -1.1357 -1.0546
  190POPC   H3S21897   5.961   6.496  10.194  1.4313  0.0415 -1.4759
  190POPC   C2421898   5.852   6.337  10.075  0.3846  0.2501 -0.0442
  190POPC   H4R21899   5.872   6.408   9.992  1.7683  1.9203  1.6137
  190POPC   H4S21900   5.751   6.333  10.122  0.5472 -0.5918  0.2410
  190POPC   C2521901   5.902   6.193  10.030  0.0263  0.0779  0.1450
  190POPC   H5R21902   5.866   6.121  10.106 -0.4421 -0.6603 -0.7499
  190POPC   H5S21903   6.012   6.203  10.029  0.0952 -0.6287 -0.6894
  190POPC   C2621904   5.843   6.152   9.894  0.3205  0.4058 -0.1857
  190POPC   H6R21905   5.855   6.232   9.818  0.0180  0.5738 -0.0554
  190POPC   H6S21906   5.734   6.148   9.914  0.4820  1.2214  0.8939
  190POPC   C2721907   5.901   6.025   9.854 -0.2705  0.5938  0.4532
  190POPC   H7R21908   5.887   5.957   9.940 -1.6609 -0.7974 -0.8025
  190POPC   H7S21909   6.011   6.026   9.833 -0.2903 -2.4942 -0.3219
  190POPC   C2821910   5.846   5.967   9.722 -0.4850  0.4709  0.1734
  190POPC   H8R21911   5.922   5.914   9.660  0.2205  2.4959 -0.7867
  190POPC   H8S21912   5.819   6.045   9.647  1.1871  0.5786 -0.3584
  190POPC   C2921913   5.729   5.872   9.735 -0.5853 -0.0120 -0.2408
  190POPC   H9121914   5.676   5.864   9.831  1.5667 -1.6503  0.8893
  190POPC  C21021915   5.694   5.790   9.635 -0.6355  0.0521  0.1332
  190POPC  H10121916   5.603   5.727   9.637  0.9004 -2.8628 -4.7894
  190POPC  C21121917   5.758   5.785   9.495  0.0832 -0.1395  0.1293
  190POPC  H11R21918   5.791   5.683   9.463  2.4012  1.1102 -1.8077
  190POPC  H11S21919   5.847   5.850   9.486 -1.1333  1.4191 -1.1630
  190POPC  C21221920   5.661   5.845   9.389  0.0601  0.9219 -0.0571
  190POPC  H12R21921   5.631   5.950   9.407  1.9512  1.5393 -0.2633
  190POPC  H12S21922   5.572   5.780   9.378  0.5470  0.3660 -0.8720
  190POPC  C21321923   5.724   5.840   9.246 -0.0417 -0.0054 -0.3357
  190POPC  H13R21924   5.751   5.733   9.234 -0.7525 -0.1568 -0.6056
  190POPC  H13S21925   5.828   5.878   9.236  0.9882 -2.7081 -0.6881
  190POPC  C21421926   5.636   5.888   9.130 -0.4533 -0.4716 -0.5615
  190POPC  H14R21927   5.628   5.999   9.130  1.0041 -0.3391 -1.1004
  190POPC  H14S21928   5.537   5.848   9.161 -1.7666  1.6855 -1.7298
  190POPC  C21521929   5.676   5.838   8.993  0.3093 -0.0083 -0.7506
  190POPC  H15R21930   5.700   5.729   8.991  3.7259  0.4752  2.5777
  190POPC  H15S21931   5.771   5.888   8.966 -0.7115  2.1224 -0.6169
  190POPC  C21621932   5.569   5.865   8.888 -0.6133 -0.7290 -0.9180
  190POPC  H16R21933   5.478   5.806   8.910 -0.2399 -0.9313  0.2046
  190POPC  H16S21934   5.617   5.828   8.795  1.1769  0.1098 -0.3787
  190POPC  C21721935   5.532   6.010   8.881 -0.6363 -0.2960 -0.6935
  190POPC  H17R21936   5.620   6.069   8.847 -1.4267  0.9144 -0.6816
  190POPC  H17S21937   5.501   6.049   8.980 -1.1337 -1.2058 -0.4870
  190POPC  C21821938   5.416   6.042   8.788 -0.3556  0.0855  0.0231
  190POPC  H18R21939   5.325   5.983   8.811 -1.1985  2.0196  2.0246
  190POPC  H18S21940   5.441   6.024   8.681 -1.0490 -0.2364 -0.0870
  190POPC  H18T21941   5.389   6.150   8.798 -1.0200 -0.0927  0.2008
  190POPC   C3321942   6.311   6.041  10.505  0.5393 -0.0538  0.2466
  190POPC   H3X21943   6.399   5.985  10.466 -0.9223 -1.1161 -1.6983
  190POPC   H3Y21944   6.330   6.091  10.602 -2.3002  0.3543  0.6737
  190POPC   C3421945   6.261   6.139  10.395  0.2393  0.0713 -0.2200
  190POPC   H4X21946   6.346   6.210  10.388  2.1704 -2.1767 -0.5833
  190POPC   H4Y21947   6.167   6.190  10.426 -0.6758 -2.6642  1.9041
  190POPC   C3521948   6.230   6.076  10.260  0.0968 -0.3077 -0.0975
  190POPC   H5X21949   6.146   6.142  10.229 -0.1604 -0.2050  0.8109
  190POPC   H5Y21950   6.186   5.974  10.269  0.8265 -0.4727  2.3727
  190POPC   C3621951   6.331   6.093  10.154 -0.2378  1.0490  0.0569
  190POPC   H6X21952   6.421   6.038  10.189  0.5328  2.0213 -0.3349
  190POPC   H6Y21953   6.367   6.197  10.139 -0.6221  1.0495 -0.9639
  190POPC   C3721954   6.287   6.025  10.017 -0.1675  0.1451  0.6232
  190POPC   H7X21955   6.229   6.104   9.965  0.6764  1.4889  1.6545
  190POPC   H7Y21956   6.210   5.945  10.024 -0.2764 -0.1464 -2.5740
  190POPC   C3821957   6.395   5.989   9.918 -0.2871  0.8288 -0.3437
  190POPC   H8X21958   6.459   5.914   9.970  1.0118  1.8442 -0.4285
  190POPC   H8Y21959   6.461   6.076   9.896 -3.2579  2.8425 -1.9604
  190POPC   C3921960   6.350   5.913   9.791  0.2944 -0.0599  0.6851
  190POPC   H9X21961   6.272   5.841   9.824 -1.6532  0.6648 -2.0705
  190POPC   H9Y21962   6.438   5.859   9.750  0.0098 -1.7059  2.1388
  190POPC  C31021963   6.290   6.007   9.686 -0.4165 -0.2632  0.1507
  190POPC  H10X21964   6.334   6.109   9.685  0.8484 -0.7883 -0.3431
  190POPC  H10Y21965   6.181   6.024   9.701  0.2279  3.3706  1.8328
  190POPC  C31121966   6.288   5.946   9.540 -0.6035  0.1720 -0.0209
  190POPC  H11X21967   6.271   5.836   9.540 -0.3846  0.1001 -1.8000
  190POPC  H11Y21968   6.394   5.960   9.508 -0.6227  0.6993  0.1355
  190POPC  C31221969   6.202   6.017   9.427 -1.1561  0.1190  0.2242
  190POPC  H12X21970   6.250   6.117   9.412  2.0741 -1.3261  0.0323
  190POPC  H12Y21971   6.097   6.030   9.460 -1.4288 -0.8174 -0.2401
  190POPC  C31321972   6.221   5.939   9.299 -0.5501  0.5508  0.4248
  190POPC  H13X21973   6.329   5.916   9.281  0.3255  1.0210  4.3051
  190POPC  H13Y21974   6.203   6.007   9.212  0.4517 -0.6530 -0.7767
  190POPC  C31421975   6.123   5.822   9.276  0.2177 -0.9894  0.0654
  190POPC  H14X21976   6.070   5.820   9.179 -0.2902  1.3496  0.2406
  190POPC  H14Y21977   6.031   5.835   9.338 -0.0150 -2.4990  0.0921
  190POPC  C31521978   6.179   5.675   9.307  0.0487 -0.9805  0.1687
  190POPC  H15X21979   6.206   5.665   9.415 -0.0243  0.8885  0.3910
  190POPC  H15Y21980   6.258   5.663   9.230  0.5193  0.7395  0.3383
  190POPC  C31621981   6.074   5.565   9.274 -0.1743 -0.7285 -0.5502
  190POPC  H16X21982   6.109   5.461   9.290  1.2421 -0.4131 -1.3955
  190POPC  H16Y21983   6.055   5.586   9.166 -0.9166 -1.2561 -0.5257
  190POPC  H16Z21984   5.980   5.586   9.330  0.1959  1.6410 -0.7170
  191POPC     N21985   6.304   6.484   6.184 -0.3657  0.2038 -0.3135
  191POPC   C1221986   6.320   6.629   6.173 -0.4089  0.0681 -0.2008
  191POPC  H12A21987   6.324   6.654   6.068  0.3536 -0.9347 -0.4219
  191POPC  H12B21988   6.419   6.644   6.212 -0.7504 -0.4146  0.9095
  191POPC   C1321989   6.192   6.443   6.090 -0.2675 -0.3873 -0.6351
  191POPC  H13A21990   6.112   6.515   6.093  0.1699  0.0958 -0.5235
  191POPC  H13B21991   6.233   6.442   5.990 -2.4334 -0.9277 -1.5897
  191POPC  H13C21992   6.147   6.348   6.116  2.1951 -1.5533 -0.3891
  191POPC   C1421993   6.426   6.411   6.138 -0.3744  0.1228  0.1553
  191POPC  H14A21994   6.509   6.427   6.206  1.2389  0.1064 -1.7426
  191POPC  H14B21995   6.409   6.305   6.129  1.4763 -0.4963  2.8569
  191POPC  H14C21996   6.456   6.436   6.038 -2.0843  1.8461  0.0104
  191POPC   C1521997   6.271   6.446   6.328  0.1299 -0.3800  0.4714
  191POPC  H15A21998   6.168   6.473   6.346 -0.0804  0.0319 -1.1864
  191POPC  H15B21999   6.342   6.490   6.397 -0.1245  0.0184  0.4826
  191POPC  H15C22000   6.272   6.339   6.339  0.7585 -0.5807 -1.2656
  191POPC   C1122001   6.212   6.715   6.247  1.2743 -0.1460  0.3822
  191POPC  H11A22002   6.230   6.817   6.208  0.8886 -0.9558 -2.1219
  191POPC  H11B22003   6.233   6.714   6.356 -1.9393 -0.4945  1.1197
  191POPC     P22004   5.953   6.738   6.285  0.0278  0.1033  0.1470
  191POPC   O1322005   5.842   6.658   6.228  0.2131 -0.2556 -0.2358
  191POPC   O1422006   5.939   6.885   6.267  0.7790  0.1925  0.2009
  191POPC   O1222007   6.081   6.678   6.208  0.0323 -0.3622  0.0251
  191POPC   O1122008   5.978   6.706   6.446  0.3570  0.0316 -0.0008
  191POPC    C122009   5.994   6.569   6.485 -0.5046  0.1894 -0.0796
  191POPC    HA22010   6.092   6.554   6.534 -0.1933 -0.9036 -1.0057
  191POPC    HB22011   5.994   6.501   6.397  1.5516  1.1221 -0.8599
  191POPC    C222012   5.871   6.526   6.568 -0.2475  0.3502 -0.5442
  191POPC    HS22013   5.777   6.547   6.512  0.0263  1.8064 -0.4713
  191POPC   O2122014   5.875   6.595   6.694  0.3202 -0.8075 -0.3774
  191POPC   C2122015   5.810   6.710   6.697  0.3871 -0.2827 -0.0295
  191POPC   O2222016   5.717   6.749   6.625  0.0528  0.5665 -0.2285
  191POPC   C2222017   5.864   6.791   6.821 -0.1149 -0.3049  0.0829
  191POPC   H2R22018   5.817   6.891   6.818  0.3909 -0.0997 -1.4391
  191POPC   H2S22019   5.972   6.820   6.818 -0.3353  0.5153 -0.0738
  191POPC    C322020   5.873   6.366   6.602 -0.0182 -0.1268 -0.7173
  191POPC    HX22021   5.977   6.340   6.628 -0.3804 -0.9693 -0.0549
  191POPC    HY22022   5.850   6.314   6.506  2.2138  0.4997 -1.6494
  191POPC   O3122023   5.778   6.328   6.710 -0.1674  0.1363  0.1877
  191POPC   C3122024   5.660   6.285   6.666  0.3448  0.9139 -0.3887
  191POPC   O3222025   5.633   6.264   6.550 -0.7671 -0.0244  0.5475
  191POPC   C3222026   5.576   6.248   6.789  0.1890  0.5572 -0.4756
  191POPC   H2X22027   5.635   6.187   6.861 -0.0946  1.6698  0.7341
  191POPC   H2Y22028   5.492   6.179   6.767  0.0972  0.4287  0.2449
  191POPC   C2322029   5.821   6.733   6.959 -0.0230  0.2400 -0.0560
  191POPC   H3R22030   5.900   6.663   6.994 -0.2987  0.7386  1.6650
  191POPC   H3S22031   5.729   6.670   6.952  0.5397 -0.8731  1.9182
  191POPC   C2422032   5.807   6.833   7.069 -0.0762 -1.2461 -0.2021
  191POPC   H4R22033   5.733   6.910   7.038  1.2132  0.6523  1.1870
  191POPC   H4S22034   5.900   6.891   7.053 -0.1368 -1.0598  0.1000
  191POPC   C2522035   5.774   6.795   7.210 -0.8595 -0.2367 -0.3535
  191POPC   H5R22036   5.849   6.724   7.251 -0.0342 -0.1020 -1.5654
  191POPC   H5S22037   5.678   6.739   7.221 -1.1015 -0.1049 -1.6364
  191POPC   C2622038   5.776   6.919   7.300 -0.1018 -0.8775  0.2312
  191POPC   H6R22039   5.700   6.986   7.255  0.2352 -0.7493 -0.1601
  191POPC   H6S22040   5.878   6.964   7.304 -1.1541  1.6091  0.9785
  191POPC   C2722041   5.727   6.876   7.441  0.4102 -0.3726  0.4076
  191POPC   H7R22042   5.798   6.795   7.468  0.2021 -0.8412 -0.4099
  191POPC   H7S22043   5.625   6.832   7.434 -0.0107  0.4905  0.9823
  191POPC   C2822044   5.729   6.994   7.547  0.3230  0.7068  0.1528
  191POPC   H8R22045   5.682   7.084   7.503  0.7260  0.5364 -0.6381
  191POPC   H8S22046   5.837   7.006   7.570  1.4233 -1.3470 -3.1816
  191POPC   C2922047   5.646   6.959   7.665  0.2488  0.2624  0.1248
  191POPC   H9122048   5.536   6.962   7.660  0.1671  2.4593  1.6259
  191POPC  C21022049   5.695   6.920   7.780  0.3180 -0.2463 -1.4292
  191POPC  H10122050   5.619   6.898   7.856 -1.8784 -1.1239 -3.7249
  191POPC  C21122051   5.839   6.922   7.829  0.1207  0.1470 -0.5207
  191POPC  H11R22052   5.904   6.955   7.745  0.5019 -0.9080 -0.6558
  191POPC  H11S22053   5.871   6.818   7.852  0.9798  0.7924  1.4798
  191POPC  C21222054   5.862   7.010   7.957 -0.4230 -0.3088 -0.0710
  191POPC  H12R22055   5.835   7.113   7.926 -0.9194 -1.2405 -3.1342
  191POPC  H12S22056   5.970   7.001   7.980 -0.5112 -0.4863  0.2873
  191POPC  C21322057   5.772   6.979   8.071  0.5096  0.3047 -0.4475
  191POPC  H13R22058   5.669   7.019   8.057  0.3797  0.8117  1.5880
  191POPC  H13S22059   5.807   7.032   8.163  0.3581 -1.0508  0.4122
  191POPC  C21422060   5.773   6.834   8.116  0.4039  0.3028 -0.2964
  191POPC  H14R22061   5.872   6.787   8.095 -0.8800 -1.7861 -2.1089
  191POPC  H14S22062   5.704   6.769   8.058  0.1085 -3.1889  3.4528
  191POPC  C21522063   5.732   6.806   8.266  0.2894 -0.2575  0.4662
  191POPC  H15R22064   5.817   6.827   8.334  0.8044  1.6527 -0.6996
  191POPC  H15S22065   5.721   6.696   8.279 -0.4737 -0.0674  1.5337
  191POPC  C21622066   5.601   6.878   8.309  0.4474  0.7831  0.3512
  191POPC  H16R22067   5.531   6.842   8.230  1.0035  2.5561 -1.0270
  191POPC  H16S22068   5.620   6.986   8.291 -0.2262  0.9618  0.6721
  191POPC  C21722069   5.556   6.853   8.456  0.5630 -0.1048  0.7431
  191POPC  H17R22070   5.564   6.744   8.475  0.2670 -0.1321  0.7057
  191POPC  H17S22071   5.455   6.896   8.471  0.8578  0.1412  2.1782
  191POPC  C21822072   5.657   6.919   8.551  0.1881 -0.2415  0.4012
  191POPC  H18R22073   5.746   6.855   8.537  0.2668  0.4384 -3.2548
  191POPC  H18S22074   5.612   6.898   8.651 -0.1177  0.8680  0.5122
  191POPC  H18T22075   5.671   7.029   8.540 -1.6575  0.1078  1.1238
  191POPC   C3322076   5.523   6.382   6.842  0.5896  0.2033  0.1731
  191POPC   H3X22077   5.443   6.419   6.774  1.3181 -0.7577 -1.2615
  191POPC   H3Y22078   5.608   6.454   6.844  0.4692  0.3839 -0.6791
  191POPC   C3422079   5.460   6.374   6.982  0.2897  0.0138  0.0867
  191POPC   H4X22080   5.525   6.307   7.042  0.2329 -0.3805 -0.2860
  191POPC   H4Y22081   5.359   6.327   6.979  0.3044  0.0173 -0.7276
  191POPC   C3522082   5.448   6.510   7.057 -1.2105 -0.0420  0.4272
  191POPC   H5X22083   5.393   6.577   6.988 -0.4461 -0.2089 -0.3637
  191POPC   H5Y22084   5.541   6.568   7.076 -0.9762 -0.4813  0.6385
  191POPC   C3622085   5.377   6.494   7.196  0.0851 -0.1044  0.0624
  191POPC   H6X22086   5.458   6.472   7.268  0.6358  1.5181 -0.0272
  191POPC   H6Y22087   5.289   6.426   7.189 -0.4053  0.6815 -2.3589
  191POPC   C3722088   5.335   6.637   7.244  0.3583  0.1574  0.0418
  191POPC   H7X22089   5.260   6.676   7.173  1.0253 -0.7921 -1.2305
  191POPC   H7Y22090   5.424   6.703   7.232  0.0378  0.6389  0.2669
  191POPC   C3822091   5.290   6.637   7.389 -0.7287  0.8496  0.0187
  191POPC   H8X22092   5.376   6.599   7.447 -1.0151 -1.0343 -0.7173
  191POPC   H8Y22093   5.202   6.572   7.408  0.1384 -0.6291 -0.8509
  191POPC   C3922094   5.272   6.776   7.443  0.2527  0.0793  0.4127
  191POPC   H9X22095   5.205   6.832   7.374  0.2601 -0.4619 -0.0354
  191POPC   H9Y22096   5.366   6.832   7.427 -0.4128  0.7859 -1.2826
  191POPC  C31022097   5.222   6.790   7.586 -0.0842 -0.3202  0.0021
  191POPC  H10X22098   5.122   6.741   7.594  0.9531 -2.5753 -0.1544
  191POPC  H10Y22099   5.212   6.895   7.620  0.7337 -0.3646  0.3956
  191POPC  C31122100   5.315   6.723   7.693 -0.1370  1.0687  0.6171
  191POPC  H11X22101   5.422   6.746   7.681  0.2086 -1.5585 -2.9995
  191POPC  H11Y22102   5.315   6.613   7.678 -0.9038  1.2473 -0.9681
  191POPC  C31222103   5.268   6.744   7.837 -0.3553 -0.6483  0.1851
  191POPC  H12X22104   5.162   6.717   7.857 -1.2712  1.3203 -1.6052
  191POPC  H12Y22105   5.284   6.851   7.865  0.2256 -0.8561  0.6715
  191POPC  C31322106   5.350   6.660   7.930 -0.0523  0.3767 -0.0550
  191POPC  H13X22107   5.460   6.662   7.916  0.2108 -0.9716  1.4704
  191POPC  H13Y22108   5.329   6.551   7.921  1.7008  0.1131 -1.6290
  191POPC  C31422109   5.340   6.706   8.076  0.2876 -0.5536  0.4273
  191POPC  H14X22110   5.372   6.812   8.082 -1.1289 -0.1078  0.3167
  191POPC  H14Y22111   5.418   6.657   8.139  0.6204  1.6198  1.7998
  191POPC  C31522112   5.198   6.700   8.129  0.4075 -0.0342 -0.5654
  191POPC  H15X22113   5.149   6.600   8.120  2.2810 -1.1249  0.7082
  191POPC  H15Y22114   5.134   6.766   8.067  0.6579 -1.4829 -2.4488
  191POPC  C31622115   5.186   6.744   8.273 -0.0463  0.6049  0.0387
  191POPC  H16X22116   5.213   6.663   8.344 -0.7747 -1.5271 -1.9378
  191POPC  H16Y22117   5.082   6.770   8.303  0.0641 -0.8674  1.8588
  191POPC  H16Z22118   5.240   6.838   8.295  1.4274 -0.3209  0.4794
  192POPC     N22119   5.069   3.630   5.922 -0.4353 -0.1252  0.1093
  192POPC   C1222120   5.117   3.587   6.063 -0.2126 -0.7469  0.2786
  192POPC  H12A22121   5.118   3.678   6.123 -0.9041  0.2438 -1.1645
  192POPC  H12B22122   5.219   3.554   6.058  0.0528 -0.3380  2.1790
  192POPC   C1322123   5.183   3.723   5.876  0.1970 -0.4681  0.7107
  192POPC  H13A22124   5.150   3.766   5.783 -2.2210 -0.3448  1.5532
  192POPC  H13B22125   5.214   3.798   5.947 -0.7569  0.8390 -0.2070
  192POPC  H13C22126   5.271   3.660   5.867  0.1733 -0.3198 -0.7498
  192POPC   C1422127   5.037   3.521   5.827  0.1024 -1.1685 -0.2088
  192POPC  H14A22128   5.124   3.493   5.770 -0.2625 -1.4248 -0.6428
  192POPC  H14B22129   5.003   3.439   5.889 -0.0544 -2.3305 -1.7738
  192POPC  H14C22130   4.962   3.549   5.756  2.7522  0.5027 -2.5821
  192POPC   C1522131   4.951   3.721   5.934  0.7714  0.3309  0.5392
  192POPC  H15A22132   4.865   3.659   5.953 -0.7277  2.1924  0.2087
  192POPC  H15B22133   4.918   3.768   5.842  1.4882 -1.6021 -0.7635
  192POPC  H15C22134   4.966   3.794   6.012 -0.2145  0.6952  0.4084
  192POPC   C1122135   5.039   3.479   6.134 -0.0311 -0.1224 -0.0389
  192POPC  H11A22136   4.932   3.511   6.135  0.0715  0.3058  1.9848
  192POPC  H11B22137   5.051   3.472   6.244 -0.4331  1.1219  0.1073
  192POPC     P22138   5.194   3.273   6.117  0.3288 -0.0833 -0.2315
  192POPC   O1322139   5.288   3.304   6.006  0.2117 -0.2652 -0.0310
  192POPC   O1422140   5.156   3.128   6.137 -0.3083 -0.0545 -0.4759
  192POPC   O1222141   5.058   3.349   6.076 -0.0288 -0.7096  0.0381
  192POPC   O1122142   5.239   3.343   6.254 -0.2586  0.4571  0.0052
  192POPC    C122143   5.354   3.422   6.265 -0.1116 -0.3169  0.0957
  192POPC    HA22144   5.361   3.500   6.186  3.9118  0.1326  0.7219
  192POPC    HB22145   5.448   3.369   6.242  0.4726  0.7002  0.0938
  192POPC    C222146   5.384   3.485   6.406 -0.1178 -0.4761 -0.4358
  192POPC    HS22147   5.490   3.514   6.394 -0.2852  1.2569  1.7740
  192POPC   O2122148   5.363   3.405   6.519  0.4044  0.1353 -0.0626
  192POPC   C2122149   5.448   3.300   6.516  0.3521 -1.0587 -0.4422
  192POPC   O2222150   5.555   3.293   6.462  0.0727 -0.2063 -0.1406
  192POPC   C2222151   5.395   3.187   6.602  0.5971 -0.1445  0.1071
  192POPC   H2R22152   5.457   3.099   6.578  0.8816  0.4393 -1.4126
  192POPC   H2S22153   5.289   3.170   6.573  0.6488 -0.1267 -0.0875
  192POPC    C322154   5.309   3.620   6.437 -0.9657 -0.2644  0.0813
  192POPC    HX22155   5.208   3.573   6.447 -0.8086 -0.2489  2.1938
  192POPC    HY22156   5.323   3.688   6.350 -0.1117 -0.4028  0.1093
  192POPC   O3122157   5.350   3.666   6.559  0.7860  0.2264 -0.1427
  192POPC   C3122158   5.273   3.768   6.596 -0.5340  0.1846 -1.3017
  192POPC   O3222159   5.179   3.812   6.537  0.2924 -0.2328 -0.2240
  192POPC   C3222160   5.315   3.821   6.735  0.4694 -0.0199 -0.1121
  192POPC   H2X22161   5.370   3.915   6.711  0.2068 -0.3991 -2.4984
  192POPC   H2Y22162   5.394   3.756   6.778 -1.4129 -1.9714  0.5679
  192POPC   C2322163   5.387   3.212   6.753  0.2916 -0.4466 -0.4558
  192POPC   H3R22164   5.328   3.128   6.794  1.8501 -0.3364  2.2880
  192POPC   H3S22165   5.343   3.312   6.771  0.5228 -0.3906 -0.1943
  192POPC   C2422166   5.525   3.212   6.814 -0.1160 -0.6391  0.0860
  192POPC   H4R22167   5.581   3.302   6.782 -0.1645 -0.1459  1.3040
  192POPC   H4S22168   5.586   3.120   6.799  0.4529 -0.5883  1.7617
  192POPC   C2522169   5.523   3.229   6.974  0.1254 -0.2515  0.0423
  192POPC   H5R22170   5.445   3.302   7.005  1.1473  0.4568  1.0242
  192POPC   H5S22171   5.621   3.259   7.017  0.1523 -0.4012  0.0856
  192POPC   C2622172   5.489   3.111   7.061  0.0990  0.1034 -0.0542
  192POPC   H6R22173   5.566   3.033   7.041  0.1002  0.5859 -2.1122
  192POPC   H6S22174   5.385   3.080   7.037 -0.2548  1.4319 -0.3171
  192POPC   C2722175   5.492   3.154   7.213 -0.2923 -0.7978 -0.0338
  192POPC   H7R22176   5.445   3.252   7.239 -2.1684 -1.0767 -2.0759
  192POPC   H7S22177   5.596   3.169   7.249 -1.0199  0.6673  1.6717
  192POPC   C2822178   5.419   3.047   7.303  0.5093  0.5818  0.2893
  192POPC   H8R22179   5.456   3.043   7.407  0.8513 -0.7086  0.1388
  192POPC   H8S22180   5.452   2.949   7.263 -0.6942 -0.4074  1.6567
  192POPC   C2922181   5.267   3.052   7.292 -0.4310 -0.4027 -0.3568
  192POPC   H9122182   5.226   3.026   7.193  0.4008 -0.3033 -0.7315
  192POPC  C21022183   5.183   3.085   7.389 -0.9127 -0.0719 -0.4012
  192POPC  H10122184   5.076   3.073   7.365  0.0072 -3.0770 -3.8326
  192POPC  C21122185   5.227   3.131   7.527 -0.4337  0.3669  0.2485
  192POPC  H11R22186   5.166   3.215   7.568  1.3780  1.2312  1.2590
  192POPC  H11S22187   5.332   3.167   7.535 -0.2436  0.1657 -1.0507
  192POPC  C21222188   5.224   3.014   7.631  0.6913 -0.7759 -0.6991
  192POPC  H12R22189   5.321   3.028   7.684 -0.5742  0.4078  1.4292
  192POPC  H12S22190   5.212   2.918   7.578 -1.5368 -1.3512  0.7461
  192POPC  C21322191   5.105   3.029   7.741 -0.1184  0.6810  0.4993
  192POPC  H13R22192   5.013   3.025   7.679  0.6179 -1.0240 -0.5601
  192POPC  H13S22193   5.115   3.124   7.798  1.3989  0.1109  1.2480
  192POPC  C21422194   5.104   2.908   7.835 -0.1984 -0.0939 -0.1720
  192POPC  H14R22195   5.197   2.908   7.895  0.7463 -0.2705 -1.5997
  192POPC  H14S22196   5.115   2.830   7.757  3.5805 -0.1057  0.2143
  192POPC  C21522197   4.981   2.890   7.928 -0.4583  0.4155  0.2718
  192POPC  H15R22198   4.995   2.789   7.971  1.9985  1.2448  1.6265
  192POPC  H15S22199   4.890   2.894   7.865 -0.0978  1.1495 -0.2227
  192POPC  C21622200   4.964   2.983   8.044 -0.0655  0.9659  0.2225
  192POPC  H16R22201   4.861   2.959   8.078 -0.7832 -0.2949 -2.5201
  192POPC  H16S22202   4.957   3.091   8.021 -3.0132  0.8521  0.1963
  192POPC  C21722203   5.076   2.953   8.145  0.7278 -0.0280 -0.4441
  192POPC  H17R22204   5.173   2.987   8.103  1.3262  2.1586  2.4357
  192POPC  H17S22205   5.071   2.847   8.176 -1.6742  0.4834  1.1934
  192POPC  C21822206   5.053   3.045   8.267  0.1781  0.1605  0.3390
  192POPC  H18R22207   5.035   3.151   8.240 -0.0875 -0.3411 -1.5813
  192POPC  H18S22208   5.142   3.029   8.333 -0.9012 -0.5725  1.6620
  192POPC  H18T22209   4.963   3.006   8.318  0.4736 -1.8711 -0.6058
  192POPC   C3322210   5.198   3.839   6.839 -0.1604 -0.1214  0.1409
  192POPC   H3X22211   5.159   3.740   6.869 -1.4234 -0.3780 -2.0804
  192POPC   H3Y22212   5.113   3.887   6.785 -0.2611  0.2499  0.6257
  192POPC   C3422213   5.225   3.933   6.962 -0.5697  0.3802 -0.5439
  192POPC   H4X22214   5.127   3.937   7.014  0.0965  0.4751  0.7654
  192POPC   H4Y22215   5.253   4.039   6.941  1.6890 -0.1941 -0.7219
  192POPC   C3522216   5.328   3.893   7.070  0.0588  1.0474 -0.4869
  192POPC   H5X22217   5.430   3.894   7.025  0.0046  0.0144 -0.6625
  192POPC   H5Y22218   5.305   3.786   7.090  0.6770  0.8784 -0.6321
  192POPC   C3622219   5.312   3.958   7.205  0.7827  0.3730  0.3606
  192POPC   H6X22220   5.221   3.917   7.255  1.1241 -0.6243  0.1980
  192POPC   H6Y22221   5.290   4.065   7.187 -0.3579  0.4024  1.7644
  192POPC   C3722222   5.447   3.930   7.288  0.3058 -0.7831  0.4935
  192POPC   H7X22223   5.534   3.956   7.224 -2.6204  3.1821 -2.4020
  192POPC   H7Y22224   5.448   3.826   7.327 -1.3818 -0.0922  2.6204
  192POPC   C3822225   5.457   4.011   7.416 -0.7976  0.1309 -0.3040
  192POPC   H8X22226   5.365   3.985   7.473 -0.9966 -1.1147 -1.1465
  192POPC   H8Y22227   5.464   4.118   7.389  1.3512 -0.2119 -1.2658
  192POPC   C3922228   5.582   3.986   7.500 -0.2476 -0.8315  0.1211
  192POPC   H9X22229   5.669   4.013   7.436 -1.2581  0.3499 -0.8018
  192POPC   H9Y22230   5.589   3.879   7.528 -0.5939 -0.8502  0.1375
  192POPC  C31022231   5.597   4.075   7.627 -0.3167 -0.8222 -0.2498
  192POPC  H10X22232   5.555   4.178   7.625 -2.0129 -1.4833 -1.6834
  192POPC  H10Y22233   5.704   4.087   7.653 -0.0366  0.8128 -1.9570
  192POPC  C31122234   5.536   4.005   7.753 -0.3434 -0.7493 -0.1158
  192POPC  H11X22235   5.431   3.977   7.729  0.0412 -1.0163 -1.6293
  192POPC  H11Y22236   5.527   4.082   7.832  2.0244 -0.7224  0.1913
  192POPC  C31222237   5.620   3.901   7.817 -0.2400 -0.1791  0.0506
  192POPC  H12X22238   5.717   3.950   7.840 -0.5284  1.3064 -1.6293
  192POPC  H12Y22239   5.631   3.812   7.752  0.0007  1.6446 -2.6209
  192POPC  C31322240   5.537   3.870   7.944 -0.5189  0.0228 -0.2997
  192POPC  H13X22241   5.443   3.819   7.911 -0.3194 -0.0939 -0.6864
  192POPC  H13Y22242   5.500   3.960   7.997 -1.1860  0.2707 -1.1661
  192POPC  C31422243   5.613   3.772   8.038  0.9874 -0.2100 -0.1150
  192POPC  H14X22244   5.710   3.823   8.056  1.4748 -1.1036 -0.0973
  192POPC  H14Y22245   5.627   3.670   7.994 -3.3629 -1.1377  0.2589
  192POPC  C31522246   5.538   3.763   8.168  0.1688 -0.2663 -0.7392
  192POPC  H15X22247   5.435   3.732   8.142  0.4280 -1.1165 -0.7780
  192POPC  H15Y22248   5.537   3.863   8.216 -2.3746 -0.8253  0.5294
  192POPC  C31622249   5.611   3.662   8.256  0.1729 -0.0711 -0.3185
  192POPC  H16X22250   5.714   3.692   8.282  0.5651 -1.6305 -0.0060
  192POPC  H16Y22251   5.606   3.561   8.211  0.5291 -0.0900 -0.3179
  192POPC  H16Z22252   5.557   3.657   8.353  0.8641  1.2650  0.1560
  193SOD    SOD22253   0.921   4.213   4.627 -0.0631  0.5311 -0.2004
  194SOD    SOD22254   1.236   2.866  10.862  0.7614 -0.4003 -0.2060
  195SOD    SOD22255   6.045   5.002  15.316 -0.3345 -0.0958 -0.1546
  196SOD    SOD22256   3.633   3.030  13.077 -0.0013 -0.1295  0.2832
  197SOD    SOD22257   2.552   5.215   1.613  0.0742 -0.1578 -0.0671
  198SOD    SOD22258   0.281   1.968  11.263  0.1748 -0.3260 -0.3631
  199SOD    SOD22259   5.310   3.683   1.416  1.0773 -0.3334  0.3240
  200SOD    SOD22260   5.281   1.470  10.896  0.3806  0.6573 -0.3233
  201SOD    SOD22261   3.839   0.970  11.747 -0.5348  0.3099 -0.5454
  202SOD    SOD22262   5.511   4.257  13.872 -0.2189  0.2451  0.8089
  203SOD    SOD22263   4.388   3.391  10.860 -0.0884  0.2557 -0.4645
  204SOD    SOD22264   5.857   1.865  16.788  0.0220  0.2990  0.1323
  205SOD    SOD22265   0.380   5.272  12.386  0.2445  0.2564  0.3685
  206SOD    SOD22266   1.952   3.032  11.891 -0.2535 -0.7289 -0.0770
  207SOD    SOD22267   4.001   6.758   3.495 -0.1446 -0.5773 -0.3420
  208SOD    SOD22268   4.855   5.475   5.430 -0.2127  0.0825  0.2799
  209SOD    SOD22269   2.185   1.360   5.956  0.6073  0.1292  0.2779
  210SOD    SOD22270   2.528   3.806   5.929  0.3232 -0.2461 -0.0781
  211SOD    SOD22271   1.852   2.937  16.495  0.3316 -0.1458 -0.1241
  212SOD    SOD22272   3.844   3.146   3.584 -0.2767  0.0972 -0.4861
  213SOD    SOD22273   3.086   0.421  11.300  0.2959 -0.5087 -0.0822
  214SOD    SOD22274   4.444   4.972   0.766  0.1068 -0.0298  0.2940
  215SOD    SOD22275   1.681   0.118  10.862  0.2552  0.0659 -0.2447
  216SOD    SOD22276   0.624   2.964  11.010 -0.4408 -0.1252  0.6712
  217SOD    SOD22277   5.344   5.977   0.368  0.2630 -0.0936  0.3918
  218SOD    SOD22278   6.714   6.561   3.013  0.0387 -0.7188  0.2155
  219SOD    SOD22279   5.432   2.724   2.029  0.3474 -0.0723  0.3870
  220SOD    SOD22280   5.930   6.103  11.959 -0.1248 -0.7916 -0.2379
  221SOD    SOD22281   4.337   2.915  14.096  0.1194  0.0461  0.0613
  222SOD    SOD22282   3.459   2.560   2.671 -0.2319 -0.3431  0.0162
  223SOD    SOD22283   3.810   0.312  15.680 -0.0748 -0.2010 -0.1653
  224SOD    SOD22284   0.173   0.797  12.431  0.1581  0.2594  0.2171
  225SOD    SOD22285   5.098   3.959   0.726 -0.1277  0.2591  0.3428
  226SOD    SOD22286   6.188   1.517   1.700  0.1178  0.2988 -0.3700
  227SOD    SOD22287   3.716   0.590   5.587  0.0897  0.1417 -0.0572
  228SOD    SOD22288   4.839   0.236   0.496  0.0880  0.6009  0.1329
  229SOD    SOD22289   2.260   5.164   2.841  0.3237 -0.4022 -0.2630
  230SOD    SOD22290   3.025   5.599   4.252 -0.1903 -0.3685  0.1091
  231SOD    SOD22291   5.404   6.191   5.559 -0.1218  0.0237  0.2283
  232SOD    SOD22292   4.782   6.552  11.504  0.0262 -0.0607 -0.1599
  233SOD    SOD22293   2.831   5.602  12.375  0.5637  0.2371  0.0334
  234SOD    SOD22294   0.552   5.234   5.467  0.2297 -0.1541  0.0238
  235SOD    SOD22295   4.345   1.273   4.839 -0.3711  0.1447 -0.3077
  236SOD    SOD22296   2.013   6.345  11.472 -0.5052  0.0216  0.3866
  237SOD    SOD22297   2.288   3.943  10.712  0.6476  0.0944  0.1604
  238SOD    SOD22298   0.454   0.216  17.084  0.1715  0.2290 -0.0201
  239SOD    SOD22299   1.709   4.838  16.925  0.0320  0.0957  0.3674
  240SOD    SOD22300   0.620   6.101  13.256 -0.2862  0.3150 -0.0324
  241SOD    SOD22301   0.792   5.196  14.484  0.3644  0.0720 -0.1949
  242SOD    SOD22302   1.137   6.763   5.763  0.2909  0.1381  0.5490
  243SOD    SOD22303   0.449   1.420  13.272  0.2759 -0.2613  0.3097
  244SOD    SOD22304   0.905   5.578   2.087 -0.7870 -0.1011 -0.0753
  245SOD    SOD22305   3.269   6.098   4.082  0.6407 -0.0771  0.0270
  246SOD    SOD22306   5.439   4.799  11.785  0.3006  0.0105  0.1793
  247SOD    SOD22307   2.779   4.527  14.141  0.1887 -0.4980  0.0490
  248SOD    SOD22308   5.347   3.374  10.943  0.6296 -0.0385 -0.3158
  249SOD    SOD22309   0.991   5.334  15.573  0.7306 -0.2055 -0.3274
  250SOD    SOD22310   1.573   6.714   1.873  0.1488  0.5067  0.2715
  251SOD    SOD22311   6.729   0.833   5.406  0.0212 -0.2133 -0.3137
  252SOD    SOD22312   1.174   2.102  16.965 -0.5101 -0.0112  0.2322
  253SOD    SOD22313   2.464   5.792   6.008 -0.1871  0.3525 -0.3591
  254SOD    SOD22314   3.101   5.288  13.588  0.1168 -0.2361 -0.0821
  255SOD    SOD22315   2.866   1.694   0.501  0.1261  0.1264 -0.3759
  256SOD    SOD22316   6.246   1.423   2.497  0.1227 -0.0397 -0.2236
  257SOD    SOD22317   4.050   3.698   5.875  0.6612 -0.4756 -0.2455
  258SOD    SOD22318   0.990   2.243  15.362  0.3954 -0.3189  0.5559
  259SOD    SOD22319   2.693   4.405  16.336  0.5335  0.1477 -0.1936
  260SOD    SOD22320   4.899   6.657  16.856  0.3589 -0.1523  0.3533
  261SOD    SOD22321   4.178   3.351   3.113 -0.1487 -0.1492  0.0205
  262SOD    SOD22322   5.616   6.257   6.313  0.1944  0.5461  0.0851
  263SOD    SOD22323   0.587   0.992  10.737 -0.2150 -0.3234  0.7606
  264SOD    SOD22324   4.362   2.876  15.785  0.1715 -0.2377 -0.1576
  265SOD    SOD22325   0.711   1.204   1.257 -0.2273  0.1609 -0.0947
  266SOD    SOD22326   2.565   3.879  16.555  0.1375 -0.1676 -0.0715
  267SOD    SOD22327   6.537   6.711   0.469  0.0683 -0.3628 -0.0775
  268SOD    SOD22328   5.594   6.497  15.860 -0.2871 -0.2109 -0.0998
  269SOD    SOD22329   0.374   4.402   1.956  0.5685  0.1857  0.1344
  270CLA    CLA22330   1.395   4.295  16.477  0.2828  0.4404  0.0031
  271CLA    CLA22331   0.246   1.308   1.159 -0.1993 -0.2221  0.2387
  272CLA    CLA22332   2.000   5.704  14.159  0.3168  0.1290 -0.1363
  273CLA    CLA22333   5.328   0.062   0.247  0.2049 -0.0652  0.4841
  274CLA    CLA22334   1.016   0.388  13.435 -0.1155  0.1541  0.3198
  275CLA    CLA22335   1.434   5.729   5.936 -0.1440 -0.2694 -0.1242
  276CLA    CLA22336   5.365   6.222   1.971 -0.3663  0.2723  0.2871
  277CLA    CLA22337   0.243   3.012  14.839  0.0357  0.1388 -0.0911
  278CLA    CLA22338   0.662   2.034  16.183 -0.0190  0.1712  0.3400
  279CLA    CLA22339   2.960   5.546  13.935  0.7622 -0.0111 -0.2989
  280CLA    CLA22340   1.871   5.616   1.028 -0.0689  0.0301 -0.2690
  281CLA    CLA22341   5.909   1.948  15.216 -0.1305  0.0192  0.2576
  282CLA    CLA22342   4.305   3.487  11.280 -0.0200 -0.0014  0.2237
  283CLA    CLA22343   2.893   0.729   2.915  0.2217  0.0935 -0.3814
  284CLA    CLA22344   4.628   1.751   2.307  0.0355  0.1039 -0.0018
  285CLA    CLA22345   5.470   3.842   2.762 -0.4197 -0.0440  0.1709
  286CLA    CLA22346   5.388   5.594   2.997  0.0382  0.6219 -0.1214
  287CLA    CLA22347   5.874   4.582  15.321 -0.0470  0.1228  0.0071
  288CLA    CLA22348   6.032   2.982   0.266  0.1281 -0.1681 -0.2902
  289CLA    CLA22349   1.887   4.337  12.915 -0.1101 -0.6244  0.4687
  290CLA    CLA22350   0.136   0.170   1.460  0.0737 -0.4316  0.4719
  291CLA    CLA22351   4.981   0.730   4.742  0.0671  0.1725 -0.1205
  292CLA    CLA22352   0.253   2.996   1.683  0.3221  0.2208  0.3389
  293CLA    CLA22353   4.279   2.054   0.617 -0.6456  0.2678  0.1266
  294CLA    CLA22354   5.355   3.666   1.142 -0.1336 -0.0471  0.1831
  295CLA    CLA22355   5.635   1.432  11.799  0.0500 -0.1555 -0.5693
  296CLA    CLA22356   6.576   0.170   3.503 -0.3309 -0.2334 -0.2707
  297CLA    CLA22357   6.001   6.616  14.521  0.2708  0.2154  0.0137
  298CLA    CLA22358   5.268   4.598  12.766  0.2742 -0.3545  0.4515
  299CLA    CLA22359   0.885   3.509   2.011 -0.2765  0.0550  0.4382
  300CLA    CLA22360   5.940   1.536   3.309  0.0840 -0.0514  0.1254
  301CLA    CLA22361   3.180   0.929   3.269  0.2271  0.1119  0.2464
  302CLA    CLA22362   6.772   0.474  12.011 -0.3554  0.2792 -0.1620
  303CLA    CLA22363   3.011   1.480   5.812 -0.1182  0.0493 -0.7362
  304CLA    CLA22364   3.457   3.123   0.038 -0.0698  0.1659  0.5267
  305CLA    CLA22365   4.437   4.184   1.407  0.0231  0.1901 -0.1468
  306CLA    CLA22366   1.015   0.745  14.613 -0.1848 -0.0536 -0.2551
  307CLA    CLA22367   0.909   1.051   1.054  0.0756 -0.5249  0.4120
  308CLA    CLA22368   5.525   0.678  11.935  0.1043  0.3643 -0.2671
  309CLA    CLA22369   3.188   4.309  16.831  0.2306  0.0962  0.0004
  310CLA    CLA22370   1.877   6.751  16.103  0.2181 -0.4433 -0.2851
  311CLA    CLA22371   0.124   0.187  12.866 -0.3693  0.4014  0.5315
  312CLA    CLA22372   2.728   4.305  12.547  0.3618  0.1765  0.0710
  313CLA    CLA22373   2.859   3.718  12.551  0.3369  0.2680 -0.0828
  314CLA    CLA22374   1.731   3.947  12.568 -0.1751 -0.0032 -0.5200
  315CLA    CLA22375   0.101   5.455   5.578  0.0163  0.2786  0.5008
  316CLA    CLA22376   2.694   3.065   3.266 -0.3110  0.0976 -0.2072
  317CLA    CLA22377   0.901   2.009   0.407  0.0240 -0.0416 -0.3468
  318CLA    CLA22378   3.463   1.700  15.907  0.2481 -0.4667  0.5480
  319CLA    CLA22379   4.910   6.761  12.913  0.3332  0.2834 -0.3687
  320CLA    CLA22380   2.159   2.821  15.712  0.1741  0.2666  0.0188
  321CLA    CLA22381   2.848   0.460   0.019 -0.1013 -0.2506  0.1800
  322CLA    CLA22382   4.480   2.981   3.258  0.3257  0.0513 -0.1788
  323TIP3   OH222383   6.641   2.489  13.730 -0.8655 -0.6359 -0.4659
  323TIP3    H122384   6.683   2.412  13.767 -1.3717  0.0461  1.7050
  323TIP3    H222385   6.549   2.483  13.759 -1.1033  0.3429 -0.9556
  324TIP3   OH222386   2.690   2.701  16.591  0.4073 -0.4169  0.0983
  324TIP3    H122387   2.778   2.722  16.625  0.1963 -0.9100  0.9815
  324TIP3    H222388   2.639   2.681  16.669 -0.0389 -1.8273 -0.5259
  325TIP3   OH222389   0.500   6.424   3.930  0.0921 -0.4072 -0.6206
  325TIP3    H122390   0.412   6.425   3.891 -0.7971  1.2947  1.2505
  325TIP3    H222391   0.545   6.498   3.888  0.0639 -0.2678 -0.4072
  326TIP3   OH222392   1.121   5.774  12.493  0.5797 -0.0391 -0.1332
  326TIP3    H122393   1.101   5.846  12.553 -0.7091 -1.8761  1.7468
  326TIP3    H222394   1.036   5.734  12.473  1.0798 -0.0593 -2.5053
  327TIP3   OH222395   1.799   4.786   6.036  0.4629 -0.3053  0.4866
  327TIP3    H122396   1.729   4.832   6.083  1.5072  0.0366  1.7602
  327TIP3    H222397   1.840   4.730   6.102  0.8696 -1.1220 -0.4350
  328TIP3   OH222398   2.830   3.929  15.551 -0.7926  0.6044 -0.3631
  328TIP3    H122399   2.828   3.857  15.614  0.4458  0.2158 -0.7423
  328TIP3    H222400   2.816   3.886  15.466  0.2865  0.7516 -0.6253
  329TIP3   OH222401   5.001   0.941   0.161  0.0433  0.6768  0.3583
  329TIP3    H122402   4.975   0.989   0.082 -0.1771 -0.5245 -0.3147
  329TIP3    H222403   5.087   0.905   0.140  0.2248  0.8054  0.8704
  330TIP3   OH222404   6.200   2.164   2.248 -0.9902 -0.5904  0.2530
  330TIP3    H122405   6.165   2.094   2.304  1.0665 -0.7754  1.3943
  330TIP3    H222406   6.292   2.142   2.238 -0.0890  2.3539  1.3021
  331TIP3   OH222407   6.001   1.822   4.780  0.0935 -0.5612  0.6349
  331TIP3    H122408   5.921   1.849   4.824 -0.1228 -1.4497  0.7952
  331TIP3    H222409   6.069   1.878   4.818 -0.2972 -0.4326  1.1537
  332TIP3   OH222410   1.937   3.957   0.506  0.2781 -0.2964 -0.5027
  332TIP3    H122411   1.856   3.911   0.528  0.1873  0.6136  1.1489
  332TIP3    H222412   1.997   3.887   0.480 -0.0459 -1.3291  1.3550
  333TIP3   OH222413   3.414   2.203   2.215 -0.7440  0.6450 -0.0990
  333TIP3    H122414   3.370   2.249   2.286 -0.3559  0.1811  0.4548
  333TIP3    H222415   3.343   2.158   2.168 -1.1605  1.9592 -0.8007
  334TIP3   OH222416   4.988   1.198  13.331  0.2501  0.2622  0.0403
  334TIP3    H122417   4.902   1.173  13.296  0.7139 -0.9147 -0.3337
  334TIP3    H222418   5.027   1.251  13.262 -0.3723  1.2530  0.4332
  335TIP3   OH222419   3.261   5.385  13.073  0.5111 -0.0909 -0.4817
  335TIP3    H122420   3.223   5.360  12.989  1.2384 -0.1838 -0.7907
  335TIP3    H222421   3.335   5.324  13.085  0.0687 -0.4587  0.4957
  336TIP3   OH222422   3.369   4.721  10.940 -0.0486  0.2051  0.1941
  336TIP3    H122423   3.286   4.701  10.897  1.2784 -0.7465 -2.1406
  336TIP3    H222424   3.417   4.638  10.940  1.5404  1.0761 -0.0588
  337TIP3   OH222425   2.512   6.077  13.699  0.0718  0.1061 -0.2859
  337TIP3    H122426   2.470   6.015  13.758 -1.4455  1.9112  0.6399
  337TIP3    H222427   2.560   6.137  13.757  0.9275  0.2259 -1.0977
  338TIP3   OH222428   1.028   2.865   2.379 -0.2336 -0.1142  0.2923
  338TIP3    H122429   0.990   2.843   2.464 -0.7148 -0.8137 -0.0910
  338TIP3    H222430   1.093   2.797   2.364  1.6607  1.4021  1.2133
  339TIP3   OH222431   1.081   3.849   6.435 -0.7083  0.4863 -0.6740
  339TIP3    H122432   0.997   3.809   6.457  0.4523 -0.5802  2.4679
  339TIP3    H222433   1.065   3.943   6.442 -1.6136  0.2952  0.0051
  340TIP3   OH222434   6.228   6.780  15.775  0.0881 -0.3085  0.1422
  340TIP3    H122435   6.272   6.791  15.690  2.4584 -1.6078  1.1157
  340TIP3    H222436   6.275   6.839  15.834 -1.2650  0.2592  0.6989
  341TIP3   OH222437   2.194   2.223  13.700 -0.5361  0.8899  0.1409
  341TIP3    H122438   2.262   2.283  13.730  0.3238  0.0385 -0.0356
  341TIP3    H222439   2.186   2.158  13.770  1.7492 -1.3214 -1.4695
  342TIP3   OH222440   4.297   1.618   6.392  0.1041 -0.3283 -0.2890
  342TIP3    H122441   4.375   1.593   6.342  0.4502 -0.3377  0.2491
  342TIP3    H222442   4.324   1.693   6.444 -0.4809  0.1799 -0.6950
  343TIP3   OH222443   4.598   1.875  14.458  0.1361  0.8725 -0.1113
  343TIP3    H122444   4.512   1.865  14.498  0.1405  1.2680  0.0015
  343TIP3    H222445   4.602   1.966  14.430 -0.5853  0.1810 -2.7349
  344TIP3   OH222446   3.583   6.412   1.345  0.1483 -0.3293  0.3395
  344TIP3    H122447   3.670   6.396   1.380  0.1141  0.6320  0.8963
  344TIP3    H222448   3.594   6.486   1.284 -0.0643 -0.9990 -0.5383
  345TIP3   OH222449   4.262   4.418  13.997  0.3874 -0.3860 -0.2003
  345TIP3    H122450   4.195   4.481  14.023  0.9648  0.6232 -1.0657
  345TIP3    H222451   4.214   4.348  13.952 -0.2258 -0.4165  0.4913
  346TIP3   OH222452   1.100   3.571   1.584  0.7512 -0.9010 -0.0698
  346TIP3    H122453   1.023   3.514   1.590  0.2161 -0.1852  0.0167
  346TIP3    H222454   1.164   3.520   1.535  1.5509 -2.9505  2.8537
  347TIP3   OH222455   2.130   0.864  11.759 -0.6551  0.6123  0.3307
  347TIP3    H122456   2.088   0.921  11.824  1.5815 -0.4049  2.8399
  347TIP3    H222457   2.093   0.777  11.778  1.5070 -0.0693  1.7692
  348TIP3   OH222458   3.318   5.566   4.752  0.2911 -0.1267  0.0200
  348TIP3    H122459   3.248   5.501   4.754 -0.4178  0.3749 -3.2247
  348TIP3    H222460   3.281   5.639   4.703  2.7629  0.5412 -0.9952
  349TIP3   OH222461   1.187   1.048   1.666 -0.0062 -0.0478  0.3381
  349TIP3    H122462   1.188   0.992   1.744 -1.1744  1.6814  1.6751
  349TIP3    H222463   1.182   0.987   1.593  0.4588 -1.7170  1.6304
  350TIP3   OH222464   0.261   6.773   4.319 -0.5378  0.3566  0.0387
  350TIP3    H122465   0.306   6.784   4.235  1.0172 -1.0286  0.6239
  350TIP3    H222466   0.330   6.747   4.379 -2.0005 -1.0025  1.2105
  351TIP3   OH222467   2.555   3.423   3.696  0.0621  0.6732 -0.1608
  351TIP3    H122468   2.503   3.377   3.762  1.6611  0.0609  0.7177
  351TIP3    H222469   2.619   3.358   3.666 -0.0099  1.2327 -1.6491
  352TIP3   OH222470   6.293   4.389  15.700 -0.0819  0.1110 -1.0658
  352TIP3    H122471   6.354   4.333  15.652  0.7853 -0.5464  0.7218
  352TIP3    H222472   6.267   4.337  15.776 -0.4225  1.5678 -0.1423
  353TIP3   OH222473   1.948   0.245   5.007  0.2327 -0.0734 -0.5467
  353TIP3    H122474   2.038   0.232   4.976 -0.6166 -2.3889 -2.3874
  353TIP3    H222475   1.927   0.164   5.053 -0.2785  1.3003  1.8048
  354TIP3   OH222476   1.848   5.496  11.414 -0.0756 -0.0136  0.5869
  354TIP3    H122477   1.862   5.527  11.324  0.2981 -0.5197  0.4677
  354TIP3    H222478   1.755   5.474  11.418  0.1977 -1.4119 -0.1388
  355TIP3   OH222479   2.659   6.523   2.368  0.5359 -0.2373 -0.4670
  355TIP3    H122480   2.575   6.537   2.412  0.2670  0.3692 -1.1570
  355TIP3    H222481   2.724   6.525   2.439 -0.1563 -2.6115  0.3481
  356TIP3   OH222482   0.355   4.858   5.576 -0.1020 -0.0837  0.0371
  356TIP3    H122483   0.413   4.918   5.529 -1.7200 -0.0688 -2.0698
  356TIP3    H222484   0.346   4.897   5.663 -0.8033  2.6108 -1.1249
  357TIP3   OH222485   4.244   3.686  12.300 -0.2567  0.1193 -0.4552
  357TIP3    H122486   4.208   3.769  12.331  0.4902  0.8974 -1.5837
  357TIP3    H222487   4.169   3.637  12.267 -0.7838  0.0776  0.7523
  358TIP3   OH222488   0.528   1.409   3.439  0.2645  0.2446 -0.2869
  358TIP3    H122489   0.545   1.456   3.357 -1.4657  0.3039 -0.6518
  358TIP3    H222490   0.448   1.359   3.421  0.7147 -0.9321  0.8854
  359TIP3   OH222491   5.892   6.817   5.266  0.0886  0.2494  0.1310
  359TIP3    H122492   5.812   6.770   5.290  0.5573 -2.2614 -2.5890
  359TIP3    H222493   5.957   6.787   5.330  0.6451 -4.0835 -2.0420
  360TIP3   OH222494   4.514   0.267   1.595  0.1240 -0.1906  0.4063
  360TIP3    H122495   4.542   0.308   1.677 -0.6938 -0.1471  0.6670
  360TIP3    H222496   4.596   0.246   1.550  0.5802 -0.1026  1.1772
  361TIP3   OH222497   5.422   3.978   1.142 -0.3798 -0.2780  0.1105
  361TIP3    H122498   5.409   3.994   1.048  0.6003 -0.1951 -0.0291
  361TIP3    H222499   5.381   3.894   1.159  0.9848 -1.1701 -0.7984
  362TIP3   OH222500   3.009   5.032   1.302 -0.1417  0.2937 -0.3221
  362TIP3    H122501   2.994   5.051   1.210 -1.5267  1.8777  0.1760
  362TIP3    H222502   2.963   4.950   1.317  0.4168 -0.1758 -1.1056
  363TIP3   OH222503   4.918   0.487  14.579  0.6438  0.3722 -0.8536
  363TIP3    H122504   4.855   0.488  14.650  0.4004  1.0084 -1.0695
  363TIP3    H222505   4.956   0.399  14.581  1.7267  0.8360  1.0093
  364TIP3   OH222506   6.474   0.278  16.318  0.3288 -0.4583  0.6521
  364TIP3    H122507   6.506   0.280  16.228 -3.4519 -0.5805 -0.8774
  364TIP3    H222508   6.490   0.367  16.351  4.4256 -1.1856  1.0863
  365TIP3   OH222509   1.419   3.933   5.485 -0.0703  0.3421  0.1416
  365TIP3    H122510   1.476   3.945   5.561 -0.0024 -2.8126  0.7550
  365TIP3    H222511   1.332   3.920   5.522 -0.1987 -0.2631 -0.3570
  366TIP3   OH222512   2.852   1.194   2.196 -0.0481  0.0343 -0.0582
  366TIP3    H122513   2.871   1.137   2.270 -0.0796  1.4944  1.1354
  366TIP3    H222514   2.774   1.242   2.222 -1.5183 -1.1221 -2.0860
  367TIP3   OH222515   1.903   3.159  16.471  0.0987  0.6673  0.1196
  367TIP3    H122516   1.946   3.223  16.415  0.2389  0.3752 -0.1087
  367TIP3    H222517   1.825   3.204  16.503  0.1498  0.9207 -0.1070
  368TIP3   OH222518   6.189   0.856  11.989 -0.3806 -0.0697  0.7513
  368TIP3    H122519   6.204   0.771  12.031 -1.6129 -0.3830  0.6230
  368TIP3    H222520   6.228   0.920  12.048  2.0386 -0.8013  0.0604
  369TIP3   OH222521   4.331   0.341   6.384 -0.0645 -0.1128 -0.0728
  369TIP3    H122522   4.252   0.388   6.356  0.0305 -0.3075 -0.6831
  369TIP3    H222523   4.297   0.268   6.436 -0.2262  0.4380  0.6105
  370TIP3   OH222524   0.087   3.932   1.689 -0.4718 -0.0317 -0.2361
  370TIP3    H122525   0.002   3.944   1.648  0.0990 -1.0301 -1.7867
  370TIP3    H222526   0.118   3.847   1.657  0.7542 -0.0668  0.9426
  371TIP3   OH222527   1.076   4.117   0.815  0.3745  0.2024  0.0690
  371TIP3    H122528   1.095   4.205   0.849  2.6316  0.8612 -2.5334
  371TIP3    H222529   0.985   4.121   0.787  0.6801  2.0074 -0.7717
  372TIP3   OH222530   0.895   6.373  12.727 -0.2165 -0.1946  0.5074
  372TIP3    H122531   0.889   6.300  12.789 -1.5883 -0.6520 -0.1462
  372TIP3    H222532   0.833   6.438  12.760 -0.2258 -0.0225  0.1535
  373TIP3   OH222533   1.317   1.241  10.556 -0.2499  0.5187  0.5801
  373TIP3    H122534   1.385   1.269  10.618 -0.1534 -0.2439  0.8245
  373TIP3    H222535   1.293   1.321  10.510  1.1189  0.7431  0.1909
  374TIP3   OH222536   2.052   6.617   2.336 -0.1144 -0.1779  0.7882
  374TIP3    H122537   1.966   6.580   2.316  0.1628 -0.5680  0.2932
  374TIP3    H222538   2.104   6.542   2.364  0.4431 -0.1574 -0.1830
  375TIP3   OH222539   0.529   2.221  13.783  0.1323 -0.1776 -0.1009
  375TIP3    H122540   0.618   2.186  13.788 -0.3457 -1.7463 -1.5753
  375TIP3    H222541   0.541   2.312  13.755  1.2873 -0.0555  0.7188
  376TIP3   OH222542   0.025   3.533   1.190  0.0918  0.2019  0.1713
  376TIP3    H122543  -0.037   3.580   1.245  0.9400  0.9317  0.5162
  376TIP3    H222544   0.051   3.457   1.242  1.6412  1.4082  1.2099
  377TIP3   OH222545   5.136   3.064   0.558  0.2199 -0.1916 -0.0375
  377TIP3    H122546   5.104   3.007   0.488  1.7174 -0.6093 -0.4264
  377TIP3    H222547   5.086   3.037   0.635 -1.6490  0.4666 -0.9567
  378TIP3   OH222548   0.435   5.574   2.909 -0.5498  0.1470  0.0940
  378TIP3    H122549   0.523   5.569   2.871 -0.5898  1.4473 -0.2194
  378TIP3    H222550   0.425   5.491   2.956  0.2189 -0.7045 -1.1709
  379TIP3   OH222551   3.472   6.173  13.880  0.2643  0.1268  0.4428
  379TIP3    H122552   3.382   6.204  13.876  0.5325  0.8180 -0.5461
  379TIP3    H222553   3.510   6.198  13.796  1.0823 -1.0832  0.4237
  380TIP3   OH222554   4.811   6.754  15.691  0.6175  0.1095 -0.2042
  380TIP3    H122555   4.779   6.686  15.750 -4.3678  2.1659 -0.0814
  380TIP3    H222556   4.837   6.826  15.749  1.5325 -0.0201 -0.4385
  381TIP3   OH222557   5.684   3.484  13.888 -0.5516  0.0178 -0.0474
  381TIP3    H122558   5.683   3.547  13.959 -1.3050 -1.3619  1.2377
  381TIP3    H222559   5.764   3.433  13.903  0.3749  1.0135 -1.4303
  382TIP3   OH222560   5.676   1.528  11.267  0.0839 -0.0882 -0.4667
  382TIP3    H122561   5.657   1.595  11.202  0.3993 -2.3136 -3.0736
  382TIP3    H222562   5.769   1.539  11.287  0.2624 -0.0472 -1.2895
  383TIP3   OH222563   0.469   0.306  12.279  0.1285  0.4016 -0.1363
  383TIP3    H122564   0.381   0.275  12.257 -0.8776  1.0790  2.4315
  383TIP3    H222565   0.467   0.400  12.258 -0.0942  0.5906  0.6674
  384TIP3   OH222566   5.864   5.318   4.663  0.0070  0.1303  0.5590
  384TIP3    H122567   5.919   5.291   4.589 -0.3127  0.5918  0.1476
  384TIP3    H222568   5.844   5.236   4.708 -0.6381 -0.2954 -0.4509
  385TIP3   OH222569   0.838   1.663   1.106 -0.2670 -0.0718 -0.1747
  385TIP3    H122570   0.839   1.681   1.012  1.6989 -0.6712 -0.3159
  385TIP3    H222571   0.790   1.737   1.144  0.0405  0.8636 -1.5265
  386TIP3   OH222572   4.716   0.095   0.903  0.7562  0.1968  0.1198
  386TIP3    H122573   4.643   0.041   0.872 -0.1236  0.1781  2.0799
  386TIP3    H222574   4.681   0.185   0.899  0.7347  0.2186  0.7485
  387TIP3   OH222575   1.162   4.090   0.196 -0.1181  0.1315 -0.1410
  387TIP3    H122576   1.189   4.171   0.238  2.1462 -0.0698 -1.1046
  387TIP3    H222577   1.207   4.021   0.245 -2.0544 -0.6090  0.7044
  388TIP3   OH222578   2.684   4.513  17.103  0.4967 -0.5522 -0.3620
  388TIP3    H122579   2.648   4.583  17.048 -1.0894  0.7155  2.1369
  388TIP3    H222580   2.610   4.456  17.122  1.0854 -1.1423  0.2200
  389TIP3   OH222581   4.864   3.810   1.351  0.3977 -0.2688 -0.1655
  389TIP3    H122582   4.925   3.860   1.405 -0.9334  1.5202 -0.2129
  389TIP3    H222583   4.778   3.845   1.374 -0.2984 -0.0259 -2.8368
  390TIP3   OH222584   4.928   0.664   3.560  0.2514  0.1761  0.0389
  390TIP3    H122585   5.002   0.605   3.548 -0.4494 -0.7624  0.2153
  390TIP3    H222586   4.869   0.617   3.618 -0.6533  0.7550 -0.3910
  391TIP3   OH222587   6.079   6.671   0.622 -0.4291 -0.0186  0.1673
  391TIP3    H122588   6.109   6.757   0.590 -0.5328  0.5393  1.5166
  391TIP3    H222589   6.044   6.689   0.709 -0.3755 -1.4525  0.5006
  392TIP3   OH222590   5.344   0.961   5.650  0.1602  0.2931  0.7888
  392TIP3    H122591   5.389   0.964   5.734 -0.6088 -0.8642  1.2633
  392TIP3    H222592   5.277   1.029   5.655 -0.8943 -0.7602  1.7465
  393TIP3   OH222593   3.744   5.313   5.535  0.3421  0.0754  0.7252
  393TIP3    H122594   3.703   5.255   5.599  0.2143 -1.2265 -0.4717
  393TIP3    H222595   3.838   5.295   5.544  0.2178 -1.5097 -0.6674
  394TIP3   OH222596   2.565   6.282   1.842 -0.6284  0.3142  0.3893
  394TIP3    H122597   2.475   6.288   1.874 -0.9108  0.0539 -0.3300
  394TIP3    H222598   2.612   6.351   1.889 -1.1764  0.3817  0.8506
  395TIP3   OH222599   2.396   3.988   0.926 -0.2921 -0.0260 -0.5316
  395TIP3    H122600   2.304   4.013   0.919 -0.2687  0.1548 -0.2152
  395TIP3    H222601   2.413   3.935   0.848 -0.4145  0.7273 -1.0748
  396TIP3   OH222602   5.642   1.865   4.165  0.4774  0.1016 -0.5604
  396TIP3    H122603   5.615   1.930   4.100 -0.0372  0.1229 -0.3318
  396TIP3    H222604   5.641   1.913   4.248 -0.8456 -0.4353 -0.2499
  397TIP3   OH222605   2.068   6.819  13.598 -0.4376  0.1000 -0.2948
  397TIP3    H122606   2.010   6.894  13.581 -2.3005 -1.4624 -1.2065
  397TIP3    H222607   2.132   6.822  13.527  0.4042  1.5971  0.4736
  398TIP3   OH222608   3.426   2.338   0.066  0.5677 -0.6761  0.4933
  398TIP3    H122609   3.424   2.244   0.084  0.3121 -0.9507 -0.8393
  398TIP3    H222610   3.411   2.379   0.151  0.4547 -1.8400  1.0588
  399TIP3   OH222611   0.783   1.838  16.942  0.2423  0.3370 -0.2785
  399TIP3    H122612   0.692   1.851  16.917  0.1174 -0.3828 -0.2174
  399TIP3    H222613   0.781   1.834  17.038  0.3801  0.6454 -0.2638
  400TIP3   OH222614   0.888   0.168  14.941 -1.1540 -0.4296  0.3652
  400TIP3    H122615   0.973   0.134  14.967 -0.9913 -1.9171 -1.8576
  400TIP3    H222616   0.905   0.257  14.912 -0.0713 -1.1320 -1.2718
  401TIP3   OH222617   3.620   6.661  16.422  0.4984 -0.2081 -0.3589
  401TIP3    H122618   3.582   6.688  16.506  1.4373 -0.1160  0.0479
  401TIP3    H222619   3.545   6.633  16.370 -0.1713  0.3875  0.2649
  402TIP3   OH222620   2.407   2.978  14.868  0.2367 -0.2811  0.5202
  402TIP3    H122621   2.496   2.991  14.902 -0.1847 -2.2253  2.5724
  402TIP3    H222622   2.393   3.053  14.809  3.3416 -0.1076 -0.1857
  403TIP3   OH222623   2.151   4.548   0.199 -0.0389  0.2880  0.6099
  403TIP3    H122624   2.123   4.467   0.242  1.6739 -0.1562  0.9521
  403TIP3    H222625   2.175   4.606   0.272  0.6996  0.3510  0.3207
  404TIP3   OH222626   3.591   4.527   0.022 -0.0999 -0.0498 -0.5566
  404TIP3    H122627   3.573   4.614  -0.015  1.3057  0.2611 -0.5606
  404TIP3    H222628   3.571   4.467  -0.050  1.2504  0.4592 -1.4067
  405TIP3   OH222629   1.772   3.073   3.496 -0.1603  0.8329  0.6778
  405TIP3    H122630   1.833   3.100   3.565  0.9244 -0.0516  0.0958
  405TIP3    H222631   1.699   3.034   3.543 -0.5595  2.3589  1.4161
  406TIP3   OH222632   1.709   6.241   2.343  0.1873  0.3355  0.6202
  406TIP3    H122633   1.681   6.291   2.420  0.3041 -2.1759  2.4554
  406TIP3    H222634   1.636   6.247   2.282 -0.4935  1.2911  1.5028
  407TIP3   OH222635   5.781   6.392   1.809  0.0196  0.1642 -0.4326
  407TIP3    H122636   5.867   6.377   1.849 -0.0526 -0.1374 -0.3858
  407TIP3    H222637   5.790   6.476   1.765  0.4870 -0.0764 -0.8122
  408TIP3   OH222638   1.921   4.946  13.365 -0.3224 -0.0373 -0.2786
  408TIP3    H122639   1.871   4.989  13.295  2.7791  0.0297 -2.6970
  408TIP3    H222640   1.932   4.856  13.334 -0.6534 -0.6073  1.2071
  409TIP3   OH222641   5.915   0.456  10.663  0.2289  0.2560 -0.3469
  409TIP3    H122642   5.902   0.370  10.623 -1.9183  1.0057 -1.3928
  409TIP3    H222643   5.960   0.508  10.596  0.1969  0.3731 -0.2801
  410TIP3   OH222644   2.359   5.672   3.117 -0.0929  0.2956 -0.0410
  410TIP3    H122645   2.451   5.694   3.131  0.0909 -0.5876  0.2025
  410TIP3    H222646   2.312   5.755   3.126  0.6957  0.7815 -0.3355
  411TIP3   OH222647   3.478   1.092  11.543 -0.2208  0.2986 -0.7191
  411TIP3    H122648   3.514   1.084  11.632 -2.9059  0.4225  0.4595
  411TIP3    H222649   3.553   1.118  11.490  1.4376  0.4509  1.5294
  412TIP3   OH222650   5.776   4.708  14.779 -0.1443  0.0300  0.0760
  412TIP3    H122651   5.762   4.791  14.824 -0.7901  0.7609 -1.4013
  412TIP3    H222652   5.800   4.647  14.848  0.9724  1.5833  1.1237
  413TIP3   OH222653   6.493   1.530  14.983  0.1122 -0.1684  0.2378
  413TIP3    H122654   6.482   1.586  14.906 -0.9563  0.2667  0.6787
  413TIP3    H222655   6.586   1.509  14.984 -0.0048 -1.0645 -1.7635
  414TIP3   OH222656   1.683   1.111  14.097  0.2284  0.2562  0.0966
  414TIP3    H122657   1.625   1.186  14.104  0.9308  0.8122  0.0741
  414TIP3    H222658   1.748   1.137  14.031  0.3610 -0.4458 -0.0578
  415TIP3   OH222659   5.527   2.658   4.662  0.5047 -0.6393 -0.3146
  415TIP3    H122660   5.522   2.705   4.745 -0.2825  0.3329 -0.8958
  415TIP3    H222661   5.602   2.599   4.673  0.3536 -0.5979  1.1122
  416TIP3   OH222662   4.309   4.448  13.690  0.3718 -0.5853 -0.4908
  416TIP3    H122663   4.338   4.526  13.644 -3.0118  0.9856 -0.2134
  416TIP3    H222664   4.324   4.468  13.783 -0.4852 -0.2572 -0.4201
  417TIP3   OH222665   5.442   3.166   0.375 -0.3120  0.4941 -0.1091
  417TIP3    H122666   5.408   3.222   0.445 -1.0504  1.9277 -1.5350
  417TIP3    H222667   5.426   3.077   0.406  2.7666  0.8399  3.1753
  418TIP3   OH222668   6.114   0.505   2.577 -0.0760  0.3666  0.5486
  418TIP3    H122669   6.060   0.555   2.638 -2.4801  0.4668 -1.4875
  418TIP3    H222670   6.094   0.414   2.596 -2.9998  0.4001 -1.6881
  419TIP3   OH222671   0.485   3.616   0.045  0.5207  0.1228  0.1944
  419TIP3    H122672   0.414   3.659   0.092 -0.0995 -0.2011 -0.4244
  419TIP3    H222673   0.464   3.523   0.047  0.2434  0.1402 -1.0804
  420TIP3   OH222674   2.343   2.314  13.457  0.1580  0.3241 -0.5666
  420TIP3    H122675   2.274   2.380  13.447 -0.6665 -0.1333  1.5409
  420TIP3    H222676   2.311   2.257  13.527  2.8073  0.2662  0.6792
  421TIP3   OH222677   6.590   2.179   4.223  0.4058 -0.0591 -0.1783
  421TIP3    H122678   6.546   2.126   4.156  0.9758 -2.7760  1.4802
  421TIP3    H222679   6.520   2.211   4.279  0.2773 -2.2784  0.9943
  422TIP3   OH222680   1.577   3.305  12.357  0.1049  0.2572 -0.6559
  422TIP3    H122681   1.660   3.346  12.382 -0.6517  0.2394  2.2483
  422TIP3    H222682   1.512   3.375  12.366 -0.5663 -0.4152 -0.0935
  423TIP3   OH222683   3.103   1.936   0.334 -0.2424 -0.3075  0.5042
  423TIP3    H122684   3.182   1.911   0.383  0.5659 -0.0768 -0.6435
  423TIP3    H222685   3.100   2.032   0.341 -1.6405 -0.4314  2.3319
  424TIP3   OH222686   0.304   2.121  13.895  0.5264 -0.2965 -0.3607
  424TIP3    H122687   0.254   2.190  13.938 -0.9875 -0.2866 -1.9665
  424TIP3    H222688   0.383   2.164  13.862  0.4815  0.2407  0.2297
  425TIP3   OH222689   0.293   0.185  12.090 -0.6828 -0.6417  0.0635
  425TIP3    H122690   0.247   0.259  12.052  1.6484  0.7605 -0.2625
  425TIP3    H222691   0.349   0.152  12.018 -0.1772 -1.3933  0.7817
  426TIP3   OH222692   1.195   0.792  14.936  0.1413  0.4176 -0.3782
  426TIP3    H122693   1.185   0.738  14.858  0.8959 -2.5079  1.3724
  426TIP3    H222694   1.281   0.833  14.927  0.7822 -0.9200 -0.5383
  427TIP3   OH222695   5.055   5.299   0.710  0.2028  0.9994 -0.6601
  427TIP3    H122696   5.014   5.283   0.794  1.2308  2.9379  0.2965
  427TIP3    H222697   5.148   5.285   0.725  0.1801 -1.7376 -2.3648
  428TIP3   OH222698   2.666   3.859  15.152  0.1055 -0.1321  0.0303
  428TIP3    H122699   2.664   3.916  15.229  0.5476  0.0970 -0.1279
  428TIP3    H222700   2.751   3.815  15.156  0.7371  0.9202 -1.0732
  429TIP3   OH222701   2.998   4.230  12.682 -0.3459  0.0623 -0.0387
  429TIP3    H122702   2.918   4.265  12.642 -0.9666 -0.5568  0.6215
  429TIP3    H222703   3.069   4.275  12.637 -1.0345 -0.0154 -1.2592
  430TIP3   OH222704   3.218   1.900   2.751  0.0050  0.2506  0.0208
  430TIP3    H122705   3.180   1.984   2.726 -0.5418  0.2182  0.7336
  430TIP3    H222706   3.305   1.922   2.784  0.9500  0.2562 -2.2840
  431TIP3   OH222707   4.339   6.447   2.145 -0.4874  0.5524  0.3921
  431TIP3    H122708   4.339   6.474   2.053  2.1888  0.6905  0.3527
  431TIP3    H222709   4.282   6.370   2.147  2.8387 -2.3278 -2.4297
  432TIP3   OH222710   6.401   0.544  15.667 -0.2122 -0.7729  0.3405
  432TIP3    H122711   6.360   0.516  15.585  0.0988 -0.4042  0.0539
  432TIP3    H222712   6.370   0.633  15.681  0.1918 -0.6251  0.3183
  433TIP3   OH222713   3.783   0.769  15.474 -0.1862  0.5380 -0.3751
  433TIP3    H122714   3.864   0.819  15.471 -0.2048  0.5958  0.0198
  433TIP3    H222715   3.787   0.711  15.397  1.6417 -1.6332  1.2122
  434TIP3   OH222716   3.085   6.692   5.658  0.3988 -0.4672  0.1215
  434TIP3    H122717   3.036   6.614   5.633  0.8335 -0.2749 -1.4174
  434TIP3    H222718   3.091   6.744   5.578  0.7281  0.8184  0.9491
  435TIP3   OH222719   6.105   6.671  12.407  0.5930  0.1675  0.3970
  435TIP3    H122720   6.112   6.694  12.315 -0.4326 -0.0462  0.2613
  435TIP3    H222721   6.027   6.717  12.438 -0.0078 -1.0720  0.7565
  436TIP3   OH222722   3.769   5.527  11.715  0.2638  0.3718  0.8096
  436TIP3    H122723   3.746   5.591  11.648  1.3030  0.0268  0.0808
  436TIP3    H222724   3.795   5.579  11.791 -0.1558  0.7854  0.6695
  437TIP3   OH222725   2.221   0.250   2.505 -0.3545 -0.5809  0.4429
  437TIP3    H122726   2.248   0.243   2.414  0.1049 -2.0387  0.6518
  437TIP3    H222727   2.144   0.194   2.512 -1.0705  0.4152  0.7193
  438TIP3   OH222728   3.521   1.586  10.543  0.7275  1.0551 -0.6375
  438TIP3    H122729   3.484   1.511  10.589 -0.9634  0.3235 -3.0074
  438TIP3    H222730   3.608   1.556  10.515  1.1327  0.9644  0.6500
  439TIP3   OH222731   1.324   6.680  11.829 -0.2844 -0.3830 -0.3307
  439TIP3    H122732   1.410   6.673  11.787  0.0004 -0.4328  0.2530
  439TIP3    H222733   1.261   6.671  11.757  0.2055  0.1424 -0.8299
  440TIP3   OH222734   2.978   6.374  14.287  0.0863 -0.2896 -0.0635
  440TIP3    H122735   2.988   6.357  14.381  2.0150 -3.4099 -0.7103
  440TIP3    H222736   3.062   6.412  14.261 -0.1665 -0.1464 -0.6779
  441TIP3   OH222737   3.653   0.436  13.978  0.3668  0.5111 -0.4862
  441TIP3    H122738   3.690   0.419  14.065  0.8755 -1.9639 -1.1040
  441TIP3    H222739   3.711   0.502  13.940  0.9048  0.6594  0.5505
  442TIP3   OH222740   3.002   0.228  13.251  0.1583  0.7121 -0.2282
  442TIP3    H122741   2.940   0.156  13.238 -0.5702  1.6549 -2.3757
  442TIP3    H222742   3.078   0.203  13.198  0.5586  0.7736  0.3160
  443TIP3   OH222743   5.415   5.076  13.148  0.6691 -0.0403 -0.5299
  443TIP3    H122744   5.489   5.091  13.206 -0.0344 -1.3748  0.7795
  443TIP3    H222745   5.388   5.164  13.121  1.1396  0.6241  1.0401
  444TIP3   OH222746   0.712   1.650   1.891 -0.1968 -0.1638 -0.5366
  444TIP3    H122747   0.795   1.604   1.875 -0.2209 -0.2203 -0.5033
  444TIP3    H222748   0.695   1.635   1.985 -0.3182 -0.2753 -0.5756
  445TIP3   OH222749   2.213   1.093  15.672 -0.5953  0.2245  0.0003
  445TIP3    H122750   2.233   1.018  15.728 -1.4682  0.8293  1.1397
  445TIP3    H222751   2.119   1.107  15.683 -0.3438  1.8738  0.2950
  446TIP3   OH222752   3.083   6.781   3.311 -0.6780  0.7326 -0.0041
  446TIP3    H122753   3.004   6.827   3.337 -1.3177 -0.2049 -0.2466
  446TIP3    H222754   3.078   6.696   3.354  1.1309  1.3163  1.5091
  447TIP3   OH222755   2.180   5.242  14.420  0.2374  0.0287  0.0794
  447TIP3    H122756   2.184   5.147  14.413  2.6821 -0.1721  2.3232
  447TIP3    H222757   2.108   5.259  14.480 -0.5603 -0.3465 -0.7610
  448TIP3   OH222758   5.165   0.654  15.684 -0.4830  0.8212 -0.4868
  448TIP3    H122759   5.131   0.609  15.607 -0.2755  1.0078 -0.6863
  448TIP3    H222760   5.209   0.732  15.649 -0.0734  0.7163 -0.2069
  449TIP3   OH222761   3.876   0.290   1.053  0.1032  0.6159  0.4791
  449TIP3    H122762   3.785   0.321   1.046 -0.2207 -0.2302  0.7554
  449TIP3    H222763   3.867   0.197   1.074  1.0434  0.3112 -0.4301
  450TIP3   OH222764   4.382   3.673   0.579 -0.3914  0.0827 -0.2664
  450TIP3    H122765   4.415   3.587   0.606 -1.5190 -0.0494  0.7954
  450TIP3    H222766   4.376   3.667   0.484 -1.2970 -1.3592 -0.1523
  451TIP3   OH222767   3.609   3.298  16.553  0.8553  0.3217  0.2179
  451TIP3    H122768   3.570   3.259  16.631  1.2376  2.2013  1.4337
  451TIP3    H222769   3.534   3.327  16.501  0.5668  1.2114  1.0851
  452TIP3   OH222770   0.109   6.766   0.606 -0.2347  0.0327  0.0458
  452TIP3    H122771   0.028   6.816   0.595 -1.2426 -1.9189 -2.5139
  452TIP3    H222772   0.137   6.748   0.516  2.2185 -0.6882  0.8918
  453TIP3   OH222773   1.993   1.463  12.140 -0.1941  0.0120 -0.3091
  453TIP3    H122774   2.068   1.490  12.086 -2.0170  2.7667 -1.7154
  453TIP3    H222775   1.938   1.413  12.080  0.4672 -2.1228  0.7602
  454TIP3   OH222776   5.990   4.334  16.951  0.0965  0.2514 -0.2376
  454TIP3    H122777   6.033   4.265  16.901  3.0281  0.1892  2.0831
  454TIP3    H222778   5.908   4.295  16.981 -1.0055 -0.2046 -3.4920
  455TIP3   OH222779   2.863   4.384   2.828 -0.1231 -0.3086 -0.1674
  455TIP3    H122780   2.890   4.337   2.749 -1.0366 -0.8895 -0.1593
  455TIP3    H222781   2.901   4.335   2.900 -1.2517 -1.2121 -0.1476
  456TIP3   OH222782   4.357   5.960  12.307 -0.0921 -0.2341  0.2113
  456TIP3    H122783   4.271   6.001  12.310 -0.0204 -0.1383  1.4768
  456TIP3    H222784   4.346   5.878  12.355  0.2984 -0.6802 -0.4404
  457TIP3   OH222785   2.069   0.094  15.342  0.1897 -0.3634 -0.0098
  457TIP3    H122786   2.063   0.188  15.356 -2.6470 -0.4736  0.0216
  457TIP3    H222787   2.102   0.084  15.253  2.4207  0.5620  0.6393
  458TIP3   OH222788   5.868   2.729   3.568 -0.4784  0.8006 -0.1777
  458TIP3    H122789   5.922   2.651   3.560 -1.0250  0.5473 -1.8715
  458TIP3    H222790   5.867   2.767   3.480 -0.5385  2.5232  0.5166
  459TIP3   OH222791   6.281   2.821   1.941  0.0719  0.7269  0.1828
  459TIP3    H122792   6.224   2.844   2.015 -0.5573 -0.9250  0.2695
  459TIP3    H222793   6.289   2.725   1.947  1.4571  0.7599 -0.8607
  460TIP3   OH222794   1.743   1.581   2.982 -0.1668 -0.0337  0.6900
  460TIP3    H122795   1.666   1.635   3.000 -0.4845  0.2449 -1.2931
  460TIP3    H222796   1.813   1.644   2.967 -0.0748 -0.2258  0.3153
  461TIP3   OH222797   4.611   5.038   6.166 -0.1842 -0.1201 -0.2550
  461TIP3    H122798   4.658   4.969   6.214  1.5142  0.2364 -1.3267
  461TIP3    H222799   4.560   5.084   6.233  1.6433 -0.0190  1.1331
  462TIP3   OH222800   3.709   4.780   4.151 -0.8009  0.2301 -0.5704
  462TIP3    H122801   3.780   4.795   4.088 -1.4370  1.6232 -0.9836
  462TIP3    H222802   3.738   4.824   4.230 -0.8477  0.0909 -0.4744
  463TIP3   OH222803   6.065   3.259  11.605 -0.1822 -0.4505  0.2247
  463TIP3    H122804   6.105   3.190  11.553  0.4072 -1.1567  1.5790
  463TIP3    H222805   6.015   3.310  11.541 -1.3926 -2.6374 -0.6870
  464TIP3   OH222806   1.066   2.193  16.792  0.0272  0.1111  0.4697
  464TIP3    H122807   0.973   2.216  16.803 -0.2098 -1.4763  2.5008
  464TIP3    H222808   1.067   2.135  16.716 -1.4932 -3.4021  2.8358
  465TIP3   OH222809   0.065   4.089   3.277  0.1626  0.3216 -0.5478
  465TIP3    H122810   0.026   4.156   3.334  0.9201  0.6659 -0.4204
  465TIP3    H222811   0.117   4.035   3.336  0.4057  0.2644 -0.8131
  466TIP3   OH222812   5.552   2.463   2.442  0.0020  0.2378 -0.0395
  466TIP3    H122813   5.503   2.383   2.462  0.0703  0.3437  0.5726
  466TIP3    H222814   5.487   2.533   2.452 -0.0010  0.2820 -0.3509
  467TIP3   OH222815   2.032   0.203   3.793 -0.2136  0.0763  0.1724
  467TIP3    H122816   2.005   0.227   3.882 -0.6140  0.9169 -0.1686
  467TIP3    H222817   1.994   0.270   3.737 -0.6197 -0.8727 -0.7308
  468TIP3   OH222818   5.994   3.720   1.167 -0.0028  0.6686 -0.1091
  468TIP3    H122819   5.928   3.733   1.235  0.3536  1.8098  0.0291
  468TIP3    H222820   6.022   3.629   1.178  1.0990  1.2022  2.2373
  469TIP3   OH222821   3.011   0.027   0.542  0.3765 -0.7474  0.7419
  469TIP3    H122822   3.064   0.106   0.535  1.0567 -1.1677  1.0507
  469TIP3    H222823   3.005   0.010   0.635  1.0226 -1.5647  0.6502
  470TIP3   OH222824   1.459   5.789   3.304 -0.3641 -0.0569  0.5345
  470TIP3    H122825   1.523   5.731   3.263 -1.7814 -1.2230 -0.1668
  470TIP3    H222826   1.458   5.867   3.249  0.6879  0.1245  0.7631
  471TIP3   OH222827   3.598   5.403   2.040  0.2474 -0.7682  0.6313
  471TIP3    H122828   3.537   5.384   2.112 -1.2694  0.5395 -0.2567
  471TIP3    H222829   3.648   5.479   2.070  1.1084 -1.4960  1.1217
  472TIP3   OH222830   5.673   0.482   1.485 -0.3520  0.6375  0.5495
  472TIP3    H122831   5.656   0.547   1.553 -0.7163  0.7256  0.3775
  472TIP3    H222832   5.611   0.412   1.503  0.0295  0.3455  0.7250
  473TIP3   OH222833   4.711   1.203  16.303  0.1411  0.5656 -0.0576
  473TIP3    H122834   4.796   1.178  16.266  0.2270 -0.9735  1.1162
  473TIP3    H222835   4.654   1.211  16.227  0.8649 -0.2867 -0.7101
  474TIP3   OH222836   3.790   0.145   5.343 -0.3795 -0.8409  0.1651
  474TIP3    H122837   3.801   0.133   5.438 -0.5483 -1.6970  0.0857
  474TIP3    H222838   3.729   0.219   5.336 -0.3309 -0.7371  0.7207
  475TIP3   OH222839   1.169   4.208  12.804  0.4401  0.2235  0.0108
  475TIP3    H122840   1.128   4.191  12.719  0.4892  1.3612 -0.2584
  475TIP3    H222841   1.114   4.277  12.843  1.2740  0.7608  0.2503
  476TIP3   OH222842   4.312   5.149   1.415  0.5605  0.4949  0.2531
  476TIP3    H122843   4.234   5.203   1.422 -0.1010 -0.3374 -0.5444
  476TIP3    H222844   4.336   5.153   1.322  1.9916  1.4503  0.6332
  477TIP3   OH222845   4.319   4.245  15.919  0.0175 -0.1210  0.0684
  477TIP3    H122846   4.378   4.184  15.876 -2.0601 -1.2881 -1.2617
  477TIP3    H222847   4.311   4.212  16.009  1.1551 -0.0862  0.1884
  478TIP3   OH222848   0.365   4.242  12.730 -0.6984 -0.2135 -0.4373
  478TIP3    H122849   0.451   4.212  12.700 -0.4111 -0.2065  0.3479
  478TIP3    H222850   0.311   4.243  12.651  0.9596  3.3759 -1.7225
  479TIP3   OH222851   0.176   6.727  14.531  0.0220 -0.2585  0.6119
  479TIP3    H122852   0.226   6.658  14.489  0.0656  0.5943 -0.7847
  479TIP3    H222853   0.122   6.764  14.462 -0.0619  1.0501  1.3393
  480TIP3   OH222854   4.470   1.444   4.956 -0.8908  0.1002  0.1787
  480TIP3    H122855   4.563   1.457   4.941 -0.9114 -0.8592 -0.9108
  480TIP3    H222856   4.449   1.503   5.028  0.3258  1.1726 -0.2977
  481TIP3   OH222857   4.406   2.399   1.963 -0.2153 -0.6050 -0.4094
  481TIP3    H122858   4.490   2.353   1.958 -0.0783 -0.8115  2.5177
  481TIP3    H222859   4.343   2.332   1.989 -1.2783 -0.3511 -2.1249
  482TIP3   OH222860   0.270   5.202  13.232  0.1404 -0.1758 -0.1936
  482TIP3    H122861   0.206   5.135  13.256 -0.4024 -0.1717 -1.5604
  482TIP3    H222862   0.235   5.283  13.270 -0.2403 -0.3145 -0.2464
  483TIP3   OH222863   5.859   1.026  13.721 -0.3453  0.0007 -0.1358
  483TIP3    H122864   5.797   1.046  13.791  0.5390  0.0052  0.6622
  483TIP3    H222865   5.814   1.052  13.641 -2.0104 -1.4481  0.2677
  484TIP3   OH222866   4.456   2.520  11.800  0.6781 -0.6557 -0.1973
  484TIP3    H122867   4.441   2.566  11.718  1.0879  2.6253  1.4224
  484TIP3    H222868   4.413   2.573  11.867  2.7998 -1.5629  2.0757
  485TIP3   OH222869   4.582   1.128  16.070 -0.3566  0.4496 -0.1355
  485TIP3    H122870   4.643   1.121  15.997 -0.2750  1.3051 -0.1554
  485TIP3    H222871   4.499   1.096  16.035 -0.2303  0.5073 -0.4930
  486TIP3   OH222872   3.741   0.224   4.403  0.4613  0.1113 -0.1309
  486TIP3    H122873   3.717   0.261   4.488  0.7117 -0.3217  0.1311
  486TIP3    H222874   3.837   0.217   4.406  0.4651  0.0261 -0.4248
  487TIP3   OH222875   1.456   1.513   1.839  0.1629 -0.6936  1.0063
  487TIP3    H122876   1.506   1.441   1.798 -0.3425 -0.4205 -0.1231
  487TIP3    H222877   1.463   1.585   1.777 -1.9709 -0.7681  0.6300
  488TIP3   OH222878   3.141   6.200   0.294  0.3246 -0.5473  0.3066
  488TIP3    H122879   3.224   6.246   0.309  0.6797 -1.1650  0.2652
  488TIP3    H222880   3.075   6.269   0.297  1.2140  1.1395 -5.6445
  489TIP3   OH222881   1.240   6.188   0.473  0.3006 -0.0753  0.1718
  489TIP3    H122882   1.145   6.205   0.470 -0.4691 -3.5462  0.0494
  489TIP3    H222883   1.259   6.177   0.566  0.7069  0.9759  0.2268
  490TIP3   OH222884   1.655   0.726  10.500  0.4827  0.5618  0.2910
  490TIP3    H122885   1.600   0.804  10.515 -0.8721 -0.4889  1.0143
  490TIP3    H222886   1.705   0.747  10.421 -1.6797  1.2135 -0.9901
  491TIP3   OH222887   4.845   3.823   2.751 -0.2033 -0.0871  0.1064
  491TIP3    H122888   4.920   3.788   2.801 -0.1891  1.2023  1.0349
  491TIP3    H222889   4.774   3.828   2.815  0.1017  2.5626  0.3377
  492TIP3   OH222890   0.437   3.144  11.532  0.1007  0.2419 -0.0964
  492TIP3    H122891   0.397   3.217  11.484  1.3949  1.8210  1.1068
  492TIP3    H222892   0.530   3.151  11.513  0.1097 -2.4713 -1.6680
  493TIP3   OH222893   1.904   6.555  13.176 -0.2618  0.1050 -0.1565
  493TIP3    H122894   1.991   6.535  13.211  0.2168  0.8387 -0.9034
  493TIP3    H222895   1.873   6.628  13.229 -0.2729  0.0858 -0.1358
  494TIP3   OH222896   2.763   6.385  16.319  0.2729  0.2884 -0.3875
  494TIP3    H122897   2.775   6.310  16.378  0.3321  1.6548  1.4082
  494TIP3    H222898   2.707   6.351  16.249  1.3470 -1.7689 -0.3376
  495TIP3   OH222899   2.369   2.268  12.023  0.5357 -0.1561  0.9595
  495TIP3    H122900   2.375   2.191  12.080  0.6389 -0.7719  0.1482
  495TIP3    H222901   2.303   2.323  12.063  0.6693 -0.5376  1.7156
  496TIP3   OH222902   1.969   1.655  14.556 -0.2765 -0.2438  0.0859
  496TIP3    H122903   1.958   1.724  14.490  2.3156 -0.0571 -0.2699
  496TIP3    H222904   1.914   1.681  14.629  2.2727  3.5715  0.9347
  497TIP3   OH222905   5.924   0.654  11.618  0.0811  0.2142 -0.3626
  497TIP3    H122906   5.978   0.731  11.604  0.0335  0.2176 -0.5405
  497TIP3    H222907   5.900   0.656  11.710  1.6082 -0.5847  0.0808
  498TIP3   OH222908   0.530   0.953  14.581 -0.4740 -0.0971  0.5531
  498TIP3    H122909   0.619   0.924  14.604 -0.1253  0.2492 -0.3210
  498TIP3    H222910   0.515   1.030  14.636 -0.3475 -0.3312  0.9176
  499TIP3   OH222911   3.407   2.162  13.983 -0.1882 -0.3689  0.2101
  499TIP3    H122912   3.499   2.138  13.987 -0.2310 -0.4147  2.8813
  499TIP3    H222913   3.368   2.095  13.926  1.5060  0.2197 -1.7760
  500TIP3   OH222914   1.699   5.619  13.792 -0.9055 -0.6650 -0.0223
  500TIP3    H122915   1.721   5.572  13.872 -0.1016 -0.9385 -0.3928
  500TIP3    H222916   1.655   5.699  13.822  2.1503  0.8345  0.9009
  501TIP3   OH222917   5.674   2.395   4.901 -0.1171  0.3624 -0.0855
  501TIP3    H122918   5.604   2.453   4.933  0.4727  1.2394 -0.3378
  501TIP3    H222919   5.725   2.374   4.979 -0.4177  0.0689  0.0308
  502TIP3   OH222920   3.058   4.913   0.423  0.2932  0.3256 -0.1384
  502TIP3    H122921   3.120   4.975   0.461 -0.1354 -0.2786  1.6523
  502TIP3    H222922   3.106   4.830   0.419 -0.5608 -0.3118  1.9107
  503TIP3   OH222923   0.225   5.409  15.219 -0.1366  0.0826  0.0171
  503TIP3    H122924   0.290   5.345  15.247 -0.4021 -0.7361 -1.1303
  503TIP3    H222925   0.160   5.357  15.171 -0.5836  1.1626 -0.5800
  504TIP3   OH222926   2.736   0.203  12.882 -0.4845 -0.0449  0.0901
  504TIP3    H122927   2.810   0.144  12.899 -0.1638 -0.0346 -1.1360
  504TIP3    H222928   2.696   0.217  12.968 -0.1930 -1.5417  0.5015
  505TIP3   OH222929   1.721   0.323   1.586 -0.2992  0.1027 -0.2094
  505TIP3    H122930   1.743   0.366   1.503 -1.7351 -1.1114 -1.2803
  505TIP3    H222931   1.656   0.381   1.626 -0.8738 -0.1387 -0.7734
  506TIP3   OH222932   3.193   4.346  12.536 -0.3301 -0.2620  0.2631
  506TIP3    H122933   3.205   4.424  12.482  0.0609 -0.7583 -0.3711
  506TIP3    H222934   3.266   4.289  12.513 -0.6200 -0.8254  0.7144
  507TIP3   OH222935   4.254   6.357  14.656  0.2015 -0.0362  0.2904
  507TIP3    H122936   4.329   6.413  14.634  0.5751 -0.2999  0.8783
  507TIP3    H222937   4.290   6.269  14.655 -0.0137 -0.1334  0.9535
  508TIP3   OH222938   3.093   5.920   2.828  0.1805  0.2204 -0.3285
  508TIP3    H122939   3.109   5.857   2.897  0.5879  0.3805 -0.2741
  508TIP3    H222940   3.176   5.926   2.781  0.3613  1.2288  0.0941
  509TIP3   OH222941   0.763   3.952   3.758  0.5130 -0.2446 -0.5882
  509TIP3    H122942   0.713   3.996   3.826  0.3854  0.2077 -0.9700
  509TIP3    H222943   0.700   3.894   3.715  0.3337  0.2457 -0.9990
  510TIP3   OH222944   5.752   5.901  12.664  0.0328 -0.0776  0.1124
  510TIP3    H122945   5.680   5.849  12.629 -0.6200  0.1072  1.1434
  510TIP3    H222946   5.804   5.839  12.714  0.2611 -0.0896 -0.1363
  511TIP3   OH222947   3.053   2.761   5.896 -0.3855  1.0809  0.0813
  511TIP3    H122948   3.043   2.690   5.960 -2.0094 -1.6442 -2.8839
  511TIP3    H222949   3.141   2.749   5.861  0.4496  2.4854  1.5517
  512TIP3   OH222950   1.923   6.525  15.169 -0.4829 -0.4268  0.0478
  512TIP3    H122951   1.841   6.477  15.179 -1.1948  1.1452  3.0729
  512TIP3    H222952   1.902   6.614  15.195  2.3729 -0.2295  2.1740
  513TIP3   OH222953   5.993   6.474   2.234  0.4993  0.8815 -0.1195
  513TIP3    H122954   6.056   6.492   2.304  0.7252  0.6239 -0.2514
  513TIP3    H222955   5.926   6.420   2.275  0.0799  1.6027  0.1541
  514TIP3   OH222956   6.507   2.531  15.898 -0.1251  0.2582  0.5950
  514TIP3    H122957   6.475   2.443  15.916 -0.0796  0.1734  0.2733
  514TIP3    H222958   6.597   2.531  15.930  0.5800 -0.4645 -1.2255
  515TIP3   OH222959   2.899   2.358  10.864  0.7751  0.3236 -0.0630
  515TIP3    H122960   2.963   2.424  10.836  0.5335  0.6703  0.1864
  515TIP3    H222961   2.900   2.363  10.960 -0.2511  0.9574 -0.0651
  516TIP3   OH222962   3.423   6.786  11.875  0.0563 -0.4163  0.5918
  516TIP3    H122963   3.401   6.701  11.838  1.2762 -1.1840  1.5465
  516TIP3    H222964   3.370   6.792  11.955 -0.7500  0.1628  0.0269
  517TIP3   OH222965   5.938   2.077   0.081  0.5018 -0.2325  0.1325
  517TIP3    H122966   5.953   2.055   0.172 -1.1885 -1.6949  0.1096
  517TIP3    H222967   5.989   2.156   0.066  0.9309 -0.0654  2.2907
  518TIP3   OH222968   2.895   0.545   3.193  0.2927  0.9045  0.1502
  518TIP3    H122969   2.806   0.568   3.220  0.8086  1.2875  1.6268
  518TIP3    H222970   2.905   0.584   3.105 -0.9941  0.8129 -0.0458
  519TIP3   OH222971   3.188   3.203  14.780  0.0043 -0.1888 -0.1858
  519TIP3    H122972   3.236   3.128  14.744  1.9034  0.5748  0.6665
  519TIP3    H222973   3.221   3.213  14.869 -0.9548  1.0599  0.0590
  520TIP3   OH222974   3.439   0.253  14.259  0.0784 -0.8939 -0.3480
  520TIP3    H122975   3.370   0.304  14.218  0.5823 -0.5284 -0.7650
  520TIP3    H222976   3.488   0.215  14.186 -0.8384 -2.7817 -0.0493
  521TIP3   OH222977   6.019   2.573  13.310  0.2210 -0.0268 -0.2599
  521TIP3    H122978   6.034   2.601  13.220  1.2720 -0.7695 -0.3321
  521TIP3    H222979   6.087   2.507  13.326  1.1224  1.2826  1.6203
  522TIP3   OH222980   5.546   4.632  16.840  0.1877  0.2705  0.4097
  522TIP3    H122981   5.583   4.613  16.754 -0.2782 -0.1728  0.3042
  522TIP3    H222982   5.611   4.598  16.902  1.4650  2.3442  0.2759
  523TIP3   OH222983   1.634   0.553  16.737 -0.1728  0.0509 -0.5854
  523TIP3    H122984   1.618   0.586  16.825  0.4090  0.3918 -0.6082
  523TIP3    H222985   1.583   0.612  16.681 -0.2432  0.0615 -0.5117
  524TIP3   OH222986   2.063   4.526   3.786 -0.2376 -0.1274 -0.0368
  524TIP3    H122987   1.979   4.556   3.750 -0.5785 -1.2816 -0.2463
  524TIP3    H222988   2.061   4.431   3.776  1.1468 -0.1658 -0.1212
  525TIP3   OH222989   4.166   3.768   1.155  0.4691 -0.6368  0.3208
  525TIP3    H122990   4.214   3.747   1.075 -1.9364  0.2605 -1.4867
  525TIP3    H222991   4.170   3.864   1.161  0.0740 -0.6483  0.9041
  526TIP3   OH222992   4.463   4.024  11.274  0.1737  0.2255 -0.1595
  526TIP3    H122993   4.494   4.100  11.324  1.3510 -1.7190  2.2778
  526TIP3    H222994   4.368   4.023  11.287  0.2819  0.6706  0.7416
  527TIP3   OH222995   2.454   1.772   2.636 -0.3672 -0.2097  0.4042
  527TIP3    H122996   2.490   1.860   2.643 -1.7017  0.4597 -0.7472
  527TIP3    H222997   2.437   1.760   2.543 -0.0954 -1.7416  0.5277
  528TIP3   OH222998   2.254   0.299   3.025  0.7684  0.2882  0.1627
  528TIP3    H122999   2.325   0.315   3.087 -0.7353  2.5323  1.4592
  528TIP3    H223000   2.178   0.342   3.064 -1.5525 -2.6223 -0.7733
  529TIP3   OH223001   5.881   1.825   4.529 -0.2244  0.0880  0.6333
  529TIP3    H123002   5.899   1.822   4.623 -1.1970  1.4741  0.8908
  529TIP3    H223003   5.834   1.744   4.511  0.9612 -0.7302  1.1033
  530TIP3   OH223004   5.988   6.244   6.299  0.0704 -0.3772  0.1467
  530TIP3    H123005   6.000   6.176   6.233  0.4717 -0.0904 -0.0821
  530TIP3    H223006   5.937   6.312   6.255  1.5601  0.4734 -0.3574
  531TIP3   OH223007   1.366   4.274  16.805 -0.4000 -0.0374  0.0323
  531TIP3    H123008   1.275   4.290  16.783  0.1742  2.9090 -0.5557
  531TIP3    H223009   1.408   4.256  16.720  0.0904  1.7892 -0.1452
  532TIP3   OH223010   4.484   2.956  14.319 -0.4848 -0.8608 -0.4284
  532TIP3    H123011   4.561   2.904  14.342 -1.9609 -2.5370  1.0419
  532TIP3    H223012   4.461   3.002  14.400 -0.5025  0.3940 -1.1154
  533TIP3   OH223013   1.173   5.095   1.771 -0.0031 -0.6496  0.3222
  533TIP3    H123014   1.242   5.086   1.705 -0.7616 -0.5430 -0.5049
  533TIP3    H223015   1.216   5.136   1.845  0.3484  1.5189 -0.9899
  534TIP3   OH223016   4.949   6.670   4.580  0.2460 -0.2168  0.4244
  534TIP3    H123017   4.983   6.736   4.519  0.5505  0.0736  0.9033
  534TIP3    H223018   4.895   6.719   4.641  1.0143 -0.3024  1.1875
  535TIP3   OH223019   4.837   2.466  13.280  0.3781 -0.0124 -0.2558
  535TIP3    H123020   4.902   2.481  13.212  1.1951  2.5090  0.9571
  535TIP3    H223021   4.799   2.381  13.259  1.8393 -0.1280 -2.8010
  536TIP3   OH223022   1.363   3.908  12.121 -0.0068 -0.0591 -0.0277
  536TIP3    H123023   1.288   3.943  12.073  0.0655  0.0782 -0.0391
  536TIP3    H223024   1.376   3.970  12.193 -1.2497 -1.1878  1.2495
  537TIP3   OH223025   5.667   3.187  13.020 -0.5454  0.3652  0.0529
  537TIP3    H123026   5.723   3.258  12.988 -1.5959  1.8371  1.3137
  537TIP3    H223027   5.721   3.139  13.082 -0.1264  0.6622 -0.0811
  538TIP3   OH223028   3.163   3.589  15.693 -0.5172 -0.5120 -0.1980
  538TIP3    H123029   3.223   3.531  15.741 -0.3855  0.8328  1.3701
  538TIP3    H223030   3.116   3.636  15.762 -1.4129  0.4409 -1.4173
  539TIP3   OH223031   0.590   3.965   0.000 -0.3009  0.4926 -0.4843
  539TIP3    H123032   0.566   4.051  -0.035  0.5899  0.6550 -0.7174
  539TIP3    H223033   0.560   3.903  -0.066 -0.5109  0.6525 -0.5406
  540TIP3   OH223034   0.571   2.338  14.401 -0.2174 -0.2270 -0.0230
  540TIP3    H123035   0.636   2.320  14.333  0.6109 -1.9042  1.1282
  540TIP3    H223036   0.569   2.433  14.408 -0.7721  0.0356 -2.7611
  541TIP3   OH223037   4.435   0.353  13.988 -0.2270 -0.0472 -0.0800
  541TIP3    H123038   4.349   0.361  13.946 -0.5006 -2.2908 -0.0649
  541TIP3    H223039   4.479   0.284  13.939  1.5036  0.8724  0.0942
  542TIP3   OH223040   6.209   1.457  12.376  0.2842 -0.1167  0.0668
  542TIP3    H123041   6.275   1.524  12.360 -1.1385  1.4436  0.4247
  542TIP3    H223042   6.189   1.463  12.469 -0.6356 -0.2687 -0.1031
  543TIP3   OH223043   3.020   3.589   5.400  0.2946  0.8423 -0.5292
  543TIP3    H123044   3.094   3.635   5.361  0.8053 -0.7547 -1.5336
  543TIP3    H223045   2.964   3.565   5.326  0.5365 -0.9509 -0.1867
  544TIP3   OH223046   2.128   2.793  12.709  0.5333 -0.1912 -0.1875
  544TIP3    H123047   2.142   2.708  12.751  1.3315  1.3309  2.9407
  544TIP3    H223048   2.209   2.841  12.726 -0.6272  1.8473 -0.1412
  545TIP3   OH223049   0.550   0.714  14.777 -0.2087  0.3781 -0.0488
  545TIP3    H123050   0.550   0.800  14.820  2.9554  0.8291 -0.7414
  545TIP3    H223051   0.468   0.713  14.728 -1.3977  2.0353  1.7126
  546TIP3   OH223052   1.320   6.608  14.847 -0.3315  0.9493  0.3379
  546TIP3    H123053   1.344   6.701  14.841  0.3910  0.9149  2.1689
  546TIP3    H223054   1.345   6.582  14.935 -1.2012 -0.8197  0.1099
  547TIP3   OH223055   4.990   0.247   5.110  0.0640  0.1966 -0.1146
  547TIP3    H123056   4.910   0.213   5.150  0.1137 -0.6323 -0.6986
  547TIP3    H223057   5.061   0.197   5.150  0.0978 -0.7971 -1.3809
  548TIP3   OH223058   2.962   1.099  12.612  0.0961  0.1874  0.2868
  548TIP3    H123059   2.943   1.066  12.700  1.4537 -0.7503  0.2522
  548TIP3    H223060   2.991   1.189  12.626 -0.2283  0.2286  0.7310
  549TIP3   OH223061   5.038   2.052   0.438 -0.0801 -0.0259 -0.6989
  549TIP3    H123062   4.968   1.997   0.403  0.1998 -0.3397 -0.7735
  549TIP3    H223063   5.095   2.069   0.362  1.3349 -1.9219 -0.1401
  550TIP3   OH223064   5.552   5.676  17.035 -0.2198  0.0561  0.2575
  550TIP3    H123065   5.598   5.603  16.993 -0.9772  0.0044 -0.5120
  550TIP3    H223066   5.467   5.640  17.060 -1.2853  1.0562 -1.6652
  551TIP3   OH223067   6.081   4.769  12.802 -0.3243  0.4403  0.2565
  551TIP3    H123068   6.106   4.752  12.893  0.6427 -0.3047 -0.1298
  551TIP3    H223069   6.163   4.794  12.759  0.0177 -2.6624 -1.1915
  552TIP3   OH223070   0.286   5.357   5.824  0.6691 -0.1818  0.1456
  552TIP3    H123071   0.276   5.418   5.897  0.2472 -1.5357  1.2694
  552TIP3    H223072   0.230   5.393   5.755  0.4388  0.7038  0.7716
  553TIP3   OH223073   0.845   2.553   4.463  0.4362 -0.1646  0.5355
  553TIP3    H123074   0.824   2.505   4.383  0.9136  0.8692 -0.2374
  553TIP3    H223075   0.762   2.561   4.508 -0.2304  0.8846 -0.8023
  554TIP3   OH223076   5.220   5.813   4.138  0.5887 -0.7651 -0.0669
  554TIP3    H123077   5.127   5.834   4.130  0.1737 -2.2548  0.5138
  554TIP3    H223078   5.252   5.872   4.206 -0.1018 -0.7750  0.2759
  555TIP3   OH223079   4.419   3.475   2.536 -0.3548  0.6476  0.1565
  555TIP3    H123080   4.512   3.496   2.546 -0.6728  2.1013  0.2757
  555TIP3    H223081   4.417   3.406   2.470  0.8130  0.5472  0.2010
  556TIP3   OH223082   4.119   2.037   3.071  0.1700  0.1725  0.2527
  556TIP3    H123083   4.200   2.073   3.034 -0.2760 -0.4158 -1.3682
  556TIP3    H223084   4.146   1.997   3.153  0.9870  2.6441  1.2945
  557TIP3   OH223085   6.404   6.542  15.963 -0.3434 -0.2184  0.0683
  557TIP3    H123086   6.412   6.453  15.996  2.1013 -1.2417 -2.8064
  557TIP3    H223087   6.346   6.535  15.887  2.2837 -0.1470 -2.1142
  558TIP3   OH223088   1.798   4.681   6.315 -0.3595  0.1830  0.1486
  558TIP3    H123089   1.719   4.687   6.368  0.6610 -0.7950  1.8883
  558TIP3    H223090   1.867   4.657   6.378  1.0426 -0.4123 -1.5390
  559TIP3   OH223091   2.705   4.506  14.373 -0.9615  0.1262 -0.0909
  559TIP3    H123092   2.772   4.497  14.440 -0.7138  1.7559 -0.0616
  559TIP3    H223093   2.654   4.583  14.401 -2.7159 -0.9329 -0.2237
  560TIP3   OH223094   2.676   3.414  11.094  0.3319 -0.4099  0.0378
  560TIP3    H123095   2.717   3.498  11.116  1.2902 -0.8481 -0.0669
  560TIP3    H223096   2.728   3.379  11.022  0.3624 -1.4114  0.5276
  561TIP3   OH223097   3.795   1.616   0.281  0.1914  0.3353 -0.0592
  561TIP3    H123098   3.808   1.631   0.374  0.3138 -1.2439  0.1919
  561TIP3    H223099   3.877   1.646   0.240  1.9032 -2.7399  0.7871
  562TIP3   OH223100   3.598   2.170  15.776 -0.6370  0.4591  0.5305
  562TIP3    H123101   3.617   2.254  15.817  0.2874  0.3332  0.3727
  562TIP3    H223102   3.567   2.115  15.848  1.6346  0.0273  1.2607
  563TIP3   OH223103   2.220   3.671  14.460 -0.0604 -0.2167  0.1216
  563TIP3    H123104   2.281   3.742  14.437 -0.8274  0.0295 -1.2351
  563TIP3    H223105   2.155   3.671  14.390 -1.6953 -0.4283  1.5664
  564TIP3   OH223106   5.499   4.924   4.770  0.4344 -0.2787 -0.0855
  564TIP3    H123107   5.529   4.875   4.847 -0.1934 -0.6309 -0.0507
  564TIP3    H223108   5.443   4.862   4.723  0.9947 -0.1377 -0.9567
  565TIP3   OH223109   4.017   3.519  15.409 -0.7042  0.0409  0.0626
  565TIP3    H123110   4.099   3.474  15.426 -0.6168  0.1369 -0.1038
  565TIP3    H223111   4.015   3.531  15.314 -0.2907  1.2181  0.1898
  566TIP3   OH223112   4.829   5.378  16.450 -0.2406 -0.6569 -0.5238
  566TIP3    H123113   4.750   5.371  16.397 -0.7142 -0.4538  0.1457
  566TIP3    H223114   4.821   5.308  16.515  0.7630 -1.4891 -1.2451
  567TIP3   OH223115   3.610   2.193   0.708 -0.2463  0.1580 -0.5244
  567TIP3    H123116   3.541   2.259   0.703  0.4602  0.8675 -1.3222
  567TIP3    H223117   3.588   2.141   0.785 -2.7021 -0.8538 -1.7925
  568TIP3   OH223118   1.640   3.680  14.671  0.7170 -0.3142  0.8853
  568TIP3    H123119   1.576   3.647  14.607  0.1900 -0.6654  1.5796
  568TIP3    H223120   1.707   3.613  14.674  0.9683 -0.0948  0.3910
  569TIP3   OH223121   0.004   5.664  16.751 -0.5875  0.5511  0.8264
  569TIP3    H123122   0.013   5.708  16.835  1.4782 -0.4939  1.2117
  569TIP3    H223123  -0.087   5.680  16.725 -1.2918  0.8627  3.2591
  570TIP3   OH223124   6.476   1.601   3.205  0.3561  0.2104 -0.5415
  570TIP3    H123125   6.484   1.528   3.266  1.6495  1.4312  0.8180
  570TIP3    H223126   6.389   1.637   3.223  1.3290  1.5686  1.8496
  571TIP3   OH223127   6.818   0.803  11.966 -0.1868  0.4334  0.2678
  571TIP3    H123128   6.799   0.710  11.957  0.3697  0.4674 -1.8225
  571TIP3    H223129   6.732   0.845  11.971 -0.4410 -0.1629  1.0788
  572TIP3   OH223130   2.390   1.572  15.965 -0.2319 -0.2393  0.2176
  572TIP3    H123131   2.336   1.617  16.029  0.9405 -1.4715  2.1908
  572TIP3    H223132   2.339   1.495  15.941 -0.9428  0.5417 -0.8637
  573TIP3   OH223133   2.770   4.833   3.924 -0.0515 -0.0432  0.4353
  573TIP3    H123134   2.842   4.791   3.971  0.7726 -0.1926 -0.9070
  573TIP3    H223135   2.698   4.770   3.929  0.0828 -0.1421  1.2863
  574TIP3   OH223136   1.236   2.195  14.665 -0.1953 -0.2849  0.0970
  574TIP3    H123137   1.219   2.131  14.596  1.6594  0.0686 -0.7649
  574TIP3    H223138   1.289   2.263  14.622  1.4192 -0.2929  1.9422
  575TIP3   OH223139   1.117   1.296   5.459 -0.6542  0.5112 -0.5336
  575TIP3    H123140   1.156   1.360   5.399 -0.2476  0.7931  0.0178
  575TIP3    H223141   1.189   1.272   5.517 -1.4691  1.5829  0.9653
  576TIP3   OH223142   5.060   3.577   1.375  0.2661  0.1708 -0.7564
  576TIP3    H123143   5.002   3.653   1.366 -0.6895 -0.6517 -1.7423
  576TIP3    H223144   5.015   3.506   1.329  1.3470 -0.8919 -0.2340
  577TIP3   OH223145   2.875   3.527   1.434 -0.7733 -0.2851 -0.3364
  577TIP3    H123146   2.942   3.577   1.481 -1.9767  0.7778  0.2925
  577TIP3    H223147   2.912   3.438   1.427  0.9332  0.3899 -0.5188
  578TIP3   OH223148   2.647   0.750  11.200 -0.2165  0.2618  0.1806
  578TIP3    H123149   2.682   0.836  11.224 -0.5277  0.7522 -1.0150
  578TIP3    H223150   2.587   0.769  11.127 -1.9565 -0.6985  1.2852
  579TIP3   OH223151   5.446   4.642   1.862 -0.8659 -0.0607  0.0994
  579TIP3    H123152   5.428   4.715   1.804  0.4126 -0.2789 -0.5944
  579TIP3    H223153   5.362   4.624   1.904 -1.6182  0.6293 -1.0566
  580TIP3   OH223154   1.887   2.091  14.685 -0.2232 -0.6011 -0.4182
  580TIP3    H123155   1.798   2.067  14.709 -0.2624 -2.1380 -1.9529
  580TIP3    H223156   1.900   2.177  14.725 -1.8928 -0.9418  0.9795
  581TIP3   OH223157   6.608   2.335   1.644 -0.5465 -0.3681  0.0629
  581TIP3    H123158   6.672   2.404   1.627 -1.4945  0.4252 -0.4106
  581TIP3    H223159   6.659   2.255   1.646  0.7285  0.4324  1.6129
  582TIP3   OH223160   2.655   5.036   1.707  0.1219 -0.0722 -0.3291
  582TIP3    H123161   2.702   4.996   1.633  1.3257 -0.1524  0.4442
  582TIP3    H223162   2.689   4.990   1.784 -1.1962 -0.0725  0.2834
  583TIP3   OH223163   0.969   2.848   0.175 -0.0024  0.2083 -0.1158
  583TIP3    H123164   0.897   2.835   0.113 -0.0871 -0.1280  0.0515
  583TIP3    H223165   0.947   2.791   0.249  0.1892  0.4726  0.1464
  584TIP3   OH223166   4.800   2.337  13.621  0.0865  0.0995 -0.6125
  584TIP3    H123167   4.859   2.271  13.657  0.2017  0.4098 -0.2236
  584TIP3    H223168   4.762   2.296  13.544  0.5871 -0.2115 -0.6965
  585TIP3   OH223169   1.032   6.512   1.069 -0.7009 -0.1222 -0.1752
  585TIP3    H123170   1.120   6.501   1.104 -0.9309  2.5888  1.5186
  585TIP3    H223171   1.044   6.567   0.991 -0.9234  0.7048  0.3672
  586TIP3   OH223172   4.516   4.706   5.482  0.1687 -0.1573  0.3527
  586TIP3    H123173   4.508   4.802   5.489 -0.0666 -0.1215 -0.3374
  586TIP3    H223174   4.520   4.676   5.573 -4.0197  0.1594  0.8631
  587TIP3   OH223175   1.254   1.356  15.109  0.2087  0.0687 -0.4546
  587TIP3    H123176   1.238   1.386  15.199  0.1473 -0.5549 -0.2511
  587TIP3    H223177   1.348   1.336  15.108 -0.1554 -1.8559  0.0820
  588TIP3   OH223178   3.207   3.155   4.258 -0.0002 -0.0196  0.6016
  588TIP3    H123179   3.151   3.106   4.199  0.5405  0.1248 -0.0403
  588TIP3    H223180   3.183   3.124   4.345 -2.2213  1.1813  0.4936
  589TIP3   OH223181   6.513   0.758   5.435  0.3769 -0.1151  0.4883
  589TIP3    H123182   6.442   0.822   5.426  1.3681  1.2033  1.6984
  589TIP3    H223183   6.483   0.698   5.502 -1.0007 -1.6243 -1.3578
  590TIP3   OH223184   0.264   5.946   0.378 -0.0575  0.2574  0.1639
  590TIP3    H123185   0.197   5.900   0.429 -0.5775  1.7413  0.8751
  590TIP3    H223186   0.347   5.921   0.418 -0.3000 -0.2927  0.3312
  591TIP3   OH223187   2.111   5.392  11.200  0.6922  0.1986  0.0713
  591TIP3    H123188   2.035   5.447  11.182  0.6291 -0.1519 -0.7626
  591TIP3    H223189   2.163   5.396  11.120  1.0885 -0.3165  0.2955
  592TIP3   OH223190   5.948   3.471  10.909 -0.4803 -0.2884 -0.1045
  592TIP3    H123191   5.861   3.445  10.876 -0.0605 -1.3787 -0.4087
  592TIP3    H223192   5.992   3.506  10.832 -0.3827 -0.4586 -0.1258
  593TIP3   OH223193   2.915   5.902  15.149 -0.0953 -0.3375  0.0783
  593TIP3    H123194   2.924   5.840  15.222  1.0839 -0.2799  0.0003
  593TIP3    H223195   2.999   5.947  15.145 -1.3505  2.2954  1.0121
  594TIP3   OH223196   4.967   3.588  16.526  0.8639 -0.0945  0.0851
  594TIP3    H123197   5.033   3.525  16.497  0.9163  0.4619 -1.0499
  594TIP3    H223198   5.003   3.626  16.605  0.7940 -1.5465  0.8543
  595TIP3   OH223199   5.793   6.818   2.866  0.1744 -0.2223 -0.9028
  595TIP3    H123200   5.759   6.905   2.884 -0.2939 -0.1336 -2.1401
  595TIP3    H223201   5.787   6.772   2.950 -2.0822  0.0985 -0.8296
  596TIP3   OH223202   2.484   1.805  11.737  0.5520  0.6412  0.6946
  596TIP3    H123203   2.488   1.726  11.791  2.1417 -0.1494 -0.5043
  596TIP3    H223204   2.402   1.848  11.764 -0.9875 -2.0114  0.5668
  597TIP3   OH223205   1.498   4.478   1.214 -0.3743 -0.6127  0.9237
  597TIP3    H123206   1.486   4.529   1.134 -1.4238 -0.5072  1.1326
  597TIP3    H223207   1.422   4.501   1.268  0.7451 -0.0008  2.3178
  598TIP3   OH223208   0.697   3.855   4.254 -0.2851 -0.3062 -0.0929
  598TIP3    H123209   0.686   3.788   4.321  0.1421  0.5852  0.8913
  598TIP3    H223210   0.791   3.853   4.234 -0.2315  0.1319  0.0968
  599TIP3   OH223211   2.895   0.936  16.271  0.3640  0.2468 -0.6352
  599TIP3    H123212   2.799   0.938  16.261  0.3751 -1.3471 -1.4843
  599TIP3    H223213   2.922   1.027  16.263 -1.2124  0.9671  1.3286
  600TIP3   OH223214   1.443   5.232  14.006  0.3702  0.6239 -0.5623
  600TIP3    H123215   1.439   5.140  13.978  1.1121  0.9907 -1.9769
  600TIP3    H223216   1.431   5.282  13.925 -0.2973  1.7942  0.2256
  601TIP3   OH223217   3.166   2.246  16.935 -0.4896  0.5544 -0.1222
  601TIP3    H123218   3.199   2.332  16.908  0.8581  0.8095  2.1008
  601TIP3    H223219   3.229   2.184  16.897 -0.6030  0.6363 -0.4537
  602TIP3   OH223220   0.944   6.648  15.808  0.0085 -0.9035 -0.1649
  602TIP3    H123221   0.925   6.584  15.877 -2.1056  0.0116  0.1919
  602TIP3    H223222   1.011   6.704  15.846 -0.2439 -1.1459  0.6749
  603TIP3   OH223223   3.970   4.162  15.417 -0.2106  0.6177 -0.4535
  603TIP3    H123224   4.055   4.198  15.441  0.3808  0.2276 -1.8419
  603TIP3    H223225   3.978   4.068  15.432 -1.2369  0.8257  1.7063
  604TIP3   OH223226   5.176   5.485   3.633  0.3580  0.0214  0.1216
  604TIP3    H123227   5.216   5.462   3.716 -0.2207  0.9129  0.6684
  604TIP3    H223228   5.090   5.443   3.635  0.6565 -0.6328 -0.3912
  605TIP3   OH223229   4.041   2.573   5.333  0.1202  0.3304 -0.4397
  605TIP3    H123230   4.094   2.500   5.303 -0.3423  0.1141 -0.7437
  605TIP3    H223231   4.053   2.575   5.428  0.1861 -0.0947 -0.4411
  606TIP3   OH223232   4.807   4.009   1.961 -0.3364  0.3365 -0.2056
  606TIP3    H123233   4.772   4.096   1.939 -2.2205 -0.7399 -1.7322
  606TIP3    H223234   4.783   3.995   2.052 -0.9158  0.9938 -0.2510
  607TIP3   OH223235   1.494   4.193   6.183  0.5983 -0.1390 -0.6698
  607TIP3    H123236   1.451   4.178   6.267 -0.4599  0.1814 -1.1430
  607TIP3    H223237   1.584   4.162   6.196  0.6187  0.4915  0.7604
  608TIP3   OH223238   5.585   6.694   6.391 -0.0742 -0.1243  0.7458
  608TIP3    H123239   5.673   6.692   6.428  1.0853  0.7574 -1.7320
  608TIP3    H223240   5.560   6.787   6.394  0.2999  0.0649 -1.0911
  609TIP3   OH223241   5.004   3.380   1.576 -0.3713  0.3176  0.1784
  609TIP3    H123242   4.987   3.435   1.652 -0.6035  0.7843 -0.2011
  609TIP3    H223243   5.060   3.435   1.520  0.3639 -0.2790  0.3202
  610TIP3   OH223244   4.586   2.273  16.537  0.2806 -0.4177 -0.4941
  610TIP3    H123245   4.498   2.299  16.563 -0.0703  0.6122 -2.5212
  610TIP3    H223246   4.618   2.219  16.610 -2.0065 -0.8308  0.2820
  611TIP3   OH223247   4.538   6.718   0.549  0.1913 -0.0685 -0.6722
  611TIP3    H123248   4.485   6.638   0.547  0.1256 -0.1223  1.1301
  611TIP3    H223249   4.484   6.784   0.508 -0.8814 -0.3669  0.2007
  612TIP3   OH223250   5.603   3.905   2.273 -0.2494  0.1716 -0.3711
  612TIP3    H123251   5.651   3.979   2.236 -0.7940 -0.0275 -1.5058
  612TIP3    H223252   5.528   3.944   2.317  0.1817  0.3852  0.1778
  613TIP3   OH223253   6.040   3.529  14.083  0.0978  0.2354 -0.2753
  613TIP3    H123254   6.133   3.549  14.097 -0.5342  1.6981  2.7103
  613TIP3    H223255   5.994   3.601  14.126 -2.5047  0.2577 -2.7927
  614TIP3   OH223256   3.073   3.058   1.859 -0.5337  0.8349 -0.3394
  614TIP3    H123257   3.143   3.117   1.832  0.3600 -0.9763 -2.2689
  614TIP3    H223258   3.081   2.983   1.800 -0.6427 -1.9389  2.8880
  615TIP3   OH223259   0.260   1.494  13.746 -0.1268 -0.5481  0.9619
  615TIP3    H123260   0.188   1.506  13.808  0.1203 -0.8918  1.3125
  615TIP3    H223261   0.337   1.477  13.800  0.1406 -0.5865  0.5737
  616TIP3   OH223262   6.698   4.442   2.121  0.5709  0.6577 -0.0290
  616TIP3    H123263   6.744   4.414   2.201 -1.3918 -0.2732  0.8455
  616TIP3    H223264   6.606   4.424   2.139  0.1452 -0.8199 -2.9927
  617TIP3   OH223265   5.738   2.874   2.916  0.5272  0.0492 -0.1389
  617TIP3    H123266   5.812   2.892   2.859  0.4720  1.4268  0.1848
  617TIP3    H223267   5.680   2.950   2.906 -0.8113 -0.9516 -0.3186
  618TIP3   OH223268   0.383   4.820   3.946 -0.6570 -0.0934 -0.2919
  618TIP3    H123269   0.476   4.817   3.967 -0.8432 -0.3681  0.5506
  618TIP3    H223270   0.380   4.825   3.851  0.2113 -0.6115 -0.3613
  619TIP3   OH223271   0.693   1.033   4.552 -0.5026  0.1425 -0.6488
  619TIP3    H123272   0.724   1.041   4.642 -0.4455 -0.4498 -0.6145
  619TIP3    H223273   0.597   1.033   4.559 -0.5300 -1.8838 -0.3828
  620TIP3   OH223274   5.993   2.219   2.888  0.2407 -0.2690  0.2353
  620TIP3    H123275   6.011   2.174   2.971 -0.6862 -1.0433  0.0376
  620TIP3    H223276   5.898   2.234   2.890 -0.2333 -2.5429 -1.7685
  621TIP3   OH223277   3.084   1.397  16.184  0.5136  0.0150  0.3499
  621TIP3    H123278   3.119   1.429  16.268  1.0237 -1.3078  0.6580
  621TIP3    H223279   3.095   1.472  16.124  0.0532  1.0068  1.4673
  622TIP3   OH223280   6.666   6.444   2.813  0.1658 -0.1921  0.3619
  622TIP3    H123281   6.574   6.420   2.799 -0.5540  3.4232 -2.8002
  622TIP3    H223282   6.716   6.379   2.763 -0.9596 -0.2010 -0.7978
  623TIP3   OH223283   3.355   5.167  16.366  0.3835  0.8978 -0.2339
  623TIP3    H123284   3.431   5.110  16.373 -0.3142 -0.3003 -1.7263
  623TIP3    H223285   3.338   5.173  16.272 -1.9644  0.2781  0.0993
  624TIP3   OH223286   5.863   3.039   2.496  0.2212  0.6809 -0.1771
  624TIP3    H123287   5.782   3.065   2.452 -1.6494 -2.4329  1.1095
  624TIP3    H223288   5.870   3.100   2.569 -2.1756 -0.1724  0.8792
  625TIP3   OH223289   3.403   2.228   3.988 -0.0067  0.2112  0.3230
  625TIP3    H123290   3.409   2.140   4.026 -1.1969 -0.4003 -0.8440
  625TIP3    H223291   3.460   2.225   3.911  0.0673  0.5152  0.3653
  626TIP3   OH223292   3.854   6.472   1.193  0.1549 -0.2228 -0.3014
  626TIP3    H123293   3.872   6.541   1.256 -0.7721 -0.8476  0.6774
  626TIP3    H223294   3.825   6.398   1.246 -1.7590 -0.4086 -1.4964
  627TIP3   OH223295   1.867   4.897  16.549 -0.5885  0.0257 -0.9532
  627TIP3    H123296   1.905   4.845  16.478 -1.0358  0.7441 -1.7431
  627TIP3    H223297   1.893   4.987  16.529 -0.2687  0.1736  0.1045
  628TIP3   OH223298   1.597   1.289   2.606 -0.0443 -0.1850 -0.0427
  628TIP3    H123299   1.606   1.381   2.632 -0.8706 -0.3254  0.7950
  628TIP3    H223300   1.682   1.266   2.569  0.2701  0.8304  0.0293
  629TIP3   OH223301   2.347   4.808   4.419 -0.2830 -0.2599 -0.8178
  629TIP3    H123302   2.330   4.826   4.511 -0.5030 -1.8971 -0.4923
  629TIP3    H223303   2.269   4.761   4.390  1.7785 -4.4499 -0.3630
  630TIP3   OH223304   1.826   1.508   2.164  0.1006 -0.0146 -0.4982
  630TIP3    H123305   1.749   1.562   2.183  1.1748  1.4408 -0.1495
  630TIP3    H223306   1.837   1.515   2.069  0.1131  0.2154 -0.4811
  631TIP3   OH223307   0.579   5.119  14.590 -0.1371 -0.5637  0.1039
  631TIP3    H123308   0.490   5.137  14.559 -0.1656  1.2254  1.0790
  631TIP3    H223309   0.582   5.024  14.601 -1.6051 -0.7542 -0.8565
  632TIP3   OH223310   3.014   5.934   5.128  0.1933 -0.3927 -0.2007
  632TIP3    H123311   3.003   5.970   5.216  0.7055  2.7964 -1.3082
  632TIP3    H223312   3.107   5.916   5.120  0.3883  0.6962 -0.5258
  633TIP3   OH223313   3.838   4.861   0.014  0.1112  0.1900  0.3075
  633TIP3    H123314   3.799   4.935   0.060 -0.5462 -0.0623  0.1669
  633TIP3    H223315   3.856   4.797   0.082 -0.9417 -0.2187  0.2142
  634TIP3   OH223316   3.622   4.902   3.764  0.5138 -0.5049  0.1382
  634TIP3    H123317   3.643   4.917   3.672  0.4268  2.2739  0.4836
  634TIP3    H223318   3.663   4.975   3.810 -2.4123  0.2315  1.8716
  635TIP3   OH223319   2.799   5.227  14.948  0.1070  0.0069  0.3226
  635TIP3    H123320   2.803   5.228  14.853 -1.2767  1.2972  0.2400
  635TIP3    H223321   2.888   5.252  14.976  0.0072  1.6737 -0.6945
  636TIP3   OH223322   6.090   4.121  16.005  0.1451 -0.4000 -0.2481
  636TIP3    H123323   6.163   4.161  15.957 -0.7729  0.0904 -1.2624
  636TIP3    H223324   6.067   4.044  15.953 -0.2848 -0.3616 -0.1136
  637TIP3   OH223325   4.558   4.456   5.046 -0.2091 -0.1784  0.5380
  637TIP3    H123326   4.620   4.523   5.015 -3.2568  1.9554 -1.6334
  637TIP3    H223327   4.559   4.465   5.141  1.5520  0.9300  0.4698
  638TIP3   OH223328   0.733   3.849   2.373  0.1529 -0.1020 -0.6371
  638TIP3    H123329   0.794   3.804   2.315  0.7716  0.3821 -0.3642
  638TIP3    H223330   0.718   3.934   2.331 -0.5695 -0.3240 -0.8549
  639TIP3   OH223331   3.909   2.416  12.226 -0.0641 -0.0003  0.6316
  639TIP3    H123332   3.954   2.372  12.154  0.6293 -0.6894  1.4662
  639TIP3    H223333   3.964   2.492  12.246 -1.7545  1.8977 -1.4476
  640TIP3   OH223334   1.961   0.786  10.577 -0.3367 -0.2430 -0.4160
  640TIP3    H123335   1.919   0.807  10.493 -2.6516 -1.6130  0.2980
  640TIP3    H223336   1.967   0.690  10.577  1.4270 -0.1702  0.2190
  641TIP3   OH223337   5.438   5.819   3.937 -0.0677  0.0562  0.3778
  641TIP3    H123338   5.422   5.784   3.850  2.3255 -0.5357  0.1019
  641TIP3    H223339   5.361   5.793   3.988 -1.7934  0.9168 -1.6453
  642TIP3   OH223340   2.330   3.143   4.937  0.0564  0.0605  0.3763
  642TIP3    H123341   2.389   3.188   4.877 -0.9824 -0.0294 -0.7655
  642TIP3    H223342   2.309   3.208   5.004 -1.0444  1.1615 -0.9751
  643TIP3   OH223343   1.499   1.820   3.287  0.2581  0.2568  0.3819
  643TIP3    H123344   1.493   1.741   3.234 -1.6391 -0.6171  1.7472
  643TIP3    H223345   1.583   1.813   3.332 -0.5302 -1.8985  1.7010
  644TIP3   OH223346   3.331   5.235  13.688  0.0989 -0.4071  0.3288
  644TIP3    H123347   3.325   5.189  13.772 -1.0719  0.7284  0.9126
  644TIP3    H223348   3.329   5.328  13.712 -1.9964 -0.0366 -1.0259
  645TIP3   OH223349   1.695   2.800   3.360  0.2392  0.5415  0.8637
  645TIP3    H123350   1.650   2.721   3.329  1.0029  0.4013  0.0897
  645TIP3    H223351   1.669   2.807   3.452 -0.9193  0.1553  0.5870
  646TIP3   OH223352   0.880   6.132  12.908  0.1555 -0.0316 -0.1422
  646TIP3    H123353   0.867   6.086  12.992 -0.6413  0.3513 -0.0497
  646TIP3    H223354   0.825   6.084  12.847  0.3455  0.0056 -0.3439
  647TIP3   OH223355   5.073   2.873   6.150  0.2223  0.5034  0.0609
  647TIP3    H123356   4.982   2.874   6.119 -0.2957  0.0111  1.4974
  647TIP3    H223357   5.099   2.965   6.148 -0.4422  0.6987 -0.0170
  648TIP3   OH223358   1.056   6.789  12.328 -0.3964 -0.4012  0.3456
  648TIP3    H123359   1.026   6.823  12.243 -2.4503 -1.1425  0.7213
  648TIP3    H223360   1.003   6.711  12.343 -0.4025 -0.0489  2.5030
  649TIP3   OH223361   6.081   5.035   2.960 -0.3589  0.0137 -1.0870
  649TIP3    H123362   6.104   5.107   3.019  0.8657  0.2717 -1.8542
  649TIP3    H223363   6.150   4.970   2.974 -1.8721 -1.4112  0.1871
  650TIP3   OH223364   0.402   0.303   3.041  0.1709 -0.2605  0.2646
  650TIP3    H123365   0.309   0.280   3.046  0.1756 -0.2883  0.2259
  650TIP3    H223366   0.442   0.263   3.118  0.2002 -0.4763  0.1382
  651TIP3   OH223367   0.410   6.537   1.241 -0.5855  0.4393  0.2573
  651TIP3    H123368   0.387   6.552   1.149 -1.9206 -0.0368  0.4904
  651TIP3    H223369   0.367   6.455   1.263  1.7964 -0.7931  0.6284
  652TIP3   OH223370   3.634   6.070   1.154 -0.0715  0.9050 -0.0207
  652TIP3    H123371   3.663   6.126   1.082 -1.3025  0.6675 -0.7213
  652TIP3    H223372   3.715   6.047   1.200  0.6468  1.7154 -0.8394
  653TIP3   OH223373   1.837   1.649  12.037  0.1527  0.5215  0.2612
  653TIP3    H123374   1.881   1.598  12.105 -0.3334  0.0456  0.2232
  653TIP3    H223375   1.750   1.665  12.072 -0.0216  0.4731 -0.1489
  654TIP3   OH223376   4.689   0.183   5.041 -0.2924 -0.2871 -0.4000
  654TIP3    H123377   4.767   0.186   4.985  0.2335 -0.6415  0.2946
  654TIP3    H223378   4.686   0.093   5.073 -0.7101 -0.1431 -0.0230
  655TIP3   OH223379   6.421   3.558   0.519 -0.1791  0.1485  0.5341
  655TIP3    H123380   6.384   3.492   0.460 -1.2548  1.1285  0.0711
  655TIP3    H223381   6.380   3.540   0.604  1.4756 -1.3522  1.0804
  656TIP3   OH223382   4.370   5.196  14.975  0.1463 -0.3019  0.1789
  656TIP3    H123383   4.334   5.271  14.927 -1.3228 -1.4272 -0.5402
  656TIP3    H223384   4.359   5.219  15.067 -1.5318 -0.1745 -0.0231
  657TIP3   OH223385   5.966   1.012  12.260 -0.1669  0.2522  0.0972
  657TIP3    H123386   6.033   1.079  12.251  0.6655 -0.0999  2.9079
  657TIP3    H223387   5.894   1.055  12.305 -1.5638  0.3677 -2.0713
  658TIP3   OH223388   3.405   4.096  16.708  0.1590  0.4243 -0.0715
  658TIP3    H123389   3.338   4.156  16.741  0.9776  0.9029  0.7828
  658TIP3    H223390   3.393   4.096  16.613 -0.4422  1.2354 -0.0069
  659TIP3   OH223391   5.932   2.354   3.749  0.5739  0.0027 -0.0394
  659TIP3    H123392   5.880   2.434   3.753  1.5563  0.6399  0.1096
  659TIP3    H223393   5.894   2.298   3.818  1.5976  1.4006  1.7425
  660TIP3   OH223394   0.269   3.392  14.425 -0.2976  0.1894 -0.3675
  660TIP3    H123395   0.242   3.478  14.390 -0.3552 -0.3086 -1.6098
  660TIP3    H223396   0.273   3.336  14.347 -0.1937 -0.9194  0.4269
  661TIP3   OH223397   0.336   2.726  14.483  0.2551 -0.0599 -0.4735
  661TIP3    H123398   0.243   2.740  14.501  0.5085 -1.0645  1.9488
  661TIP3    H223399   0.359   2.648  14.533  2.3459 -0.0333 -1.2855
  662TIP3   OH223400   2.432   4.472  13.833  0.2313 -0.7092 -0.0712
  662TIP3    H123401   2.438   4.490  13.739  0.0578  0.5494  0.1407
  662TIP3    H223402   2.522   4.483  13.865 -0.2100  2.3195  0.4458
  663TIP3   OH223403   6.177   0.220   6.289  0.0020 -0.5068  0.3455
  663TIP3    H123404   6.102   0.162   6.278  0.6980 -1.0548 -1.9995
  663TIP3    H223405   6.250   0.160   6.308  0.4754 -0.3207 -0.8055
  664TIP3   OH223406   2.500   6.625  12.701  0.5970  0.2263  0.0221
  664TIP3    H123407   2.563   6.560  12.732  0.8186  0.4021 -0.0618
  664TIP3    H223408   2.533   6.650  12.614 -0.0775 -0.3505 -0.4169
  665TIP3   OH223409   2.247   6.761   2.629  0.4165 -0.1284 -0.3114
  665TIP3    H123410   2.163   6.804   2.612  0.5775  0.2174 -0.2438
  665TIP3    H223411   2.256   6.764   2.724  0.3696 -0.4240 -0.2983
  666TIP3   OH223412   4.692   3.531  16.465  0.0126 -0.0322  0.0740
  666TIP3    H123413   4.723   3.441  16.464 -0.4817 -0.2613  2.1653
  666TIP3    H223414   4.770   3.583  16.484  0.1298 -0.0765 -0.2658
  667TIP3   OH223415   3.305   2.964  13.408  0.3416  0.2487  0.2141
  667TIP3    H123416   3.304   2.982  13.502  0.7418  0.8999  0.1007
  667TIP3    H223417   3.213   2.966  13.382  0.2844  0.8418  0.4504
  668TIP3   OH223418   5.244   2.558   1.986  0.4048  0.1528 -0.2874
  668TIP3    H123419   5.172   2.617   2.009 -0.4115 -1.2891  1.0960
  668TIP3    H223420   5.214   2.513   1.907 -0.4370 -0.7322  0.5086
  669TIP3   OH223421   2.032   3.414  12.621  0.6234  0.4176  0.3622
  669TIP3    H123422   2.073   3.330  12.602 -0.3603 -0.3345  1.4048
  669TIP3    H223423   2.103   3.469  12.653  0.9314 -0.6900  1.6524
  670TIP3   OH223424   5.939   0.154   5.901 -0.0361  0.5314 -1.0869
  670TIP3    H123425   5.901   0.148   5.988 -0.4756  2.3189 -1.1269
  670TIP3    H223426   5.884   0.096   5.847 -1.2542  1.2517 -0.6584
  671TIP3   OH223427   4.113   3.641   0.717  0.1167  0.3675 -0.4065
  671TIP3    H123428   4.038   3.669   0.769  0.2602  2.5043 -1.2858
  671TIP3    H223429   4.092   3.666   0.628  1.8200  0.9148 -0.6874
  672TIP3   OH223430   6.026   1.306  12.808 -0.0374 -0.1512 -0.0906
  672TIP3    H123431   6.074   1.242  12.861 -0.9066 -1.0395 -0.3597
  672TIP3    H223432   5.949   1.327  12.860 -1.1302 -1.3718 -1.1670
  673TIP3   OH223433   6.135   0.839   3.313  0.9137 -0.3755 -0.5578
  673TIP3    H123434   6.200   0.884   3.260 -0.0711  0.0571 -1.4454
  673TIP3    H223435   6.179   0.760   3.345  0.7344 -2.2700 -4.4389
  674TIP3   OH223436   2.557   4.693   0.305 -0.0195  0.5923 -0.3510
  674TIP3    H123437   2.551   4.634   0.231 -1.0094 -0.5529  0.6084
  674TIP3    H223438   2.542   4.638   0.382 -0.1548  1.9387  0.6351
  675TIP3   OH223439   5.418   5.045  15.904 -0.0925  0.2324  0.3546
  675TIP3    H123440   5.378   4.957  15.904 -0.5665  0.4444  0.5033
  675TIP3    H223441   5.493   5.037  15.846 -0.5124 -0.1066 -0.1499
  676TIP3   OH223442   6.687   2.036  17.003  0.5316  0.1763  0.5249
  676TIP3    H123443   6.618   2.074  16.950 -0.5696  2.1438  3.1409
  676TIP3    H223444   6.664   1.943  17.010 -0.6481  0.3852 -0.3214
  677TIP3   OH223445   3.275   2.701  10.081  0.3752  0.3944  0.2201
  677TIP3    H123446   3.184   2.724  10.102  0.2352  2.1456 -1.9266
  677TIP3    H223447   3.318   2.785  10.064  0.9998 -0.5412 -3.8599
  678TIP3   OH223448   5.592   2.509   1.464  0.0909 -0.1776 -0.2612
  678TIP3    H123449   5.506   2.483   1.430  0.2770 -1.1414 -0.0435
  678TIP3    H223450   5.654   2.465   1.406  0.4182 -2.1633  1.4591
  679TIP3   OH223451   6.210   6.275   0.718 -0.1257 -0.2510  0.8276
  679TIP3    H123452   6.287   6.274   0.775 -1.3666 -2.3152  2.6387
  679TIP3    H223453   6.164   6.195   0.740 -2.3008  0.4369 -0.9201
  680TIP3   OH223454   1.464   1.492  15.661  0.2788  0.0435 -0.4793
  680TIP3    H123455   1.396   1.483  15.728  1.1591 -0.0028  0.4302
  680TIP3    H223456   1.440   1.571  15.613 -1.0097 -0.5577 -0.8951
  681TIP3   OH223457   2.115   5.602   0.602  0.1708 -0.3382 -0.1460
  681TIP3    H123458   2.179   5.667   0.573 -0.8128  0.4187 -0.6837
  681TIP3    H223459   2.043   5.610   0.540 -0.8020 -0.5841  0.9152
  682TIP3   OH223460   5.301   4.182  13.904 -0.0767  0.1922  0.1005
  682TIP3    H123461   5.214   4.211  13.877 -0.6344 -1.7729 -0.3433
  682TIP3    H223462   5.294   4.169  13.999 -0.0796  0.6195  0.1612
  683TIP3   OH223463   6.625   4.123  13.939  0.1881  0.3518  0.0873
  683TIP3    H123464   6.604   4.033  13.918 -1.4871  1.2762 -2.7432
  683TIP3    H223465   6.572   4.144  14.015  0.6793 -1.0285  0.8392
  684TIP3   OH223466   4.898   3.074   2.086  0.1958 -0.3479  0.3151
  684TIP3    H123467   4.812   3.033   2.090  0.2293 -0.3695  1.2591
  684TIP3    H223468   4.915   3.088   1.993  0.1767 -2.4802 -0.0521
  685TIP3   OH223469   5.291   4.862  16.540 -0.3716  0.2422  0.0288
  685TIP3    H123470   5.369   4.892  16.494  1.5185 -0.8502  2.2712
  685TIP3    H223471   5.250   4.800  16.480  0.8041  0.4149 -1.0045
  686TIP3   OH223472   1.445   2.516  16.264  0.1958 -0.2660 -0.5113
  686TIP3    H123473   1.415   2.604  16.286 -0.8760  0.0667 -2.9418
  686TIP3    H223474   1.540   2.520  16.275  0.1291  1.0730 -0.1980
  687TIP3   OH223475   6.439   1.431   2.050 -0.5630 -0.3491  0.1715
  687TIP3    H123476   6.405   1.520   2.057 -0.5729 -0.1332 -2.1517
  687TIP3    H223477   6.534   1.441   2.046 -0.6150 -0.3314 -1.2720
  688TIP3   OH223478   0.459   2.529   4.277  0.6990 -0.4999 -0.2631
  688TIP3    H123479   0.504   2.455   4.237 -1.0051 -0.7813 -1.7849
  688TIP3    H223480   0.366   2.504   4.276  0.4039 -0.0947  3.0167
  689TIP3   OH223481   4.271   1.653   0.110 -0.5044  0.0259 -0.0263
  689TIP3    H123482   4.254   1.727   0.051  1.4036  0.0003 -0.6833
  689TIP3    H223483   4.220   1.581   0.073 -0.2179  0.3024 -1.0031
  690TIP3   OH223484   0.534   0.704   4.421 -0.3942 -0.3764  0.2245
  690TIP3    H123485   0.572   0.789   4.443 -1.0000  0.3753 -1.4412
  690TIP3    H223486   0.471   0.687   4.491  1.5062 -0.7036  1.9332
  691TIP3   OH223487   3.013   1.748  15.625 -0.5954  0.2716  0.0866
  691TIP3    H123488   3.036   1.824  15.679 -1.3181  0.0598  0.7165
  691TIP3    H223489   2.981   1.683  15.688 -0.0895 -0.5211 -0.4586
  692TIP3   OH223490   4.812   5.666   3.554 -0.1644 -0.1984  0.3251
  692TIP3    H123491   4.827   5.759   3.537 -1.1184 -0.0661  0.1003
  692TIP3    H223492   4.727   5.663   3.599  0.8626 -0.7998  2.3241
  693TIP3   OH223493   6.185   2.998   4.601  0.1146 -0.1237 -0.7294
  693TIP3    H123494   6.218   2.994   4.691 -2.4098 -0.6762  0.2645
  693TIP3    H223495   6.215   2.917   4.560 -0.6074 -0.9825  0.3765
  694TIP3   OH223496   6.449   4.137   5.698 -0.1945  0.9312  0.0784
  694TIP3    H123497   6.468   4.165   5.609  0.5337  0.8436  0.2009
  694TIP3    H223498   6.431   4.218   5.746 -0.7182  0.9677 -0.1768
  695TIP3   OH223499   1.315   1.899  12.914 -0.1295 -0.4223  0.0241
  695TIP3    H123500   1.376   1.951  12.863 -0.0976 -1.7203 -1.2972
  695TIP3    H223501   1.336   1.920  13.005  0.6520  0.9676 -0.4565
  696TIP3   OH223502   4.269   2.133   2.743  0.1511  0.5543 -0.4538
  696TIP3    H123503   4.363   2.124   2.757 -0.0350  0.9000  1.2623
  696TIP3    H223504   4.237   2.044   2.732  0.7300  0.4669 -1.5534
  697TIP3   OH223505   0.283   5.472   4.283 -0.3240 -0.0767 -0.1054
  697TIP3    H123506   0.209   5.412   4.287 -0.8150  0.5793  2.1909
  697TIP3    H223507   0.243   5.559   4.283  0.4361  0.2779  0.2055
  698TIP3   OH223508   1.772   1.003  13.003 -0.4584  0.3562 -0.7412
  698TIP3    H123509   1.688   0.971  12.970  0.0424  0.3627 -2.0908
  698TIP3    H223510   1.825   1.018  12.925  0.7595  0.4962  0.0717
  699TIP3   OH223511   1.966   0.415  14.756 -0.4013 -0.6661  0.3566
  699TIP3    H123512   1.888   0.431  14.703 -0.4320 -2.6407 -0.2540
  699TIP3    H223513   2.032   0.475  14.719 -0.9130 -0.7848 -0.7793
  700TIP3   OH223514   4.910   1.620  11.941 -0.2047 -0.1173  0.1576
  700TIP3    H123515   4.948   1.537  11.970  0.7961  0.5693  0.8574
  700TIP3    H223516   4.872   1.601  11.855  0.8407 -1.0609 -0.1072
  701TIP3   OH223517   6.774   6.276   2.363  0.4449 -0.2334  0.0719
  701TIP3    H123518   6.848   6.227   2.328  0.6740  0.0475  0.1557
  701TIP3    H223519   6.743   6.224   2.437  0.4869 -0.4076 -0.0325
  702TIP3   OH223520   0.129   2.409  16.518 -0.3535 -0.7242  0.1513
  702TIP3    H123521   0.039   2.376  16.523 -0.7056  0.0823 -0.5008
  702TIP3    H223522   0.149   2.408  16.424  0.7813 -2.0543  0.3726
  703TIP3   OH223523   6.075   6.510  14.833  0.7706  0.5019  0.3469
  703TIP3    H123524   6.095   6.584  14.890 -0.0397 -0.2742  1.7053
  703TIP3    H223525   6.148   6.506  14.772  1.3084  1.8160  0.8640
  704TIP3   OH223526   5.729   5.072  16.371 -0.2134  0.2326 -0.3310
  704TIP3    H123527   5.722   5.168  16.374  0.2657  0.2819 -0.7241
  704TIP3    H223528   5.813   5.055  16.328 -0.0647 -0.3659  0.1875
  705TIP3   OH223529   4.769   0.742   2.175  0.5764  0.2638  0.1869
  705TIP3    H123530   4.771   0.730   2.080 -1.4361 -0.7522  0.2202
  705TIP3    H223531   4.702   0.808   2.189 -2.8159 -3.0578  1.0541
  706TIP3   OH223532   1.206   2.887  13.432  0.0631  0.3955 -0.2927
  706TIP3    H123533   1.157   2.843  13.362 -0.9897  0.2208  0.5348
  706TIP3    H223534   1.218   2.976  13.401 -1.6721  0.7185 -0.0865
  707TIP3   OH223535   0.616   5.163   4.158 -0.5660 -0.3718  0.0299
  707TIP3    H123536   0.541   5.104   4.155 -1.2108  0.4224 -2.9512
  707TIP3    H223537   0.580   5.248   4.182 -0.7502  0.0483 -1.5654
  708TIP3   OH223538   0.767   4.708  17.081  0.1776  0.0919 -0.0182
  708TIP3    H123539   0.802   4.784  17.034  2.2551 -0.5735  0.3074
  708TIP3    H223540   0.820   4.703  17.160 -0.4291 -1.2496  0.3282
  709TIP3   OH223541   0.527   1.858   4.859 -0.4924  0.4322  0.6329
  709TIP3    H123542   0.482   1.928   4.907 -1.0966  0.7963 -0.4156
  709TIP3    H223543   0.489   1.861   4.771  1.5335  0.7270 -0.3090
  710TIP3   OH223544   1.342   0.205  16.222 -0.2217 -0.0605 -0.0580
  710TIP3    H123545   1.410   0.208  16.289 -0.4813 -1.4666  0.3040
  710TIP3    H223546   1.359   0.281  16.166  1.2185 -0.0071  0.4293
  711TIP3   OH223547   4.449   4.140   1.716  0.8106  0.1210 -0.4851
  711TIP3    H123548   4.534   4.161   1.756  0.7774 -0.5675 -0.0500
  711TIP3    H223549   4.462   4.157   1.623  1.3348  0.3207 -0.3782
  712TIP3   OH223550   5.063   2.100   2.225 -0.2363  0.0980  0.0056
  712TIP3    H123551   5.070   2.125   2.317 -0.9861 -1.8591  0.6671
  712TIP3    H223552   4.978   2.056   2.219  0.5421 -1.3605 -1.1880
  713TIP3   OH223553   0.421   4.839  17.029 -1.0774  0.2511  0.2859
  713TIP3    H123554   0.332   4.870  17.013 -1.0602 -0.3027 -0.9986
  713TIP3    H223555   0.442   4.783  16.954  1.1451  2.0729 -0.5735
  714TIP3   OH223556   3.312   0.767  13.194  0.1562 -0.4457 -0.0452
  714TIP3    H123557   3.224   0.805  13.191  0.5555  0.5176 -0.0058
  714TIP3    H223558   3.302   0.688  13.247 -1.2003 -1.8347 -2.2668
  715TIP3   OH223559   2.046   0.743  13.322 -0.2943 -0.8114 -0.6172
  715TIP3    H123560   1.965   0.750  13.273  0.0187  0.1356 -1.0275
  715TIP3    H223561   2.041   0.813  13.387  0.8629  0.3439 -1.6938
  716TIP3   OH223562   1.104   5.257  11.416 -0.2759  0.5755 -0.0584
  716TIP3    H123563   1.162   5.328  11.443 -0.2647  0.5145  0.0804
  716TIP3    H223564   1.020   5.300  11.396 -0.2807  0.6228  0.0635
  717TIP3   OH223565   4.633   3.977   0.807  0.2868  0.1669 -0.4581
  717TIP3    H123566   4.664   3.887   0.802  1.5627  0.6058 -1.1302
  717TIP3    H223567   4.711   4.030   0.787 -0.4857  1.4025 -0.3145
  718TIP3   OH223568   1.206   1.367   4.289  0.2662 -0.2766 -0.0369
  718TIP3    H123569   1.158   1.448   4.305  0.6572 -0.1780  0.6650
  718TIP3    H223570   1.142   1.298   4.305  0.0021 -0.1241 -0.3912
  719TIP3   OH223571   2.584   1.958  17.098  0.2463  0.0601 -0.2715
  719TIP3    H123572   2.580   1.891  17.166 -0.0226 -0.9792 -1.2787
  719TIP3    H223573   2.597   2.040  17.146  1.6670 -0.8163  0.9408
  720TIP3   OH223574   2.873   3.988   0.270 -0.3468 -0.0352  0.0452
  720TIP3    H123575   2.803   4.036   0.227  1.5418  2.9470  0.0196
  720TIP3    H223576   2.916   3.940   0.199 -0.2268  0.9856 -0.5946
  721TIP3   OH223577   4.478   2.270  14.244  0.1855  0.4189  0.3922
  721TIP3    H123578   4.533   2.243  14.317  1.3328  0.9925 -0.2165
  721TIP3    H223579   4.460   2.363  14.260 -2.6705 -0.2729  1.8216
  722TIP3   OH223580   1.866   1.058  15.469 -0.9537  0.3273 -0.4614
  722TIP3    H123581   1.821   1.014  15.397 -1.8730 -0.3701  0.5106
  722TIP3    H223582   1.916   1.128  15.427 -2.2592  0.5774 -1.6750
  723TIP3   OH223583   5.359   1.519   2.106  0.0200 -0.4472  0.5780
  723TIP3    H123584   5.365   1.516   2.010 -1.3185  0.0859  0.4531
  723TIP3    H223585   5.417   1.449   2.135  0.7416 -0.3798 -0.6030
  724TIP3   OH223586   5.191   6.496  16.597  0.1957  0.4344 -0.4102
  724TIP3    H123587   5.141   6.415  16.599 -0.3728  0.7319 -1.4948
  724TIP3    H223588   5.282   6.469  16.607 -0.1710 -0.0912  1.9531
  725TIP3   OH223589   6.220   5.641  10.821  0.1393  0.5069  0.2638
  725TIP3    H123590   6.282   5.688  10.877  1.3164  1.1355 -1.4837
  725TIP3    H223591   6.240   5.549  10.834  0.9703  0.6831  0.2482
  726TIP3   OH223592   1.673   2.550   4.175 -0.4151  0.3286 -0.2178
  726TIP3    H123593   1.729   2.574   4.248 -0.8043  0.9558 -0.1129
  726TIP3    H223594   1.586   2.543   4.213 -0.7342  1.3327 -0.7352
  727TIP3   OH223595   1.382   2.495   0.893  0.3039  0.3960 -0.1133
  727TIP3    H123596   1.428   2.512   0.810  2.2367  0.3522  0.9087
  727TIP3    H223597   1.444   2.446   0.946 -0.6916  0.8943  1.5856
  728TIP3   OH223598   3.515   4.273   3.501 -0.2020 -0.5693  0.3976
  728TIP3    H123599   3.571   4.289   3.577  0.4493 -0.3978 -0.1084
  728TIP3    H223600   3.495   4.360   3.467  0.8286 -0.6921 -0.5583
  729TIP3   OH223601   3.032   3.968  16.150  0.8219  0.2794 -0.0063
  729TIP3    H123602   2.972   4.039  16.130  0.6058  1.1111  3.1033
  729TIP3    H223603   2.987   3.918  16.219  2.7915 -0.2783  0.9354
  730TIP3   OH223604   5.427   6.593   4.983 -0.1220  0.5338  0.1479
  730TIP3    H123605   5.523   6.598   4.981  0.2144 -2.5086  2.0980
  730TIP3    H223606   5.403   6.568   4.893  0.9526  0.5687 -0.1663
  731TIP3   OH223607   3.243   2.690  12.248  0.3277  0.2310 -0.2283
  731TIP3    H123608   3.274   2.658  12.332  0.4318  0.7872 -0.0507
  731TIP3    H223609   3.172   2.751  12.269  0.4958  0.5375 -0.5263
  732TIP3   OH223610   4.712   1.655  15.464  0.1871  0.0512  0.2896
  732TIP3    H123611   4.730   1.688  15.552  0.7488 -0.1253  0.2453
  732TIP3    H223612   4.636   1.705  15.434 -1.9433 -1.9441  2.0240
  733TIP3   OH223613   3.185   0.883  12.293  0.1295 -0.0984 -0.0284
  733TIP3    H123614   3.195   0.952  12.358  2.0003  0.0398 -0.4198
  733TIP3    H223615   3.220   0.805  12.335  3.0979  0.3643 -1.4075
  734TIP3   OH223616   1.445   1.046   1.072 -0.0983  0.1105 -0.1160
  734TIP3    H123617   1.351   1.060   1.057 -0.5754 -0.8761  1.6364
  734TIP3    H223618   1.487   1.122   1.034 -1.6782  0.9854 -0.2072
  735TIP3   OH223619   5.713   2.294   0.847  0.2379 -0.2023 -0.2564
  735TIP3    H123620   5.633   2.242   0.843  0.6825 -1.0398  1.1567
  735TIP3    H223621   5.783   2.229   0.858  0.8941  0.6419  0.6116
  736TIP3   OH223622   4.218   6.344  15.946  0.3637 -0.2748  0.8112
  736TIP3    H123623   4.251   6.374  16.031 -0.9349  2.1211  0.5736
  736TIP3    H223624   4.279   6.381  15.882  0.4009 -0.6656  0.6181
  737TIP3   OH223625   5.093   6.563  12.776 -0.3231  0.0486  0.2717
  737TIP3    H123626   5.057   6.504  12.841  0.3410 -0.3596  0.2796
  737TIP3    H223627   5.037   6.640  12.780 -0.8672 -0.3611  0.6429
  738TIP3   OH223628   5.441   1.438  12.544  0.1500  0.7850 -0.3348
  738TIP3    H123629   5.422   1.474  12.457 -1.6956  1.4413  0.3130
  738TIP3    H223630   5.416   1.346  12.537 -0.6075  0.9856 -0.3182
  739TIP3   OH223631   3.251   4.583   1.396  0.0774 -0.4246 -0.6855
  739TIP3    H123632   3.287   4.620   1.476 -1.1724 -1.2602  0.3031
  739TIP3    H223633   3.252   4.655   1.333  0.2315  0.5086  0.3580
  740TIP3   OH223634   3.881   3.733   0.820  0.1660  0.1492  0.1601
  740TIP3    H123635   3.893   3.813   0.870  0.1967 -0.0971  0.5535
  740TIP3    H223636   3.792   3.739   0.786  0.4956  0.7984 -0.6347
  741TIP3   OH223637   2.118   2.425  15.115 -0.1396 -0.3016  0.1976
  741TIP3    H123638   2.154   2.490  15.175 -1.0663 -0.4443  0.9508
  741TIP3    H223639   2.193   2.377  15.082  0.4236  0.0638  0.9308
  742TIP3   OH223640   3.312   5.933   3.531  0.0140 -0.4555 -0.0971
  742TIP3    H123641   3.399   5.961   3.560  0.1538 -1.4231  0.4442
  742TIP3    H223642   3.329   5.864   3.467 -0.3406  0.3240 -1.0522
  743TIP3   OH223643   0.969   0.614  13.661 -0.1199  0.0342  0.1942
  743TIP3    H123644   0.974   0.687  13.599 -0.1111  0.3738  0.5912
  743TIP3    H223645   0.997   0.538  13.610  3.4447  0.8438  0.6839
  744TIP3   OH223646   6.364   3.425   1.885 -0.0287 -0.2146  0.0088
  744TIP3    H123647   6.306   3.349   1.876  0.6948 -0.7830  0.1515
  744TIP3    H223648   6.422   3.420   1.808  0.9545 -0.6126  0.7624
  745TIP3   OH223649   1.473   6.105   3.417  0.1740  0.2089  0.4681
  745TIP3    H123650   1.470   6.193   3.378  0.1397 -0.5190 -1.2434
  745TIP3    H223651   1.406   6.056   3.369  2.0723 -1.4945 -0.5556
  746TIP3   OH223652   6.420   0.964   1.558  0.0864 -0.4675  0.1613
  746TIP3    H123653   6.431   1.004   1.644 -1.2155  2.0282 -0.7069
  746TIP3    H223654   6.463   0.880   1.564  0.2391 -0.2695  3.1732
  747TIP3   OH223655   0.360   5.636  17.053  0.0090  0.1816  0.5622
  747TIP3    H123656   0.272   5.660  17.082 -0.5124 -0.4875 -0.4243
  747TIP3    H223657   0.357   5.541  17.040  0.6997  0.2368 -0.0718
  748TIP3   OH223658   1.331   0.092  15.619  0.2651 -0.4435 -0.1215
  748TIP3    H123659   1.373   0.174  15.643  4.0646 -2.3425  0.4374
  748TIP3    H223660   1.258   0.118  15.563  1.3549  3.2591 -0.0840
  749TIP3   OH223661   4.637   2.041   5.342  0.1885 -0.5760 -0.3442
  749TIP3    H123662   4.665   2.131   5.325 -0.2991  0.0919  1.9751
  749TIP3    H223663   4.708   1.986   5.307  2.0048  0.8427  0.9299
  750TIP3   OH223664   4.555   2.244  11.835 -0.9025 -0.3465 -0.3903
  750TIP3    H123665   4.497   2.196  11.893 -1.7831  0.7524 -0.3077
  750TIP3    H223666   4.519   2.333  11.833  1.4109  0.6937  0.5146
  751TIP3   OH223667   1.249   1.523   3.278  0.0304  0.7618  0.0203
  751TIP3    H123668   1.319   1.460   3.258 -1.8668 -1.9654  1.3798
  751TIP3    H223669   1.290   1.585   3.338  1.6707  0.1074 -0.3572
  752TIP3   OH223670   2.554   0.880  17.080 -0.3967 -0.1576 -0.2873
  752TIP3    H123671   2.508   0.801  17.107  0.4644 -0.6584 -0.2339
  752TIP3    H223672   2.643   0.850  17.061 -0.2873  0.6438 -1.1142
  753TIP3   OH223673   2.380   3.247  11.622  0.2822  0.0706 -0.2888
  753TIP3    H123674   2.414   3.320  11.570 -0.3312 -0.4684 -1.5006
  753TIP3    H223675   2.287   3.244  11.601  0.6400 -2.3302 -1.9748
  754TIP3   OH223676   4.470   6.397  11.215  0.6477  0.2714  0.1349
  754TIP3    H123677   4.374   6.398  11.211  0.5548  0.2768  1.6414
  754TIP3    H223678   4.494   6.317  11.168 -0.1175  0.0411  0.1103
  755TIP3   OH223679   6.066   3.404  14.522 -0.2922  0.0337 -0.6684
  755TIP3    H123680   6.094   3.486  14.482 -0.3331  0.7093  0.6377
  755TIP3    H223681   6.140   3.344  14.507 -0.4048  0.1812 -1.9345
  756TIP3   OH223682   5.689   1.808  11.583 -0.3889  0.3808 -0.3179
  756TIP3    H123683   5.752   1.767  11.641 -0.4668  1.1437  0.3347
  756TIP3    H223684   5.715   1.781  11.495 -0.1508 -0.6361  0.0568
  757TIP3   OH223685   6.538   5.464  14.739 -0.0210 -0.5914 -0.3981
  757TIP3    H123686   6.614   5.473  14.682 -0.1494  0.9535 -0.3566
  757TIP3    H223687   6.534   5.547  14.787 -1.2859 -0.9541  0.1552
  758TIP3   OH223688   1.043   5.922   0.641 -0.1155  0.0077 -0.6775
  758TIP3    H123689   1.015   5.898   0.730  2.6881 -0.7521  0.1049
  758TIP3    H223690   0.987   5.871   0.583 -0.7789 -0.9195  0.7370
  759TIP3   OH223691   2.962   6.012   1.273 -0.5534  0.2616  0.0715
  759TIP3    H123692   3.003   6.098   1.269 -0.5869  0.2372 -1.2413
  759TIP3    H223693   3.012   5.959   1.211 -1.9547 -0.0069 -0.8903
  760TIP3   OH223694   4.644   3.561  11.720 -0.0597 -0.2601 -0.0563
  760TIP3    H123695   4.628   3.652  11.741  0.7765 -0.5791  2.2041
  760TIP3    H223696   4.564   3.531  11.678 -1.0078  1.0716  0.7485
  761TIP3   OH223697   2.026   1.974   2.753 -0.1636  0.0737 -0.1032
  761TIP3    H123698   2.042   2.068   2.760  2.7101 -0.4576  3.4109
  761TIP3    H223699   2.095   1.941   2.696 -0.0386 -0.0819  0.1337
  762TIP3   OH223700   2.467   4.557  13.556  0.2315 -0.3787 -0.5188
  762TIP3    H123701   2.388   4.523  13.515  0.3380  0.0621 -1.0996
  762TIP3    H223702   2.538   4.507  13.516  0.2582 -0.7530 -0.0208
  763TIP3   OH223703   4.161   1.397  11.878 -0.2135 -0.1663  0.3611
  763TIP3    H123704   4.254   1.403  11.897  0.0993  1.0208 -1.3237
  763TIP3    H223705   4.149   1.307  11.845  0.8027  0.3056 -1.4587
  764TIP3   OH223706   1.363   4.905   0.882 -0.2851 -0.2836 -0.1205
  764TIP3    H123707   1.342   4.814   0.862 -0.5758 -0.0587 -0.8725
  764TIP3    H223708   1.283   4.953   0.862 -0.2607  0.0878  0.6648
  765TIP3   OH223709   2.861   3.775   2.640  0.3054 -0.2240 -0.7216
  765TIP3    H123710   2.819   3.829   2.707  0.1741 -1.1712 -0.0164
  765TIP3    H223711   2.841   3.819   2.557 -1.0130  0.0249 -0.2870
  766TIP3   OH223712   2.422   5.053  12.541  0.1343  0.2536 -0.4022
  766TIP3    H123713   2.421   5.052  12.445  0.3073 -1.3492 -0.4085
  766TIP3    H223714   2.439   4.962  12.566  0.4930  0.7202  1.1526
  767TIP3   OH223715   0.249   6.040  13.540 -0.4564  0.1429 -0.3168
  767TIP3    H123716   0.323   5.999  13.585 -1.9629 -1.3592  0.9689
  767TIP3    H223717   0.288   6.087  13.466  1.8892  0.6017  1.1047
  768TIP3   OH223718   4.998   3.984  15.132 -0.0814  0.2435  0.4522
  768TIP3    H123719   4.933   4.049  15.158 -0.6321 -0.1806  0.1678
  768TIP3    H223720   5.078   4.011  15.176 -0.8115 -0.0778  2.0510
  769TIP3   OH223721   3.976   2.313   3.138  0.1737  0.3079 -0.0676
  769TIP3    H123722   4.056   2.264   3.117 -0.5999 -1.1529  0.2107
  769TIP3    H223723   3.938   2.333   3.052  0.1145 -0.2905 -0.1925
  770TIP3   OH223724   0.138   5.691   1.111  0.1831  0.2024 -0.3242
  770TIP3    H123725   0.075   5.659   1.177  0.8159 -1.5115 -0.5107
  770TIP3    H223726   0.219   5.705   1.160  0.0649  1.0818 -0.3510
  771TIP3   OH223727   3.484   1.432   3.781  0.3745 -0.0936 -0.1810
  771TIP3    H123728   3.435   1.369   3.834  0.9707  0.7770  1.4693
  771TIP3    H223729   3.448   1.422   3.693  0.5087 -2.8020 -0.0405
  772TIP3   OH223730   3.202   5.455  12.038  0.8328 -0.9051 -0.5160
  772TIP3    H123731   3.290   5.432  12.010  0.3029 -1.7897 -1.5228
  772TIP3    H223732   3.159   5.371  12.057  0.1126 -0.5088 -0.3283
  773TIP3   OH223733   6.089   3.549  12.295  0.3174  0.3039 -0.5501
  773TIP3    H123734   6.098   3.554  12.200 -1.1144 -2.1477 -0.8848
  773TIP3    H223735   6.093   3.456  12.315  0.9004  0.7739  1.8637
  774TIP3   OH223736   0.035   5.555  10.765  0.2151  0.6104 -0.0709
  774TIP3    H123737   0.051   5.539  10.859  0.5731  0.8407 -0.0883
  774TIP3    H223738   0.010   5.469  10.730 -0.5338  0.6509  0.3532
  775TIP3   OH223739   6.476   3.193  16.845 -0.0966  0.0402 -0.9566
  775TIP3    H123740   6.461   3.246  16.923  0.1650 -0.0085 -0.8733
  775TIP3    H223741   6.571   3.191  16.835 -0.1136 -0.2670 -1.0640
  776TIP3   OH223742   1.455   0.406   0.826  0.0026  0.0254 -0.1938
  776TIP3    H123743   1.399   0.336   0.791 -2.0985  1.6246 -0.2057
  776TIP3    H223744   1.459   0.471   0.756  0.7038  0.5999  0.3604
  777TIP3   OH223745   6.550   0.574   0.581  0.4152 -0.0180  0.2182
  777TIP3    H123746   6.577   0.537   0.666  0.3288 -0.0673  0.2246
  777TIP3    H223747   6.456   0.588   0.590  0.3824 -0.1509  0.0836
  778TIP3   OH223748   3.083   1.962  10.995 -0.2220 -0.1099 -0.5266
  778TIP3    H123749   3.142   1.898  11.035  0.0304 -0.2418 -1.1088
  778TIP3    H223750   3.093   2.041  11.049  1.6968  0.3989 -1.5396
  779TIP3   OH223751   4.479   4.887  13.326 -0.2197  0.2030 -0.2731
  779TIP3    H123752   4.525   4.945  13.387 -0.4862  0.1381 -0.0069
  779TIP3    H223753   4.407   4.849  13.378 -1.0089  0.8489 -0.8711
  780TIP3   OH223754   4.258   6.197   0.682 -0.3840  0.0581 -0.3382
  780TIP3    H123755   4.269   6.209   0.777 -0.6599 -0.5300 -0.2232
  780TIP3    H223756   4.337   6.150   0.655 -0.3697  0.1039 -0.3756
  781TIP3   OH223757   3.390   4.790   2.550  0.3336  0.0423 -0.5429
  781TIP3    H123758   3.343   4.790   2.634  0.6307 -0.4801 -0.3733
  781TIP3    H223759   3.460   4.726   2.561 -0.6503 -1.3204 -1.7584
  782TIP3   OH223760   6.629   4.338   5.539 -0.4438 -0.1540  0.5594
  782TIP3    H123761   6.701   4.315   5.597 -0.3768  1.2673  1.0882
  782TIP3    H223762   6.658   4.418   5.495 -0.4068 -1.2886 -1.6231
  783TIP3   OH223763   1.682   5.970   2.408 -0.0947  0.6725 -0.2078
  783TIP3    H123764   1.620   5.977   2.335 -1.6568  1.4944  1.1455
  783TIP3    H223765   1.707   6.060   2.427  0.7981  0.4137 -0.1177
  784TIP3   OH223766   5.638   6.770   3.272 -0.0322 -0.3648 -0.2395
  784TIP3    H123767   5.676   6.848   3.311 -2.0114  0.7725 -0.4619
  784TIP3    H223768   5.629   6.708   3.344 -0.4223  0.4224  0.3979
  785TIP3   OH223769   0.415   3.984  12.046 -0.8010  0.0729 -0.2081
  785TIP3    H123770   0.431   3.995  11.952  1.6669  0.7971  0.2258
  785TIP3    H223771   0.366   4.063  12.070  0.6690  1.1322 -0.5045
  786TIP3   OH223772   2.630   4.677   1.097  0.4458  0.4465  0.5041
  786TIP3    H123773   2.566   4.690   1.026 -0.6719  0.4223  1.4826
  786TIP3    H223774   2.650   4.766   1.126  1.3820  0.4925 -0.2289
  787TIP3   OH223775   4.569   4.104   0.254 -0.0257 -0.0305  0.0613
  787TIP3    H123776   4.564   4.158   0.175 -1.0376  0.6205  0.5615
  787TIP3    H223777   4.627   4.032   0.229 -1.5076 -0.6635 -1.7840
  788TIP3   OH223778   0.522   3.136  12.048  0.5637  0.3074  0.0409
  788TIP3    H123779   0.540   3.227  12.072 -0.1140  0.9111 -1.6355
  788TIP3    H223780   0.501   3.139  11.955  1.7284 -1.7329 -0.3569
  789TIP3   OH223781   3.041   3.679  15.438  0.0060 -0.6716 -0.2439
  789TIP3    H123782   2.991   3.601  15.412 -1.0632 -0.1260  0.1234
  789TIP3    H223783   3.086   3.653  15.518 -1.6250 -0.4431  0.7918
  790TIP3   OH223784   5.516   1.148  12.274 -0.2016 -0.4268 -0.3943
  790TIP3    H123785   5.551   1.076  12.222 -2.0796 -0.7381 -1.2982
  790TIP3    H223786   5.529   1.225  12.220  0.8461 -0.2193  0.1252
  791TIP3   OH223787   4.067   0.906  11.723  0.0883 -0.5010 -0.1311
  791TIP3    H123788   4.103   0.943  11.643  1.9810 -0.2549  0.7663
  791TIP3    H223789   4.144   0.883  11.775 -0.8572  2.7449  3.1867
  792TIP3   OH223790   4.001   4.817  11.158  0.2290  0.2903  0.0782
  792TIP3    H123791   4.096   4.823  11.149 -0.0664  1.9403 -3.2322
  792TIP3    H223792   3.966   4.885  11.101 -2.9714 -1.7916 -0.7644
  793TIP3   OH223793   3.665   0.515   4.436 -0.2462 -0.2593  0.2960
  793TIP3    H123794   3.637   0.461   4.510  0.0524 -0.8978 -0.0514
  793TIP3    H223795   3.616   0.597   4.447 -2.5763 -1.4382 -0.4689
  794TIP3   OH223796   1.471   4.917  11.556 -0.1674 -0.1902  0.1788
  794TIP3    H123797   1.402   4.966  11.511 -0.7445 -0.1661  1.0559
  794TIP3    H223798   1.494   4.846  11.496 -1.8973 -0.9876  0.3874
  795TIP3   OH223799   3.315   3.245  13.303  0.1043 -0.2340  0.1702
  795TIP3    H123800   3.337   3.168  13.356  0.3688  0.7899  1.6236
  795TIP3    H223801   3.311   3.317  13.366 -0.6223  0.8669 -1.0761
  796TIP3   OH223802   2.532   3.433  10.784  0.5700 -0.6686 -0.2720
  796TIP3    H123803   2.494   3.438  10.696  1.0955 -2.2123 -0.6167
  796TIP3    H223804   2.475   3.373  10.832 -0.9917  1.8076  1.1810
  797TIP3   OH223805   2.744   4.544   4.156 -0.1117 -0.6179 -0.9821
  797TIP3    H123806   2.824   4.567   4.109 -0.5785  0.1601 -1.4254
  797TIP3    H223807   2.747   4.449   4.164  0.9363 -0.5820 -0.8442
  798TIP3   OH223808   4.877   4.100  15.825 -0.1416  0.0036 -0.2987
  798TIP3    H123809   4.933   4.027  15.796 -0.2710 -0.3663  0.3785
  798TIP3    H223810   4.845   4.073  15.911  2.3165  2.1864  1.4516
  799TIP3   OH223811   6.694   6.572   3.825  0.1139 -0.6474  0.3311
  799TIP3    H123812   6.749   6.590   3.749  0.3031 -0.5560  0.4894
  799TIP3    H223813   6.675   6.478   3.819  1.1964 -0.9089  0.8771
  800TIP3   OH223814   4.365   5.024   5.292  0.7668  0.0103  0.0186
  800TIP3    H123815   4.336   5.047   5.204 -1.1763 -1.0602  0.3200
  800TIP3    H223816   4.332   5.094   5.348  2.0273  0.7055 -0.0700
  801TIP3   OH223817   0.305   4.557  16.981  0.0358  0.3560 -0.0407
  801TIP3    H123818   0.219   4.595  17.002 -0.0773  0.1043 -0.0476
  801TIP3    H223819   0.307   4.555  16.885 -0.0191  0.2091 -0.0402
  802TIP3   OH223820   2.610   2.082   3.530 -0.1235 -0.0605  0.1266
  802TIP3    H123821   2.668   2.126   3.592 -0.0634  0.5047 -0.3221
  802TIP3    H223822   2.526   2.077   3.575 -0.2184  0.8116  0.0710
  803TIP3   OH223823   1.760   5.405  15.307 -0.5181 -0.1571  0.4297
  803TIP3    H123824   1.841   5.355  15.300 -0.8058 -0.5205 -0.3532
  803TIP3    H223825   1.691   5.344  15.282 -1.0574  0.1035  1.2288
  804TIP3   OH223826   3.447   6.506  13.338  0.1496  0.1424 -0.0268
  804TIP3    H123827   3.512   6.548  13.281 -0.3975  1.1501  0.0713
  804TIP3    H223828   3.417   6.576  13.396 -1.3030 -0.2068 -0.3143
  805TIP3   OH223829   3.722   1.096   6.467 -0.3117 -0.2102 -0.9031
  805TIP3    H123830   3.725   1.001   6.471  0.8583 -0.1816 -0.6339
  805TIP3    H223831   3.726   1.116   6.373 -3.5566 -0.4403 -1.2034
  806TIP3   OH223832   5.724   3.097   3.123 -0.1647 -0.2809  0.1766
  806TIP3    H123833   5.801   3.041   3.114  1.7801  2.0072  1.4731
  806TIP3    H223834   5.697   3.115   3.033  2.0787  0.4282 -0.4049
  807TIP3   OH223835   3.664   5.667  17.045  0.5549  0.2173  0.4826
  807TIP3    H123836   3.629   5.754  17.030  0.7593  0.1438 -0.4797
  807TIP3    H223837   3.682   5.632  16.957  2.1363 -0.0980  0.8960
  808TIP3   OH223838   0.184   2.560   4.067 -0.0884 -0.0047  0.0999
  808TIP3    H123839   0.160   2.612   3.991  0.4235  0.0380 -0.0373
  808TIP3    H223840   0.239   2.490   4.032 -1.1002 -0.8876  0.2232
  809TIP3   OH223841   6.117   2.711   1.702 -0.5986 -0.4860  0.4868
  809TIP3    H123842   6.165   2.769   1.761 -0.6573 -1.2190  1.2714
  809TIP3    H223843   6.025   2.728   1.723 -0.6027 -1.4817  1.3511
  810TIP3   OH223844   0.137   5.718  11.751 -0.1267  1.2853 -0.4186
  810TIP3    H123845   0.131   5.668  11.669 -0.4239  1.9970 -0.8426
  810TIP3    H223846   0.229   5.713  11.775 -0.0664  0.9256 -0.7033
  811TIP3   OH223847   5.545   0.250   4.873  0.0518 -0.1699 -0.1292
  811TIP3    H123848   5.464   0.298   4.892  1.1532  1.5501  0.3824
  811TIP3    H223849   5.574   0.218   4.959 -0.2208 -1.0684 -0.3557
  812TIP3   OH223850   1.869   4.275  14.053 -0.2570  0.8319  0.0959
  812TIP3    H123851   1.849   4.270  14.147 -0.4541  1.8917  0.1242
  812TIP3    H223852   1.867   4.369  14.033 -0.6693  0.5921 -1.0745
  813TIP3   OH223853   1.459   6.010  10.511 -0.6792  0.0841 -0.0269
  813TIP3    H123854   1.547   5.981  10.534  0.8252  2.4209 -2.2748
  813TIP3    H223855   1.466   6.105  10.506 -3.7241  0.4694  1.0156
  814TIP3   OH223856   1.585   2.239  12.427 -0.4068 -0.1123 -0.0916
  814TIP3    H123857   1.646   2.274  12.362 -0.7496  0.4141 -0.1369
  814TIP3    H223858   1.627   2.256  12.511 -0.9466  1.2153 -0.0579
  815TIP3   OH223859   0.466   5.577   1.154 -0.1080 -0.2716 -0.6832
  815TIP3    H123860   0.518   5.505   1.190 -0.6486 -1.3019 -1.8903
  815TIP3    H223861   0.413   5.536   1.086  1.4546  1.6716 -3.2713
  816TIP3   OH223862   4.209   1.676  12.203  0.0814 -0.1065  0.1076
  816TIP3    H123863   4.244   1.604  12.254 -0.8419 -0.9640 -0.4382
  816TIP3    H223864   4.149   1.721  12.262 -0.6526 -0.8329 -0.0734
  817TIP3   OH223865   6.334   5.367   1.566  0.6672  0.5593 -0.4992
  817TIP3    H123866   6.312   5.315   1.644  1.4946  0.3578 -0.3890
  817TIP3    H223867   6.250   5.399   1.534  0.2411 -0.0093  0.0235
  818TIP3   OH223868   4.548   5.344  15.477  0.2699  0.0673 -0.0319
  818TIP3    H123869   4.598   5.278  15.526  2.3272  1.0403 -0.6980
  818TIP3    H223870   4.555   5.316  15.386  0.1298  0.5488 -0.1932
  819TIP3   OH223871   1.753   6.613  12.778 -0.4393  0.6728 -0.4024
  819TIP3    H123872   1.717   6.657  12.702 -0.4844  0.9607 -0.2128
  819TIP3    H223873   1.788   6.683  12.833  0.4866  0.3976 -0.6187
  820TIP3   OH223874   0.163   6.187   6.443 -0.3022  0.0380 -0.1999
  820TIP3    H123875   0.202   6.274   6.433 -1.3317  0.7363  1.4412
  820TIP3    H223876   0.102   6.197   6.517 -1.3111 -1.7759 -0.7425
  821TIP3   OH223877   3.354   6.722   5.435 -0.3201  0.3775 -0.2885
  821TIP3    H123878   3.392   6.679   5.511 -0.7797 -0.1119 -0.3296
  821TIP3    H223879   3.347   6.653   5.369  1.2867  1.0621 -1.2567
  822TIP3   OH223880   5.426   6.655  13.504 -0.0066  0.3545 -0.2954
  822TIP3    H123881   5.511   6.698  13.493  0.9070 -0.9156  1.3166
  822TIP3    H223882   5.431   6.577  13.448 -0.4304  0.6625 -0.7773
  823TIP3   OH223883   5.971   5.784   3.714 -0.6336 -0.0289  0.2972
  823TIP3    H123884   6.043   5.845   3.701  0.2974 -0.9905  0.7216
  823TIP3    H223885   5.904   5.834   3.759  1.1607  0.0493  3.1012
  824TIP3   OH223886   3.822   0.841   5.029  0.0693 -0.5701  0.2372
  824TIP3    H123887   3.822   0.840   5.125  0.2271 -0.8039  0.2356
  824TIP3    H223888   3.853   0.754   5.005  1.8501  0.0976 -0.0185
  825TIP3   OH223889   2.856   4.018  15.856  0.3235  0.0345  0.3289
  825TIP3    H123890   2.789   4.015  15.788  0.0428  0.4916  0.5798
  825TIP3    H223891   2.830   4.092  15.912  0.1089 -0.8186  1.3859
  826TIP3   OH223892   2.079   2.840  11.527 -0.1527  0.0714  1.0331
  826TIP3    H123893   2.025   2.769  11.563 -0.5575 -0.0576  0.1998
  826TIP3    H223894   2.030   2.870  11.449  1.5341 -0.8276 -0.4391
  827TIP3   OH223895   3.746   4.641   3.784  0.1532 -0.2913 -0.1647
  827TIP3    H123896   3.797   4.691   3.720 -0.4744 -0.6280 -0.9416
  827TIP3    H223897   3.677   4.701   3.812  0.9101  0.1389  0.8317
  828TIP3   OH223898   4.839   1.348   0.622  0.3597  0.1420  0.1725
  828TIP3    H123899   4.871   1.303   0.543 -0.7043 -0.3778  0.0178
  828TIP3    H223900   4.744   1.352   0.610  0.4057  2.6579  0.0677
  829TIP3   OH223901   2.281   1.617   5.285 -0.2354 -0.7855 -0.0635
  829TIP3    H123902   2.265   1.609   5.191  1.4996 -0.9204 -0.3918
  829TIP3    H223903   2.329   1.700   5.294 -1.5408 -0.1048  0.8893
  830TIP3   OH223904   0.806   3.063   1.288  0.3037  0.8377  0.1967
  830TIP3    H123905   0.738   3.109   1.239 -0.9997 -1.6303 -0.4874
  830TIP3    H223906   0.759   3.022   1.361  0.8410 -1.4412 -0.6506
  831TIP3   OH223907   4.365   3.783  12.590  0.4618 -0.2019  0.0080
  831TIP3    H123908   4.279   3.823  12.588  1.1708  1.4724  0.9170
  831TIP3    H223909   4.425   3.852  12.562  1.6422 -0.8509  0.8247
  832TIP3   OH223910   3.207   1.731  16.688 -0.1908  1.0977  0.3977
  832TIP3    H123911   3.140   1.666  16.707  0.7777  0.5977  2.3401
  832TIP3    H223912   3.202   1.743  16.593 -0.8951 -1.2644  0.0636
  833TIP3   OH223913   1.215   3.240   6.589  0.1588  0.1413  0.1512
  833TIP3    H123914   1.301   3.263   6.622  0.6762  0.1116 -1.1216
  833TIP3    H223915   1.154   3.270   6.657  1.1005  1.0819  0.6085
  834TIP3   OH223916   1.131   2.054   5.045  0.1398  0.2357  0.2304
  834TIP3    H123917   1.167   2.140   5.068 -2.9382  1.2205  1.9823
  834TIP3    H223918   1.132   2.052   4.950  2.0699  1.3510  0.1803
  835TIP3   OH223919   6.312   4.656  16.483  0.2629 -0.8062 -0.3989
  835TIP3    H123920   6.299   4.697  16.569 -2.3976  0.5204 -1.3124
  835TIP3    H223921   6.263   4.574  16.488  0.3877 -0.8918 -0.5595
  836TIP3   OH223922   5.531   2.940   0.651 -0.2940  0.0100 -0.3116
  836TIP3    H123923   5.598   2.911   0.589  0.8186  0.1076  0.7811
  836TIP3    H223924   5.534   2.874   0.721 -0.1599  0.8918  0.5469
  837TIP3   OH223925   1.557   4.520  13.871  0.4649  0.1042  0.0452
  837TIP3    H123926   1.574   4.429  13.845  0.6532 -0.0295  0.6366
  837TIP3    H223927   1.605   4.532  13.952 -0.2267  0.4807  0.4092
  838TIP3   OH223928   2.868   4.905  12.120 -0.2063 -0.2368  0.3790
  838TIP3    H123929   2.961   4.899  12.096  0.0804  0.9223  1.1030
  838TIP3    H223930   2.833   4.972  12.062 -1.9081 -4.0030 -3.5054
  839TIP3   OH223931   2.225   4.437  12.558 -0.0374  0.5737 -0.2923
  839TIP3    H123932   2.130   4.442  12.560 -0.0117  1.3257  2.2788
  839TIP3    H223933   2.250   4.415  12.648  2.2074 -0.2200 -1.0350
  840TIP3   OH223934   0.739   4.786   5.624  0.2363  0.4497 -0.1895
  840TIP3    H123935   0.708   4.728   5.694 -1.1316  0.5674 -0.6625
  840TIP3    H223936   0.825   4.752   5.602  0.6588  0.3333  1.4674
  841TIP3   OH223937   5.529   4.641  14.621  0.1065  0.4944  0.0715
  841TIP3    H123938   5.535   4.715  14.561  0.5422 -0.4871 -1.1333
  841TIP3    H223939   5.620   4.615  14.637 -0.0786 -0.7904 -0.8297
  842TIP3   OH223940   0.614   5.423  16.257  0.5365  0.4960  0.2780
  842TIP3    H123941   0.655   5.502  16.292 -0.1756  0.2019  1.8787
  842TIP3    H223942   0.585   5.447  16.169 -0.1880  2.1917  0.9614
  843TIP3   OH223943   3.769   0.095  14.142  0.3937  0.0517 -0.2205
  843TIP3    H123944   3.800   0.089  14.232 -0.6644 -2.3039  0.0726
  843TIP3    H223945   3.848   0.091  14.089  0.9128 -0.7582  0.5795
  844TIP3   OH223946   6.702   6.439   1.945 -0.4693 -0.6039  0.2463
  844TIP3    H123947   6.693   6.525   1.988 -1.2790 -0.9983  0.8974
  844TIP3    H223948   6.773   6.396   1.993 -0.4363 -0.5148  0.2784
  845TIP3   OH223949   5.101   5.478   0.536  0.1122  0.2542  0.2546
  845TIP3    H123950   5.082   5.397   0.583  2.3405  0.3091  1.3619
  845TIP3    H223951   5.130   5.449   0.449 -0.1110 -0.0557  0.2793
  846TIP3   OH223952   4.288   6.681   2.354 -0.2495 -0.1779  0.0811
  846TIP3    H123953   4.193   6.689   2.359 -0.4330 -0.0240 -2.4061
  846TIP3    H223954   4.305   6.651   2.265  2.0421 -0.2732  0.4857
  847TIP3   OH223955   2.023   2.771   4.651  0.1302  0.7058 -0.0626
  847TIP3    H123956   2.115   2.745   4.649  0.3343  0.9464  2.6517
  847TIP3    H223957   2.000   2.785   4.559  2.8384  0.8129 -0.8046
  848TIP3   OH223958   6.312   6.332  16.135 -0.0316  0.3152  0.9194
  848TIP3    H123959   6.395   6.319  16.180 -1.1210 -1.4903  2.5396
  848TIP3    H223960   6.275   6.411  16.176 -0.0929 -0.1446  1.7705
  849TIP3   OH223961   6.472   1.229   0.538  0.4027  0.7300  0.3793
  849TIP3    H123962   6.381   1.244   0.512  0.2495  1.3981  1.2571
  849TIP3    H223963   6.523   1.257   0.462 -0.1034  0.8886  0.0895
  850TIP3   OH223964   0.154   4.458  13.982  0.0086  0.3167  0.0180
  850TIP3    H123965   0.166   4.496  13.895 -2.3632 -0.0569 -0.5250
  850TIP3    H223966   0.151   4.363  13.967 -1.2164  0.2861  0.3855
  851TIP3   OH223967   5.604   5.012  15.728  0.3952 -0.3584  0.7261
  851TIP3    H123968   5.589   4.946  15.660  1.6663  0.7540 -0.7013
  851TIP3    H223969   5.626   5.091  15.679 -0.0829  0.8741  2.4279
  852TIP3   OH223970   2.907   1.961   0.025 -0.1230  0.3047 -0.0196
  852TIP3    H123971   2.889   1.871  -0.002  0.5002  0.1612  0.0302
  852TIP3    H223972   2.840   2.013  -0.019  1.0819  0.1307 -2.1716
  853TIP3   OH223973   5.233   5.627   3.255 -0.0602 -0.0652 -0.6571
  853TIP3    H123974   5.302   5.577   3.299 -0.1160  0.7451  0.3917
  853TIP3    H223975   5.250   5.614   3.161  0.4363 -1.3158 -0.4166
  854TIP3   OH223976   2.554   3.650   1.050  0.3568 -0.2440 -0.0337
  854TIP3    H123977   2.562   3.623   1.142  0.9899  2.0889  0.6462
  854TIP3    H223978   2.461   3.670   1.039  0.6991  2.2694  1.0133
  855TIP3   OH223979   2.358   1.691   5.618 -0.0042  0.2033  0.0051
  855TIP3    H123980   2.352   1.598   5.596 -0.6134  0.3355 -0.4051
  855TIP3    H223981   2.363   1.692   5.714  0.1142 -0.2586  0.0069
  856TIP3   OH223982   2.379   5.229  11.115 -0.1030 -0.6845 -0.3306
  856TIP3    H123983   2.435   5.272  11.050 -0.5385  0.2752 -0.0953
  856TIP3    H223984   2.290   5.249  11.087 -0.3092 -1.0175  0.0742
  857TIP3   OH223985   6.666   1.239   0.761  0.8245 -0.5060  0.1163
  857TIP3    H123986   6.673   1.179   0.835 -2.1219 -0.0520  0.8619
  857TIP3    H223987   6.596   1.203   0.707  0.2393  1.2585 -0.3726
  858TIP3   OH223988   3.903   6.038   6.297  0.4520 -0.0457 -0.0908
  858TIP3    H123989   3.841   6.023   6.368  0.1690  0.5829 -0.2004
  858TIP3    H223990   3.860   6.003   6.220  0.2566  0.3360 -0.1564
  859TIP3   OH223991   5.060   4.723  14.321  0.0166 -0.3791  0.5347
  859TIP3    H123992   5.091   4.736  14.411 -0.2154 -0.6058  0.6533
  859TIP3    H223993   5.032   4.810  14.292  1.4094 -0.0433  0.1667
  860TIP3   OH223994   1.644   3.017  14.160  0.2008 -0.2971  0.1683
  860TIP3    H123995   1.701   3.071  14.106 -1.2978  2.7616  1.4273
  860TIP3    H223996   1.669   3.037  14.250  1.5722 -4.0856  0.8430
  861TIP3   OH223997   0.836   5.041   2.723 -0.2283 -0.0688  0.4373
  861TIP3    H123998   0.762   5.089   2.686  0.1985  0.1242 -0.1877
  861TIP3    H223999   0.910   5.102   2.714  0.1157 -0.4651  0.5545
  862TIP3   OH224000   6.501   4.630  14.437 -0.2208  0.6696 -0.3280
  862TIP3    H124001   6.522   4.568  14.368 -1.5975  0.8685 -0.9570
  862TIP3    H224002   6.412   4.608  14.463 -0.8250  2.5003 -0.7225
  863TIP3   OH224003   3.288   4.955   1.473 -0.2408 -0.0553 -0.5531
  863TIP3    H124004   3.210   4.907   1.500 -0.5693 -1.0589 -3.0109
  863TIP3    H224005   3.256   5.037   1.436 -0.1466 -0.3556 -1.3296
  864TIP3   OH224006   6.191   4.671  13.295 -0.1565  0.4563  0.5497
  864TIP3    H124007   6.268   4.652  13.242 -2.2625 -0.3091 -2.5358
  864TIP3    H224008   6.169   4.587  13.336 -0.5356  0.0829 -0.3733
  865TIP3   OH224009   4.632   5.528   2.809 -0.2090  0.0687  0.6020
  865TIP3    H124010   4.664   5.475   2.882 -0.5757 -0.2870  0.5090
  865TIP3    H224011   4.539   5.506   2.802 -0.1234 -0.0850 -0.1327
  866TIP3   OH224012   5.689   1.548   3.541  0.2447 -0.4692 -0.5568
  866TIP3    H124013   5.750   1.540   3.467  0.6183 -2.1108 -0.0933
  866TIP3    H224014   5.603   1.527   3.504  0.2815 -0.3051 -0.7361
  867TIP3   OH224015   6.528   6.679   5.912 -0.2704 -0.3422  0.4897
  867TIP3    H124016   6.609   6.649   5.954  1.1956 -0.2136 -2.0519
  867TIP3    H224017   6.550   6.763   5.872 -1.5280 -0.4751 -0.5767
  868TIP3   OH224018   1.088   4.424  14.738  0.1971 -0.5201  0.5547
  868TIP3    H124019   1.106   4.439  14.645  0.0904 -1.0508  0.4403
  868TIP3    H224020   1.031   4.346  14.739 -1.6126  0.7440  0.9367
  869TIP3   OH224021   2.145   0.143   4.739  0.0339  0.3897 -0.3464
  869TIP3    H124022   2.170   0.195   4.663 -0.3174  0.2776 -0.5337
  869TIP3    H224023   2.224   0.143   4.794 -0.0076  1.2537 -0.2703
  870TIP3   OH224024   5.263   4.377   2.865  0.4187 -0.3362  0.3889
  870TIP3    H124025   5.183   4.425   2.887 -0.1409 -0.6934 -0.7984
  870TIP3    H224026   5.280   4.322   2.942 -0.8357 -0.7372  0.3932
  871TIP3   OH224027   4.908   2.747  10.801 -0.1788  0.0272  0.3628
  871TIP3    H124028   4.824   2.703  10.785 -0.2287  0.5719 -0.9773
  871TIP3    H224029   4.971   2.698  10.748  0.1346  0.3248  0.4570
  872TIP3   OH224030   6.609   3.739   5.581  0.1075 -0.1320 -0.1274
  872TIP3    H124031   6.595   3.817   5.635  1.7663 -1.0257  1.7315
  872TIP3    H224032   6.521   3.701   5.571 -0.4341  0.8606  0.7065
  873TIP3   OH224033   1.544   0.998  15.249  0.3012  0.0712  0.2094
  873TIP3    H124034   1.512   0.960  15.330 -1.2226  2.0533  0.6202
  873TIP3    H224035   1.586   1.080  15.276 -2.3686  2.0192 -1.0997
  874TIP3   OH224036   6.243   3.400   2.357  0.0763 -0.4699  0.1319
  874TIP3    H124037   6.187   3.441   2.424  0.7526  0.1407  0.3309
  874TIP3    H224038   6.327   3.389   2.399  1.3297  2.3249 -1.3409
  875TIP3   OH224039   5.541   2.804  10.847 -0.3102  0.9302 -0.2121
  875TIP3    H124040   5.610   2.742  10.871  0.3190  2.2585  1.6743
  875TIP3    H224041   5.498   2.825  10.930 -4.3458 -1.2707 -1.5033
  876TIP3   OH224042   2.088   0.432   2.111 -0.1239  0.4926  0.1116
  876TIP3    H124043   2.147   0.502   2.082  0.0551  0.2843 -0.0190
  876TIP3    H224044   2.146   0.360   2.137 -0.3247  0.2492 -0.1179
  877TIP3   OH224045   0.815   1.287   0.530  0.5703  0.3019 -0.2133
  877TIP3    H124046   0.856   1.242   0.604  1.4222 -0.0177 -0.8679
  877TIP3    H224047   0.764   1.357   0.570  1.4776  0.4917  0.6390
  878TIP3   OH224048   0.950   1.195  15.683  0.3245  0.0483  0.0842
  878TIP3    H124049   0.864   1.216  15.646  0.8629  0.8401 -0.7748
  878TIP3    H224050   0.932   1.137  15.757 -0.7802 -2.2534 -1.8597
  879TIP3   OH224051   3.700   6.304   5.686 -0.7214  0.3186  0.6674
  879TIP3    H124052   3.727   6.358   5.611 -1.9615  1.6997  1.1693
  879TIP3    H224053   3.655   6.229   5.647  0.1317  0.1452 -0.0149
  880TIP3   OH224054   4.359   5.851  11.348  0.3018 -0.5031  0.3445
  880TIP3    H124055   4.285   5.823  11.402  1.0157 -1.8752  0.6420
  880TIP3    H224056   4.404   5.770  11.325  1.4836  0.2781 -0.1829
  881TIP3   OH224057   4.518   5.343   3.355 -0.3563  0.1383  0.5136
  881TIP3    H124058   4.597   5.315   3.310 -0.3237 -1.4514  1.4838
  881TIP3    H224059   4.498   5.429   3.317  0.2723 -0.6181 -1.7083
  882TIP3   OH224060   4.884   4.127   3.725  0.3046 -0.1215 -0.1777
  882TIP3    H124061   4.976   4.126   3.697 -0.1976  1.0636 -1.9713
  882TIP3    H224062   4.882   4.190   3.797  0.7678  0.3657 -0.5889
  883TIP3   OH224063   0.180   4.732   4.619  0.6886 -0.2595 -0.0486
  883TIP3    H124064   0.166   4.638   4.605  1.4307 -0.5128  0.7708
  883TIP3    H224065   0.096   4.765   4.651 -0.2271 -0.1909 -2.3108
  884TIP3   OH224066   0.445   1.029  11.419  0.3839  0.8529  0.2423
  884TIP3    H124067   0.438   0.976  11.499  0.3798  0.4414 -0.0279
  884TIP3    H224068   0.403   1.112  11.442 -0.9744  0.2036  0.2058
  885TIP3   OH224069   3.881   1.466  11.434  0.4160 -0.2591 -0.3506
  885TIP3    H124070   3.815   1.526  11.398  0.1391 -0.4609 -0.1855
  885TIP3    H224071   3.855   1.380  11.402 -1.2432 -0.8324  2.2060
  886TIP3   OH224072   4.993   2.852  10.152 -0.5532 -0.3986  0.1806
  886TIP3    H124073   4.955   2.926  10.104 -0.3745  0.0151  0.6623
  886TIP3    H224074   4.917   2.801  10.180 -0.6710 -0.4802 -0.2809
  887TIP3   OH224075   1.295   2.400   0.607  0.3216 -0.3658  0.1976
  887TIP3    H124076   1.272   2.307   0.610  0.5797 -0.5913 -2.4634
  887TIP3    H224077   1.215   2.445   0.634 -0.9300 -1.3292 -1.6624
  888TIP3   OH224078   4.932   6.406  16.859  0.1717 -0.2212  0.0779
  888TIP3    H124079   4.923   6.422  16.765  0.1377 -1.0479 -0.0685
  888TIP3    H224080   4.934   6.310  16.867  1.3379 -0.1537  0.8109
  889TIP3   OH224081   6.208   4.280   1.953 -0.2875  0.3279  0.1128
  889TIP3    H124082   6.135   4.298   2.013  0.2066 -0.1089  0.8644
  889TIP3    H224083   6.208   4.354   1.893 -1.1771  0.4788  0.2742
  890TIP3   OH224084   3.349   3.943  15.805 -0.6077  0.4432  0.3933
  890TIP3    H124085   3.435   3.969  15.774  0.6529 -2.1124  1.4479
  890TIP3    H224086   3.308   3.900  15.730 -1.7925  3.2114 -0.6625
  891TIP3   OH224087   4.316   3.852  12.883  0.1616  0.2517  0.0789
  891TIP3    H124088   4.274   3.832  12.799 -0.8233 -1.0760  0.8473
  891TIP3    H224089   4.280   3.937  12.909 -1.2471 -0.3576  0.1916
  892TIP3   OH224090   6.069   3.491  15.469  0.1210 -0.4203  0.1647
  892TIP3    H124091   6.111   3.572  15.498  1.3744 -0.9282 -0.2008
  892TIP3    H224092   5.979   3.518  15.447  0.0409  0.5506  1.5449
  893TIP3   OH224093   2.885   4.109   4.812 -0.3175 -0.3511  0.4970
  893TIP3    H124094   2.974   4.141   4.794 -1.0304  1.7112  0.3151
  893TIP3    H224095   2.851   4.170   4.877 -1.0468 -2.1255  1.8282
  894TIP3   OH224096   0.817   2.222   2.046 -0.0955  0.4513  0.5294
  894TIP3    H124097   0.805   2.276   2.124 -1.7898  2.2756 -0.9127
  894TIP3    H224098   0.876   2.152   2.075  0.6864  1.9965  2.9750
  895TIP3   OH224099   1.207   2.848   0.010 -0.2455  0.0564 -0.0832
  895TIP3    H124100   1.214   2.927  -0.045 -0.0181  0.8036  0.9789
  895TIP3    H224101   1.136   2.868   0.071 -2.3805 -1.8579 -1.7927
  896TIP3   OH224102   4.939   5.532   4.958 -0.2469  0.5097  0.6337
  896TIP3    H124103   5.012   5.548   4.897 -0.8015  2.3942  0.3922
  896TIP3    H224104   4.864   5.574   4.917 -0.9865  0.4688  1.8952
  897TIP3   OH224105   6.270   5.067   5.891  0.1344  0.2795 -0.2321
  897TIP3    H124106   6.194   5.116   5.861  0.9288  1.9509  0.3309
  897TIP3    H224107   6.246   5.037   5.979  0.5697  1.9824  0.5104
  898TIP3   OH224108   1.179   1.352  11.133  0.1867  0.2600 -0.0969
  898TIP3    H124109   1.197   1.416  11.065 -0.6665  1.0726  0.4266
  898TIP3    H224110   1.265   1.315  11.155  0.5429  0.4126 -1.1749
  899TIP3   OH224111   6.405   0.169  13.632 -0.3250 -0.3149  0.4713
  899TIP3    H124112   6.368   0.239  13.579 -0.1817  0.9564  1.9756
  899TIP3    H224113   6.432   0.103  13.569  0.5844  1.4806 -1.1204
  900TIP3   OH224114   5.617   6.327  17.015 -0.3359 -0.0185  0.1632
  900TIP3    H124115   5.666   6.400  16.977  0.5307  0.6608  2.4007
  900TIP3    H224116   5.530   6.362  17.032 -1.5816 -1.0466 -3.2484
  901TIP3   OH224117   3.847   6.508  11.110 -0.1903  0.4167  0.1418
  901TIP3    H124118   3.818   6.418  11.122 -1.1070  0.7944  0.9624
  901TIP3    H224119   3.788   6.543  11.043 -0.9967  0.8903  1.0737
  902TIP3   OH224120   0.115   1.881  15.276 -0.0944 -1.1164  0.2546
  902TIP3    H124121   0.046   1.879  15.209 -0.2849 -2.8749  0.4541
  902TIP3    H224122   0.155   1.967  15.267 -0.9879 -0.8271 -1.2419
  903TIP3   OH224123   3.709   3.418  12.330 -0.0301 -0.5184 -0.3919
  903TIP3    H124124   3.633   3.462  12.291 -0.7405 -0.7091  0.7297
  903TIP3    H224125   3.769   3.405  12.256 -0.6109  0.6194 -1.0996
  904TIP3   OH224126   3.568   3.103   2.646 -0.0703 -0.0480 -0.1048
  904TIP3    H124127   3.494   3.108   2.707 -0.0310  0.1291 -0.0698
  904TIP3    H224128   3.551   3.173   2.583 -1.0951 -1.3993 -1.4066
  905TIP3   OH224129   6.027   4.814   5.485  0.2167  0.0980 -0.3180
  905TIP3    H124130   5.977   4.733   5.480 -2.0819  1.4350 -0.5499
  905TIP3    H224131   5.970   4.880   5.444  2.8475  1.4769 -2.0612
  906TIP3   OH224132   2.068   3.063   2.866  0.4927 -0.0039  0.3532
  906TIP3    H124133   2.004   2.992   2.875  1.2152 -0.6323  0.6956
  906TIP3    H224134   2.064   3.110   2.949 -0.5502  0.8649 -0.1630
  907TIP3   OH224135   1.545   2.331  14.976  0.4950 -0.0917 -0.3644
  907TIP3    H124136   1.563   2.420  15.006 -1.6129 -0.0914  1.1912
  907TIP3    H224137   1.490   2.342  14.898  0.3021 -0.0341 -0.2199
  908TIP3   OH224138   0.755   0.923  16.583  0.0772 -0.2927  0.2130
  908TIP3    H124139   0.676   0.892  16.540  0.4105  0.2172 -0.8186
  908TIP3    H224140   0.822   0.920  16.514  1.2252 -1.7119  1.3267
  909TIP3   OH224141   5.729   4.627  11.151 -0.3417 -1.0011 -0.0522
  909TIP3    H124142   5.650   4.587  11.113  0.1403  0.0232 -2.3098
  909TIP3    H224143   5.738   4.710  11.104  1.5887 -0.6948  0.7956
  910TIP3   OH224144   6.218   2.506   5.676  0.0643  0.6115 -0.4877
  910TIP3    H124145   6.224   2.413   5.701 -0.1047  0.3175 -1.4826
  910TIP3    H224146   6.136   2.535   5.714  1.4697  1.1928  2.3568
  911TIP3   OH224147   5.176   3.975  13.733  0.3899 -0.1547  0.0958
  911TIP3    H124148   5.189   4.024  13.814 -0.3382  0.9664 -0.4257
  911TIP3    H224149   5.081   3.972  13.722  0.4842 -0.1409 -0.7923
  912TIP3   OH224150   6.432   5.842   4.403 -0.3579  0.8006 -0.0458
  912TIP3    H124151   6.370   5.900   4.448 -0.2415  0.2085  0.9086
  912TIP3    H224152   6.377   5.773   4.366 -0.2176 -0.4688  1.9351
  913TIP3   OH224153   4.280   5.704  13.698  0.4136  0.2273 -0.8125
  913TIP3    H124154   4.204   5.649  13.717 -0.5946  1.8353  0.0438
  913TIP3    H224155   4.244   5.793  13.694  2.5467  1.3063  1.6498
  914TIP3   OH224156   1.154   0.231  12.564  0.2912 -0.1921 -0.4649
  914TIP3    H124157   1.107   0.251  12.483 -0.0176  2.2135  0.2352
  914TIP3    H224158   1.086   0.230  12.631  0.9744  1.5383  0.2934
  915TIP3   OH224159   1.448   1.466   2.332 -0.1000  0.2212 -0.2603
  915TIP3    H124160   1.473   1.545   2.283  0.8917  0.0740 -0.0206
  915TIP3    H224161   1.531   1.423   2.352 -0.5139  0.0784  1.2398
  916TIP3   OH224162   6.305   5.852  11.771 -0.4452 -0.0202 -0.3215
  916TIP3    H124163   6.257   5.769  11.775 -0.7028  0.0919 -1.0465
  916TIP3    H224164   6.279   5.898  11.851  0.0911 -0.8421  0.3499
  917TIP3   OH224165   1.679   1.864  11.397 -0.1337  0.0661  0.0023
  917TIP3    H124166   1.708   1.823  11.315  1.5541  0.0270  0.5758
  917TIP3    H224167   1.721   1.950  11.397 -1.8265  0.9257 -0.1299
  918TIP3   OH224168   5.415   2.643   5.671  0.5670  0.0422 -0.2152
  918TIP3    H124169   5.471   2.712   5.635  1.0315 -0.7009 -0.9574
  918TIP3    H224170   5.429   2.647   5.765 -0.8304  2.1762 -0.0336
  919TIP3   OH224171   0.102   2.311   1.858 -0.1943 -0.1161 -0.4257
  919TIP3    H124172   0.130   2.350   1.941 -0.7539 -0.9767  0.1889
  919TIP3    H224173   0.114   2.381   1.793 -1.8798  1.3713  0.7399
  920TIP3   OH224174   5.318   1.891   4.177  0.0228  0.0681 -0.5237
  920TIP3    H124175   5.350   1.865   4.264  0.5735 -0.1864 -0.7984
  920TIP3    H224176   5.396   1.921   4.131 -0.2147 -0.0801 -1.0313
  921TIP3   OH224177   6.518   2.248   5.656  0.7459 -0.2079  0.2432
  921TIP3    H124178   6.468   2.289   5.727  0.8497 -0.6904  0.6032
  921TIP3    H224179   6.564   2.175   5.699 -0.0510 -1.1837 -0.5420
  922TIP3   OH224180   1.700   1.654   1.466  0.0951 -0.1911 -0.1664
  922TIP3    H124181   1.773   1.629   1.409  1.3608  2.4476  0.1740
  922TIP3    H224182   1.623   1.615   1.424  1.4733 -1.7610 -1.3838
  923TIP3   OH224183   6.437   1.091   2.867  0.8697  0.3366 -0.0831
  923TIP3    H124184   6.420   1.173   2.914  0.0364  0.6541 -0.9035
  923TIP3    H224185   6.358   1.038   2.883 -0.1215  1.0351 -2.3034
  924TIP3   OH224186   4.846   5.090   3.963  0.3793  0.1457 -0.2445
  924TIP3    H124187   4.917   5.133   4.010  0.4281  0.9741 -1.0355
  924TIP3    H224188   4.890   5.026   3.907  0.6199  1.2884 -1.4126
  925TIP3   OH224189   4.359   0.928   0.882 -0.4879 -0.8686 -0.2153
  925TIP3    H124190   4.366   0.978   0.963  2.0627  0.0740 -0.8945
  925TIP3    H224191   4.276   0.882   0.888 -0.4491 -0.7019  2.8342
  926TIP3   OH224192   3.830   1.694   1.458 -0.2081  0.2969 -0.0282
  926TIP3    H124193   3.901   1.731   1.406 -0.1694 -0.7476 -0.7486
  926TIP3    H224194   3.821   1.753   1.532  1.1122  0.6890 -0.1631
  927TIP3   OH224195   6.162   6.664   2.094  0.8444  0.6980 -0.4270
  927TIP3    H124196   6.086   6.607   2.111 -0.3337  2.9161  2.3946
  927TIP3    H224197   6.237   6.615   2.127  0.0145  0.2988  0.9136
  928TIP3   OH224198   0.818   4.997   2.378  0.0384 -0.1042 -0.5947
  928TIP3    H124199   0.741   4.950   2.410  0.7960 -0.1654  1.2916
  928TIP3    H224200   0.891   4.960   2.427  0.9245  1.6731 -0.4728
  929TIP3   OH224201   1.522   2.294  13.608  1.0413 -0.2477 -0.3611
  929TIP3    H124202   1.586   2.354  13.647  0.3449 -0.6283  1.4773
  929TIP3    H224203   1.506   2.329  13.521  2.1857  1.0472 -0.0836
  930TIP3   OH224204   1.635   1.298   2.185  0.2204 -0.2775 -0.4302
  930TIP3    H124205   1.700   1.366   2.203 -1.2036  1.1066 -0.2394
  930TIP3    H224206   1.639   1.285   2.091  1.0974 -0.5507 -0.3584
  931TIP3   OH224207   2.849   0.944  15.817 -0.4530  0.1751  0.0293
  931TIP3    H124208   2.937   0.967  15.787 -0.1499 -1.2268 -0.2535
  931TIP3    H224209   2.858   0.935  15.912  0.1685 -1.6357 -0.1550
  932TIP3   OH224210   5.951   1.778  16.088 -0.4781 -0.8102 -0.6680
  932TIP3    H124211   5.923   1.860  16.129  2.2842 -0.8379  1.6518
  932TIP3    H224212   6.035   1.800  16.047 -0.5889 -2.0639 -1.6138
  933TIP3   OH224213   3.519   3.843  16.910  0.4389  0.3220  0.5123
  933TIP3    H124214   3.463   3.772  16.881 -0.2808  1.0302  0.1623
  933TIP3    H224215   3.601   3.799  16.936  1.8242 -0.2714 -4.0058
  934TIP3   OH224216   3.466   2.328  12.023  0.0969  0.8061 -0.3469
  934TIP3    H124217   3.524   2.306  12.095  1.3440 -0.2401 -1.5994
  934TIP3    H224218   3.479   2.422  12.009  1.0391  0.7074 -0.2120
  935TIP3   OH224219   6.564   6.173   1.775 -0.5086  0.3936  0.2915
  935TIP3    H124220   6.585   6.133   1.690 -0.0240  0.1391  0.5224
  935TIP3    H224221   6.482   6.132   1.801 -0.2399 -0.1340  0.3224
  936TIP3   OH224222   4.583   4.417   1.578 -0.0819 -0.4929 -0.0071
  936TIP3    H124223   4.563   4.348   1.515 -1.3115 -1.3892  1.2910
  936TIP3    H224224   4.529   4.396   1.654 -0.9765  2.2537  0.2189
  937TIP3   OH224225   0.565   0.974  15.485  0.5212  0.5141  0.2752
  937TIP3    H124226   0.636   0.994  15.424 -0.6898  2.1765 -0.6698
  937TIP3    H224227   0.509   0.913  15.436  1.5297 -1.2704  1.2360
  938TIP3   OH224228   6.283   4.406  16.049  0.3118  0.3882  0.2916
  938TIP3    H124229   6.300   4.500  16.053  1.0429  0.2448  0.6516
  938TIP3    H224230   6.354   4.371  15.995 -0.6409  0.1927 -0.8816
  939TIP3   OH224231   2.895   2.020  11.763  0.3379  0.0718 -0.3283
  939TIP3    H124232   2.924   1.993  11.676 -0.9071 -0.7478 -0.5178
  939TIP3    H224233   2.922   2.112  11.770  1.2878 -0.1250 -1.1937
  940TIP3   OH224234   0.832   5.429   4.245  0.0225 -0.0916 -0.3688
  940TIP3    H124235   0.737   5.433   4.232 -0.0447  0.0385  0.1360
  940TIP3    H224236   0.857   5.520   4.265 -0.2061 -0.5771  2.5341
  941TIP3   OH224237   5.360   2.611  16.481 -0.4579  0.1054  0.0698
  941TIP3    H124238   5.266   2.602  16.495 -1.0870  1.7987 -2.3775
  941TIP3    H224239   5.375   2.577  16.393  0.6814  2.3346 -0.6892
  942TIP3   OH224240   3.290   1.889   5.152 -0.3212 -0.4314 -0.5443
  942TIP3    H124241   3.204   1.910   5.188 -0.2835  0.5008 -0.9797
  942TIP3    H224242   3.336   1.847   5.225 -0.9723 -0.4900 -0.1552
  943TIP3   OH224243   5.951   3.190   1.752  0.2033 -0.2860  0.3888
  943TIP3    H124244   5.948   3.097   1.728  0.9957 -1.0730  3.0172
  943TIP3    H224245   5.893   3.232   1.689 -0.2049 -2.5506 -0.8811
  944TIP3   OH224246   0.809   2.290  12.963  0.3145 -0.3624 -0.3925
  944TIP3    H124247   0.801   2.263  12.872 -1.0164  0.2867 -0.4875
  944TIP3    H224248   0.796   2.384  12.962 -0.6317 -0.4672  0.5672
  945TIP3   OH224249   4.314   6.742   2.064  0.6819  0.2094  0.2151
  945TIP3    H124250   4.384   6.708   2.009 -0.6468 -0.3989 -1.1709
  945TIP3    H224251   4.233   6.717   2.019 -0.4331  1.4741  1.3977
  946TIP3   OH224252   4.852   0.133  15.861 -0.1444  0.4704  0.4156
  946TIP3    H124253   4.901   0.071  15.914  0.1976  0.0355 -0.3844
  946TIP3    H224254   4.794   0.178  15.923  0.7497  0.4870  1.2589
  947TIP3   OH224255   2.015   1.025   3.438  0.5366  0.2568 -0.3975
  947TIP3    H124256   2.081   1.047   3.504  0.4214 -1.0357  0.1871
  947TIP3    H224257   2.024   0.930   3.427  0.0424  0.3483 -1.7020
  948TIP3   OH224258   6.205   4.682   6.494  0.0561 -0.0197 -0.2864
  948TIP3    H124259   6.285   4.640   6.525 -0.0661  0.0854  0.1696
  948TIP3    H224260   6.236   4.741   6.425  0.5172  0.7888  0.5822
  949TIP3   OH224261   5.364   0.614   1.913 -0.2355  0.0732  0.5407
  949TIP3    H124262   5.375   0.708   1.926 -0.0935  0.0751  0.4112
  949TIP3    H224263   5.300   0.607   1.843  1.6176  0.1175 -1.2454
  950TIP3   OH224264   5.300   4.774  12.173  0.1559  0.5424  0.4826
  950TIP3    H124265   5.237   4.744  12.239 -0.4086 -0.7095 -0.5644
  950TIP3    H224266   5.289   4.869  12.170 -0.4935  0.5163  1.4936
  951TIP3   OH224267   6.225   6.020   1.595 -0.1039 -0.0998 -0.7380
  951TIP3    H124268   6.247   6.110   1.571 -0.5703  0.5063  0.9463
  951TIP3    H224269   6.167   6.028   1.670  1.0430 -1.8174  0.4218
  952TIP3   OH224270   3.523   3.238  16.824  0.8607 -0.3287  0.2150
  952TIP3    H124271   3.525   3.308  16.890  2.2597 -0.8794  0.7970
  952TIP3    H224272   3.584   3.172  16.857 -1.0527 -2.2605  0.1261
  953TIP3   OH224273   6.350   4.707   1.407  0.3601  0.8404 -0.5135
  953TIP3    H124274   6.385   4.714   1.495 -2.4922  0.4747  0.7431
  953TIP3    H224275   6.374   4.618   1.379  0.7109  0.7235  0.1395
  954TIP3   OH224276   4.178   6.715  15.958 -0.0926 -0.3919  0.0658
  954TIP3    H124277   4.219   6.800  15.976  1.3813 -1.2025  0.6711
  954TIP3    H224278   4.135   6.727  15.873  1.5400  0.4640 -0.6761
  955TIP3   OH224279   1.334   0.856  16.729 -0.4099 -0.3436 -0.2870
  955TIP3    H124280   1.322   0.825  16.639 -1.2539  1.5120 -0.8628
  955TIP3    H224281   1.422   0.892  16.730 -1.4210  2.3961 -1.3246
  956TIP3   OH224282   4.039   1.758   4.400  0.4248  0.7703  0.0847
  956TIP3    H124283   4.105   1.817   4.364  1.0608 -0.2027 -0.3919
  956TIP3    H224284   4.053   1.763   4.495  1.3705  0.3937 -0.0166
  957TIP3   OH224285   0.147   4.680   1.634 -0.9059 -0.5307 -0.3315
  957TIP3    H124286   0.068   4.714   1.675 -0.5939 -0.3896  0.1449
  957TIP3    H224287   0.172   4.747   1.570 -0.7827 -0.2635 -0.0033
  958TIP3   OH224288   5.752   6.265  16.359 -0.0087  0.3892 -0.2843
  958TIP3    H124289   5.762   6.181  16.316  0.3120 -0.0021  0.5327
  958TIP3    H224290   5.841   6.291  16.382 -0.1876  0.4965  0.3076
  959TIP3   OH224291   2.769   1.215  15.244  0.6267 -0.0289 -0.4388
  959TIP3    H124292   2.755   1.207  15.150  0.4127 -0.1676 -0.3938
  959TIP3    H224293   2.855   1.258  15.251  1.6034 -1.8651 -0.6793
  960TIP3   OH224294   1.572   0.471  13.623 -0.4321 -0.7728  0.9886
  960TIP3    H124295   1.648   0.508  13.667 -0.6609 -0.9267  1.5134
  960TIP3    H224296   1.527   0.419  13.690 -1.3502 -0.1673  0.8704
  961TIP3   OH224297   4.869   6.442  11.300 -0.1797  0.2411  0.1768
  961TIP3    H124298   4.867   6.346  11.297  1.5751  0.1744  0.1304
  961TIP3    H224299   4.936   6.466  11.236 -0.2094  1.4713  0.5888
  962TIP3   OH224300   4.448   6.815   1.129  0.5585 -0.8412 -0.7428
  962TIP3    H124301   4.520   6.857   1.177  0.4412 -0.5356 -0.8300
  962TIP3    H224302   4.489   6.741   1.083  0.6999 -1.0382 -0.3019
  963TIP3   OH224303   5.254   0.536   4.438 -0.2533 -0.2666 -0.0956
  963TIP3    H124304   5.293   0.542   4.525  0.5730 -1.8621 -0.3246
  963TIP3    H224305   5.322   0.567   4.379  0.4399 -2.2529 -0.4201
  964TIP3   OH224306   6.666   4.755   3.104 -0.2307  0.1015  0.5290
  964TIP3    H124307   6.735   4.820   3.119  0.2418 -0.3584  0.3676
  964TIP3    H224308   6.668   4.699   3.181 -0.2020 -0.1149  0.3693
  965TIP3   OH224309   6.047   5.961  11.098  0.0010  0.4760 -0.2655
  965TIP3    H124310   6.016   5.891  11.040  0.3717  1.8435 -2.2508
  965TIP3    H224311   5.985   6.032  11.084  0.2806  0.9529  0.8254
  966TIP3   OH224312   3.077   3.506   0.194 -0.1885  0.7005  0.2592
  966TIP3    H124313   3.158   3.488   0.146  0.5938  0.5999  1.5582
  966TIP3    H224314   3.097   3.584   0.246  0.5336 -1.5473  3.6675
  967TIP3   OH224315   3.637   2.658  13.214 -0.3401 -0.5245 -0.0313
  967TIP3    H124316   3.636   2.751  13.236 -0.1832 -0.6911  0.7228
  967TIP3    H224317   3.645   2.614  13.299  0.3437 -1.2037 -0.4339
  968TIP3   OH224318   2.104   6.602  12.467 -0.4003 -0.5477 -0.5631
  968TIP3    H124319   2.029   6.575  12.414 -0.5354 -3.0953  0.7873
  968TIP3    H224320   2.112   6.535  12.534  1.2124  1.2925  1.2392
  969TIP3   OH224321   6.786   4.841  13.181 -0.0868 -0.0138 -0.3620
  969TIP3    H124322   6.732   4.763  13.197 -0.1790 -0.0669 -0.8930
  969TIP3    H224323   6.873   4.806  13.162  0.0776  0.0591  0.2505
  970TIP3   OH224324   4.559   3.875   2.717  0.7395 -0.2311  0.2616
  970TIP3    H124325   4.634   3.840   2.764  0.4998  0.2905  1.0542
  970TIP3    H224326   4.491   3.808   2.725  1.0642 -0.6404 -0.3346
  971TIP3   OH224327   5.628   0.585  13.981  0.1327 -0.2083 -0.4107
  971TIP3    H124328   5.614   0.491  13.974  0.5415 -0.4560  1.4226
  971TIP3    H224329   5.541   0.620  14.001  0.4273 -0.6115  1.8557
  972TIP3   OH224330   2.412   6.736   3.807  0.0229 -0.3304 -0.2661
  972TIP3    H124331   2.498   6.756   3.845  0.0370 -0.6570 -0.1265
  972TIP3    H224332   2.431   6.673   3.738  0.0003  0.2911 -0.8456
  973TIP3   OH224333   4.904   5.941   5.048 -0.1378  0.5173  0.0780
  973TIP3    H124334   4.996   5.913   5.042 -0.8898 -1.9629 -1.2374
  973TIP3    H224335   4.854   5.860   5.035 -2.5312  2.0092 -0.4506
  974TIP3   OH224336   6.687   6.613  12.645  0.2461  0.4792 -0.5239
  974TIP3    H124337   6.776   6.639  12.665  0.5749 -0.1074 -1.1660
  974TIP3    H224338   6.662   6.666  12.570 -0.1753  1.0730  0.0200
  975TIP3   OH224339   6.267   3.142   0.382  0.0328  0.2478  0.6241
  975TIP3    H124340   6.200   3.086   0.343  1.1289 -1.0345  0.5012
  975TIP3    H224341   6.219   3.196   0.444 -1.2926  0.2199 -0.3140
  976TIP3   OH224342   5.834   5.580   3.049 -0.3065 -0.1066  0.2788
  976TIP3    H124343   5.758   5.629   3.079 -0.2507  1.6710 -2.1933
  976TIP3    H224344   5.797   5.500   3.012 -0.8347  0.1049  0.3391
  977TIP3   OH224345   2.317   3.784   4.715  0.2996 -0.0106 -1.0910
  977TIP3    H124346   2.405   3.810   4.744  0.7610 -2.0235 -0.5121
  977TIP3    H224347   2.270   3.767   4.797 -0.5635  0.7396 -1.4102
  978TIP3   OH224348   2.263   2.834  14.674  0.8570  0.7331  0.1451
  978TIP3    H124349   2.252   2.896  14.602 -0.4455  1.0483  0.5749
  978TIP3    H224350   2.279   2.889  14.751 -1.5659  0.6965  0.7690
  979TIP3   OH224351   3.518   3.233   4.749 -0.6359  0.6399 -0.2887
  979TIP3    H124352   3.553   3.233   4.838  1.8693  3.2553 -1.1039
  979TIP3    H224353   3.559   3.157   4.707 -0.6756  0.2387  0.3814
  980TIP3   OH224354   0.509   6.329   3.594 -0.5387 -0.3453  0.6367
  980TIP3    H124355   0.541   6.323   3.684 -0.5747 -0.5717  0.6355
  980TIP3    H224356   0.568   6.391   3.551  0.4523 -1.4252  0.3964
  981TIP3   OH224357   4.328   2.144  12.991  0.2223  0.0809  0.2928
  981TIP3    H124358   4.276   2.224  12.990 -0.0231  0.2098  4.2367
  981TIP3    H224359   4.271   2.078  12.953 -0.2295  1.4125 -1.4633
  982TIP3   OH224360   3.604   3.044   0.322  0.2536 -0.2460  0.4402
  982TIP3    H124361   3.631   2.953   0.309  0.5384 -0.0268 -0.5864
  982TIP3    H224362   3.597   3.080   0.233  1.1716  1.0366  0.8666
  983TIP3   OH224363   0.345   0.753   0.634 -0.1833 -0.4298  0.2315
  983TIP3    H124364   0.255   0.727   0.616  0.3871 -1.0301 -2.0929
  983TIP3    H224365   0.399   0.688   0.589  1.3978  0.4681  0.7251
  984TIP3   OH224366   6.129   0.741   4.038 -0.0741  0.4703  0.0899
  984TIP3    H124367   6.098   0.655   4.009 -2.0335  1.3348 -0.5225
  984TIP3    H224368   6.219   0.725   4.067 -0.6493 -1.9433  0.7765
  985TIP3   OH224369   6.412   3.857  11.866 -0.2668  0.1131  0.5561
  985TIP3    H124370   6.367   3.806  11.799 -0.2774 -0.8004  1.2455
  985TIP3    H224371   6.376   3.945  11.856 -1.7818 -0.4613  0.6836
  986TIP3   OH224372   0.412   2.871  15.983  0.4565  0.4953 -0.1298
  986TIP3    H124373   0.373   2.932  16.045  2.0153 -0.3534  1.7990
  986TIP3    H224374   0.338   2.833  15.936 -0.6417  2.5026 -0.1039
  987TIP3   OH224375   1.301   0.876   5.206  0.6560 -0.9593  0.0601
  987TIP3    H124376   1.364   0.840   5.143 -1.2612 -2.2411 -1.2270
  987TIP3    H224377   1.328   0.967   5.218  1.3980 -0.8109 -2.2416
  988TIP3   OH224378   5.835   1.006  12.769 -0.1216 -0.2208 -0.0979
  988TIP3    H124379   5.865   0.918  12.791 -0.8346 -0.1089  1.4015
  988TIP3    H224380   5.856   1.015  12.676  0.8595 -1.5963 -0.0483
  989TIP3   OH224381   3.895   5.635  10.447 -0.3398  0.3246 -0.4113
  989TIP3    H124382   3.938   5.684  10.517  0.3124 -0.9366  0.1111
  989TIP3    H224383   3.805   5.624  10.478 -0.5944  1.4749 -0.7036
  990TIP3   OH224384   2.686   1.395   3.833  0.6835  0.0499  0.5553
  990TIP3    H124385   2.708   1.349   3.914  0.4067  1.3579  1.4102
  990TIP3    H224386   2.733   1.478   3.839 -1.7200  1.4899  0.8853
  991TIP3   OH224387   1.321   3.664  10.653 -0.2486 -0.1446 -0.0954
  991TIP3    H124388   1.354   3.700  10.736 -0.6807  0.0984 -0.0244
  991TIP3    H224389   1.349   3.727  10.587  1.8808 -1.3574 -0.4352
  992TIP3   OH224390   3.573   4.088  16.122 -0.5968 -0.3113 -0.2853
  992TIP3    H124391   3.592   4.171  16.166  0.9656 -0.2571 -1.0121
  992TIP3    H224392   3.478   4.078  16.130 -1.3487  3.0700 -2.7862
  993TIP3   OH224393   6.417   0.838  14.352  0.3194  0.2225  0.1500
  993TIP3    H124394   6.344   0.849  14.290  0.0018  0.8617  0.6161
  993TIP3    H224395   6.446   0.748  14.340  0.2293  0.3238 -0.8947
  994TIP3   OH224396   1.961   5.223  15.222  0.5174 -0.0457  0.0466
  994TIP3    H124397   1.881   5.173  15.201  1.6311 -2.1870  0.6230
  994TIP3    H224398   1.982   5.269  15.141 -0.9603  0.0934 -0.2946
  995TIP3   OH224399   5.140   4.032   5.569  0.2915 -0.1475  0.0192
  995TIP3    H124400   5.111   4.118   5.600 -0.7430 -0.3620 -0.3181
  995TIP3    H224401   5.060   3.980   5.561  0.7650 -0.7828 -0.8837
  996TIP3   OH224402   1.418   5.542   0.793 -0.0969  0.2538 -0.0499
  996TIP3    H124403   1.401   5.478   0.862 -2.2722  0.7096 -0.0969
  996TIP3    H224404   1.504   5.579   0.816  0.6550 -1.7692  0.6403
  997TIP3   OH224405   4.936   3.522  12.582  0.1521  0.2125 -0.9509
  997TIP3    H124406   4.950   3.431  12.555 -2.4731 -0.1057 -1.4643
  997TIP3    H224407   4.848   3.523  12.619  1.0723  2.0621  1.4250
  998TIP3   OH224408   5.505   5.846   3.369 -0.0288  0.6983 -0.1641
  998TIP3    H124409   5.575   5.899   3.330 -2.2333  1.4129 -3.6573
  998TIP3    H224410   5.426   5.898   3.355 -1.5501 -0.9332  1.8105
  999TIP3   OH224411   4.750   4.122  14.719 -0.1449  0.3097  0.1343
  999TIP3    H124412   4.727   4.214  14.703  0.6377  0.5920  0.5537
  999TIP3    H224413   4.715   4.104  14.806  1.3030  0.8025  0.8631
 1000TIP3   OH224414   1.356   4.999   5.021  0.0385 -0.0995  0.2515
 1000TIP3    H124415   1.268   5.026   5.048 -0.7478 -1.1704 -1.1003
 1000TIP3    H224416   1.358   5.017   4.927  0.5773 -1.8254 -0.0940
 1001TIP3   OH224417   4.347   3.538   4.595  0.3651 -0.1935 -0.5880
 1001TIP3    H124418   4.324   3.577   4.679  2.0283  0.0177 -0.1977
 1001TIP3    H224419   4.273   3.480   4.575 -0.9039  1.1177  0.1089
 1002TIP3   OH224420   4.017   3.725   1.383 -0.7265 -0.1185 -0.4413
 1002TIP3    H124421   4.027   3.810   1.426 -0.5217 -0.7032  0.7128
 1002TIP3    H224422   4.079   3.726   1.310  1.2424 -0.2530  1.1392
 1003TIP3   OH224423   2.840   3.362   5.216  0.2300 -0.2153 -0.0029
 1003TIP3    H124424   2.763   3.306   5.216  1.9377 -2.8134 -1.4579
 1003TIP3    H224425   2.835   3.410   5.133 -0.4694  0.6695  0.5380
 1004TIP3   OH224426   2.055   5.274  14.038  0.3720  0.2635 -0.0960
 1004TIP3    H124427   1.997   5.274  14.114  0.5283 -1.7084  0.0773
 1004TIP3    H224428   2.141   5.299  14.074  0.3519 -0.2259  0.2996
 1005TIP3   OH224429   0.467   4.037  11.775  0.6648  0.0144  0.1544
 1005TIP3    H124430   0.560   4.053  11.757  0.7148 -0.1103  0.3025
 1005TIP3    H224431   0.453   3.945  11.755  0.2209  0.3752 -1.3403
 1006TIP3   OH224432   2.739   0.322  13.963 -0.4988 -0.0595  0.4416
 1006TIP3    H124433   2.749   0.296  13.871  1.1400 -0.1016  0.6033
 1006TIP3    H224434   2.752   0.417  13.963 -1.4561  0.0796  0.5178
 1007TIP3   OH224435   4.163   4.865   4.387  0.2096 -0.2064  0.1066
 1007TIP3    H124436   4.108   4.934   4.349  0.3156 -0.3534 -0.3198
 1007TIP3    H224437   4.116   4.839   4.466 -0.1100 -0.0219 -0.0167
 1008TIP3   OH224438   1.223   4.585   5.836  0.3769 -0.0249  0.0244
 1008TIP3    H124439   1.174   4.514   5.795  0.4629  0.0836 -0.2656
 1008TIP3    H224440   1.286   4.541   5.893  0.7036 -0.1923 -0.4641
 1009TIP3   OH224441   3.361   1.578  12.888  0.2288  0.0529  0.4541
 1009TIP3    H124442   3.308   1.657  12.878  0.4973  0.1443 -0.3744
 1009TIP3    H224443   3.426   1.601  12.954  0.5225  0.6568 -0.0317
 1010TIP3   OH224444   4.432   5.728   0.365  0.0593 -0.0255  0.2485
 1010TIP3    H124445   4.453   5.741   0.272 -0.1182  0.3564  0.2603
 1010TIP3    H224446   4.337   5.737   0.370  0.1991  1.5444  0.6991
 1011TIP3   OH224447   1.131   2.424  11.102 -0.5062  0.0427 -0.2559
 1011TIP3    H124448   1.036   2.416  11.104 -0.5302 -0.0312  2.6875
 1011TIP3    H224449   1.147   2.518  11.101 -0.6149  0.0567 -0.6459
 1012TIP3   OH224450   5.175   1.076  15.692  0.3675 -0.6266  0.4683
 1012TIP3    H124451   5.208   1.003  15.640  0.4926 -1.3233  1.5132
 1012TIP3    H224452   5.222   1.071  15.775 -0.2583  0.1097  0.8855
 1013TIP3   OH224453   4.260   5.292   5.708  0.0938 -0.5935 -0.6788
 1013TIP3    H124454   4.201   5.268   5.637  1.6000 -0.1034 -2.1872
 1013TIP3    H224455   4.288   5.209   5.746 -3.9262 -0.8511  2.3025
 1014TIP3   OH224456   0.728   3.410   0.461 -0.1064 -0.3979 -0.0190
 1014TIP3    H124457   0.699   3.482   0.406 -0.7744 -0.6300  0.0208
 1014TIP3    H224458   0.729   3.446   0.550 -0.3936 -0.4247 -0.0052
 1015TIP3   OH224459   0.734   5.496  12.186  0.4271  0.8850  0.1357
 1015TIP3    H124460   0.733   5.591  12.203  2.6201  1.2710 -1.4496
 1015TIP3    H224461   0.814   5.482  12.134 -0.5878 -1.6382 -0.8823
 1016TIP3   OH224462   1.863   1.098  16.739 -0.0949 -0.1148 -0.1587
 1016TIP3    H124463   1.907   1.175  16.705  1.1323 -0.7601 -0.0993
 1016TIP3    H224464   1.874   1.104  16.834  0.0891 -0.4037 -0.1611
 1017TIP3   OH224465   1.474   5.781   4.289 -0.3797  0.9141 -0.2654
 1017TIP3    H124466   1.512   5.830   4.363 -0.7297  0.5562  0.1558
 1017TIP3    H224467   1.536   5.709   4.274 -0.2051  1.1022 -0.4550
 1018TIP3   OH224468   0.537   4.675   0.225  0.2794  0.4195  0.1475
 1018TIP3    H124469   0.574   4.761   0.205  0.9381  0.3337  0.9642
 1018TIP3    H224470   0.552   4.623   0.145 -0.8621  1.2859 -0.6631
 1019TIP3   OH224471   2.008   4.901  11.292 -0.0312  0.0407  0.3091
 1019TIP3    H124472   2.066   4.943  11.229 -1.2811  0.3388 -0.6778
 1019TIP3    H224473   2.016   4.807  11.274 -0.5335  0.1380 -0.4304
 1020TIP3   OH224474   0.644   3.540  13.794  0.2593 -0.2286 -0.1043
 1020TIP3    H124475   0.713   3.474  13.783 -1.0528 -1.5899 -0.4870
 1020TIP3    H224476   0.565   3.499  13.759 -1.0077  0.8538  1.3258
 1021TIP3   OH224477   3.543   4.039   4.192 -0.3273  0.4858 -0.1025
 1021TIP3    H124478   3.528   4.103   4.262  0.3288 -0.9717  1.4419
 1021TIP3    H224479   3.508   3.957   4.226 -0.5095 -0.1579 -1.7452
 1022TIP3   OH224480   6.089   5.425  15.497  0.4050 -0.1530 -0.1532
 1022TIP3    H124481   6.138   5.476  15.562  0.5470  0.2872 -0.6008
 1022TIP3    H224482   6.146   5.423  15.420 -0.6560  1.1939 -1.0272
 1023TIP3   OH224483   0.394   5.029   4.132  0.1164 -0.3565  0.4292
 1023TIP3    H124484   0.338   5.064   4.063 -2.2792 -2.0891  1.3548
 1023TIP3    H224485   0.333   5.000   4.200  2.1718 -1.9944  1.6974
 1024TIP3   OH224486   3.269   2.859   2.276  0.3270 -0.0972  0.2360
 1024TIP3    H124487   3.237   2.771   2.256 -0.6456  0.4590 -0.7581
 1024TIP3    H224488   3.191   2.906   2.307 -0.2671  1.6539 -3.4394
 1025TIP3   OH224489   5.703   2.576   1.700 -0.6166 -0.0252 -0.2866
 1025TIP3    H124490   5.765   2.503   1.694 -1.7123 -1.1778  1.4017
 1025TIP3    H224491   5.651   2.570   1.620  0.3834 -0.0390 -0.9508
 1026TIP3   OH224492   1.747   4.624   5.092  0.3510  0.0496 -0.6770
 1026TIP3    H124493   1.836   4.649   5.117 -0.1606  1.2781 -0.0079
 1026TIP3    H224494   1.693   4.697   5.121 -0.8129 -0.4377 -1.5721
 1027TIP3   OH224495   5.763   0.890   3.052  0.4377 -0.5652  0.4548
 1027TIP3    H124496   5.832   0.945   3.016  0.6920 -0.4365  1.1251
 1027TIP3    H224497   5.772   0.899   3.147 -0.7425 -0.2373  0.5567
 1028TIP3   OH224498   4.401   1.526  15.545 -0.1012 -0.1342  0.4876
 1028TIP3    H124499   4.413   1.580  15.623 -1.6607  1.8771 -0.5685
 1028TIP3    H224500   4.473   1.551  15.488 -0.4414  0.3574  0.2668
 1029TIP3   OH224501   4.789   3.837  14.665  0.2135  0.8490 -0.1369
 1029TIP3    H124502   4.758   3.882  14.744 -1.5341  0.8565 -0.7913
 1029TIP3    H224503   4.868   3.791  14.693  0.2739  1.7704  1.3232
 1030TIP3   OH224504   0.495   1.266  10.544 -0.3504  0.0976 -0.2636
 1030TIP3    H124505   0.524   1.356  10.554 -0.2680  0.0412  0.0159
 1030TIP3    H224506   0.428   1.269  10.475 -0.6023  0.4282 -0.0066
 1031TIP3   OH224507   2.338   3.103   2.706  0.1567  0.2199 -0.0989
 1031TIP3    H124508   2.264   3.062   2.752 -0.5650  1.4703 -0.0824
 1031TIP3    H224509   2.376   3.161   2.771 -1.4309  2.6976 -1.2369
 1032TIP3   OH224510   5.606   2.558   2.058 -0.1373 -0.5891  0.6496
 1032TIP3    H124511   5.687   2.532   2.015 -0.0956  2.6562 -1.5752
 1032TIP3    H224512   5.614   2.523   2.147  2.0103 -3.4233 -0.5178
 1033TIP3   OH224513   2.331   2.806  11.431  0.7255 -0.0600  0.3085
 1033TIP3    H124514   2.352   2.893  11.466 -0.7350  0.5861 -0.3365
 1033TIP3    H224515   2.240   2.791  11.458  0.4583 -0.7055 -0.8841
 1034TIP3   OH224516   5.285   2.811  14.505  0.0831 -0.6654 -0.1255
 1034TIP3    H124517   5.305   2.900  14.474  1.2530 -0.9657 -0.2907
 1034TIP3    H224518   5.288   2.757  14.426  0.7697 -1.0651  0.1663
 1035TIP3   OH224519   2.716   4.462  13.719  0.5724 -1.1720  0.4101
 1035TIP3    H124520   2.693   4.453  13.626  1.4055 -1.5493  0.2321
 1035TIP3    H224521   2.716   4.373  13.753  0.6388 -1.0686  0.6818
 1036TIP3   OH224522   5.650   5.439  14.756 -0.7401 -0.1317 -0.0112
 1036TIP3    H124523   5.719   5.399  14.703 -0.3094  0.1504  0.3252
 1036TIP3    H224524   5.651   5.531  14.729  0.1722  0.2379  1.1774
 1037TIP3   OH224525   2.765   5.639  14.761 -0.3726 -0.0962 -0.3725
 1037TIP3    H124526   2.831   5.626  14.692  1.3178  0.1876  1.1022
 1037TIP3    H224527   2.794   5.718  14.806 -1.8392  0.1024  0.2525
 1038TIP3   OH224528   0.615   2.872  14.628  0.9718 -0.0253  0.0491
 1038TIP3    H124529   0.568   2.859  14.711  1.1278 -0.3219  0.0903
 1038TIP3    H224530   0.675   2.798  14.623  1.4906  0.3928  0.0338
 1039TIP3   OH224531   4.640   4.731   2.470  0.0214  0.1767 -0.6602
 1039TIP3    H124532   4.647   4.663   2.537  1.1438  0.3123 -0.6156
 1039TIP3    H224533   4.716   4.788   2.486 -0.0858  0.6033 -1.6036
 1040TIP3   OH224534   2.324   2.562  14.938 -0.0178 -0.2639 -0.0105
 1040TIP3    H124535   2.377   2.484  14.956  1.0901  0.9592  2.3579
 1040TIP3    H224536   2.271   2.537  14.862 -0.0270 -3.4784  0.8905
 1041TIP3   OH224537   6.730   6.303  15.718 -0.7027 -1.1493 -0.1449
 1041TIP3    H124538   6.672   6.378  15.725 -0.7015 -1.1239 -0.3958
 1041TIP3    H224539   6.726   6.261  15.804 -0.9188 -1.0213 -0.0920
 1042TIP3   OH224540   5.379   0.953  11.514  0.3967 -0.4652 -0.1827
 1042TIP3    H124541   5.368   1.039  11.473 -1.2136 -0.4918  0.1096
 1042TIP3    H224542   5.448   0.965  11.578 -0.5440  0.9256  0.6164
 1043TIP3   OH224543   2.720   1.163  16.785  0.1137  0.4628 -0.2008
 1043TIP3    H124544   2.672   1.138  16.864  1.4690  3.1775  1.6446
 1043TIP3    H224545   2.792   1.101  16.780 -1.5474 -1.5225 -1.0590
 1044TIP3   OH224546   5.537   3.125  16.262  0.0805  0.0350 -0.4938
 1044TIP3    H124547   5.467   3.179  16.299  0.2713  0.0368 -0.1289
 1044TIP3    H224548   5.529   3.137  16.168 -1.2205 -0.9552 -0.5379
 1045TIP3   OH224549   0.372   4.062   1.697  0.2309 -0.1139  0.1354
 1045TIP3    H124550   0.335   4.146   1.724 -0.6470  0.2268 -1.8781
 1045TIP3    H224551   0.398   4.075   1.606 -0.3130 -2.1066 -0.3803
 1046TIP3   OH224552   2.215   4.494  13.409  0.7556 -0.1181 -0.2236
 1046TIP3    H124553   2.126   4.471  13.381  0.6495 -1.2431  0.9206
 1046TIP3    H224554   2.260   4.521  13.329 -0.7634  1.0315 -0.7524
 1047TIP3   OH224555   6.316   2.732   0.202 -0.1805 -0.0308  0.2153
 1047TIP3    H124556   6.376   2.701   0.134 -1.5395 -2.0329 -0.1477
 1047TIP3    H224557   6.241   2.767   0.154 -0.7288 -0.5717  0.6590
 1048TIP3   OH224558   5.273   6.212   6.598 -0.1124 -0.0023 -0.1137
 1048TIP3    H124559   5.310   6.188   6.683  0.6172  1.8688  0.1348
 1048TIP3    H224560   5.181   6.230   6.616 -0.2303 -0.7270  0.0429
 1049TIP3   OH224561   3.029   5.229   5.215  0.0921  0.0074 -0.1684
 1049TIP3    H124562   2.951   5.246   5.267 -0.0405 -0.2079 -0.2972
 1049TIP3    H224563   3.011   5.146   5.171  0.6606 -0.3727  0.3101
 1050TIP3   OH224564   1.559   3.721   3.136  0.1839 -0.0669 -0.6043
 1050TIP3    H124565   1.651   3.744   3.143  0.9516 -3.1957  1.3188
 1050TIP3    H224566   1.558   3.640   3.086 -1.7610  0.6960 -1.9731
 1051TIP3   OH224567   3.862   1.210   1.549 -0.0411  0.5446 -0.1178
 1051TIP3    H124568   3.950   1.172   1.554 -0.2852  0.2011  2.9818
 1051TIP3    H224569   3.821   1.164   1.475  1.1912 -1.9464  0.6508
 1052TIP3   OH224570   6.038   3.309   0.291 -0.0116 -0.0442 -0.0725
 1052TIP3    H124571   6.043   3.331   0.198  0.8656  0.3373  0.0565
 1052TIP3    H224572   6.016   3.216   0.292  0.2990 -0.1317 -0.6687
 1053TIP3   OH224573   0.045   0.913   3.375 -1.0820  0.5023  0.4015
 1053TIP3    H124574   0.046   0.831   3.425 -0.3868 -0.2998 -0.8649
 1053TIP3    H224575  -0.032   0.906   3.319  0.5860 -0.7031 -1.8748
 1054TIP3   OH224576   6.425   0.121  13.297  0.1592 -0.1295  0.1633
 1054TIP3    H124577   6.487   0.050  13.313 -1.0682 -2.2531 -3.3563
 1054TIP3    H224578   6.467   0.176  13.231 -0.3772  0.3658  0.2203
 1055TIP3   OH224579   2.615   5.649   3.206  0.0507  0.2464 -0.5124
 1055TIP3    H124580   2.654   5.563   3.221 -0.0814 -0.1675 -2.3815
 1055TIP3    H224581   2.592   5.679   3.294  0.6579 -1.3493  0.2447
 1056TIP3   OH224582   6.789   2.928  13.198  0.1493 -0.1224  0.6568
 1056TIP3    H124583   6.716   2.869  13.180  1.2330 -1.3629  0.1915
 1056TIP3    H224584   6.853   2.909  13.130  1.1038  0.6335  1.3111
 1057TIP3   OH224585   5.110   5.239   2.630  0.3739  0.8016  0.1259
 1057TIP3    H124586   5.183   5.233   2.568  1.5536  1.2727  1.4327
 1057TIP3    H224587   5.113   5.156   2.678 -2.0995 -0.7094 -2.0068
 1058TIP3   OH224588   2.504   0.242   4.490 -0.1196  0.4975  0.2481
 1058TIP3    H124589   2.409   0.257   4.492 -0.1802  0.8574 -2.2603
 1058TIP3    H224590   2.535   0.271   4.576 -2.5396 -1.9352  2.1397
 1059TIP3   OH224591   5.704   5.842  11.791  0.3414 -0.4574 -0.1133
 1059TIP3    H124592   5.666   5.832  11.704  0.7349 -2.9095 -0.0702
 1059TIP3    H224593   5.632   5.876  11.845  0.3118  1.8922 -1.4920
 1060TIP3   OH224594   0.666   5.445  11.166 -0.3021  0.1072  0.3327
 1060TIP3    H124595   0.688   5.402  11.084 -1.5836  1.9502 -1.0785
 1060TIP3    H224596   0.651   5.537  11.142 -3.2444  0.2452  2.1219
 1061TIP3   OH224597   5.204   3.267  13.423 -0.4454  0.1672 -0.8266
 1061TIP3    H124598   5.252   3.213  13.361 -0.8362 -0.6888 -0.3981
 1061TIP3    H224599   5.118   3.224  13.432 -0.4623  0.3716  0.1600
 1062TIP3   OH224600   2.689   3.835  10.649 -0.5312  0.0843  0.6549
 1062TIP3    H124601   2.672   3.782  10.727 -0.7191 -1.2250 -0.2565
 1062TIP3    H224602   2.780   3.816  10.627 -0.3513  0.7698  0.7691
 1063TIP3   OH224603   5.716   5.782  15.406  0.7560  0.0234  0.1298
 1063TIP3    H124604   5.806   5.754  15.387  1.1251  0.9133  0.5282
 1063TIP3    H224605   5.700   5.853  15.344 -0.2436 -1.1456 -1.0063
 1064TIP3   OH224606   4.534   0.563   3.361 -0.0763 -0.1982 -0.8418
 1064TIP3    H124607   4.448   0.569   3.320 -0.3847  1.5016 -0.0196
 1064TIP3    H224608   4.522   0.601   3.448  1.3874 -0.4504 -0.4983
 1065TIP3   OH224609   1.185   5.911   5.999 -0.1226  0.5105  0.4585
 1065TIP3    H124610   1.267   5.873   5.969  0.2688  1.6828 -0.0119
 1065TIP3    H224611   1.163   5.862   6.078 -0.1147 -1.2837 -0.5900
 1066TIP3   OH224612   0.573   6.521  16.306 -0.2508  0.2875  0.6958
 1066TIP3    H124613   0.650   6.467  16.324  0.4184  1.2553  0.8150
 1066TIP3    H224614   0.570   6.583  16.379 -0.9581  0.4634  0.5207
 1067TIP3   OH224615   2.114   0.303  13.823  0.1706 -0.2483 -0.2080
 1067TIP3    H124616   2.169   0.231  13.854  1.4137  0.6444 -0.2633
 1067TIP3    H224617   2.125   0.303  13.727  0.1600 -0.0068 -0.2113
 1068TIP3   OH224618   6.137   0.053  10.894  0.4764 -0.0715  0.1546
 1068TIP3    H124619   6.130  -0.041  10.874  1.2188  0.0547 -0.8199
 1068TIP3    H224620   6.052   0.089  10.872  0.2768 -0.4777  0.2623
 1069TIP3   OH224621   5.363   2.884  14.872  0.1813  0.0223  0.1708
 1069TIP3    H124622   5.324   2.810  14.918 -0.1575  1.1846  1.8666
 1069TIP3    H224623   5.380   2.948  14.941  1.7917  0.9664 -1.0354
 1070TIP3   OH224624   0.237   3.978   2.530  0.1140  0.2209  0.0211
 1070TIP3    H124625   0.190   4.054   2.564 -0.7906 -0.6803  0.8583
 1070TIP3    H224626   0.329   3.997   2.547 -0.2733 -0.4916  3.8640
 1071TIP3   OH224627   4.029   3.008  16.398  0.2681 -0.0394  0.5908
 1071TIP3    H124628   4.101   3.048  16.447  0.2911 -0.1576  0.6544
 1071TIP3    H224629   4.054   2.916  16.389  0.7213  0.1729 -0.4655
 1072TIP3   OH224630   3.258   5.392   2.024  0.5052  0.4005 -0.3867
 1072TIP3    H124631   3.302   5.399   2.109  0.3287  0.9355 -0.3318
 1072TIP3    H224632   3.246   5.483   1.996 -0.6745  0.2766 -0.3355
 1073TIP3   OH224633   1.984   1.462   0.668 -0.1283 -0.4733  0.6235
 1073TIP3    H124634   1.946   1.538   0.713 -0.4700  1.5774 -2.7540
 1073TIP3    H224635   1.913   1.427   0.615  1.2150  0.1891 -1.8143
 1074TIP3   OH224636   1.154   0.076   1.324 -0.2828 -0.0346  0.6231
 1074TIP3    H124637   1.177   0.133   1.252 -1.2474  0.1843  0.4713
 1074TIP3    H224638   1.201  -0.006   1.306 -1.9341 -0.6610 -1.2985
 1075TIP3   OH224639   5.751   1.906   4.828 -0.3224  0.4559  0.6837
 1075TIP3    H124640   5.675   1.850   4.843 -0.3088  0.0706 -0.5652
 1075TIP3    H224641   5.761   1.955   4.909 -0.6765 -0.9335  1.6042
 1076TIP3   OH224642   4.797   2.457  10.984  0.0805 -0.1275  0.1432
 1076TIP3    H124643   4.747   2.477  10.906  1.1838 -1.1003 -0.8586
 1076TIP3    H224644   4.780   2.531  11.043 -1.5577  0.1341 -0.5976
 1077TIP3   OH224645   6.763   6.700   5.615  0.3200  0.0582 -0.1395
 1077TIP3    H124646   6.683   6.752   5.623  0.0211  0.2728 -3.2042
 1077TIP3    H224647   6.831   6.754   5.656 -0.5090  1.4661 -0.5327
 1078TIP3   OH224648   0.688   2.937  14.989 -0.2371 -0.5164 -0.1789
 1078TIP3    H124649   0.622   2.869  14.982 -0.8258 -0.0425  0.6763
 1078TIP3    H224650   0.643   3.018  14.966  0.2679 -0.3008 -0.4437
 1079TIP3   OH224651   2.256   2.592   6.149 -0.3182 -0.4515  0.6466
 1079TIP3    H124652   2.344   2.562   6.172 -0.5834 -0.4052  1.7834
 1079TIP3    H224653   2.204   2.574   6.227 -0.5182  2.9309  1.4401
 1080TIP3   OH224654   0.944   3.802  14.967  0.0354  0.0772 -0.1671
 1080TIP3    H124655   0.879   3.749  15.012 -0.7166 -0.9711 -2.3327
 1080TIP3    H224656   0.984   3.743  14.904  0.9506  1.4622 -0.9435
 1081TIP3   OH224657   1.603   6.052   3.808 -0.1075 -0.1886  1.2410
 1081TIP3    H124658   1.641   6.039   3.895 -0.3564  0.6935  1.4896
 1081TIP3    H224659   1.569   5.966   3.784 -1.0663 -0.2099  2.5225
 1082TIP3   OH224660   4.981   3.915  12.205  0.2145 -0.2432  0.4624
 1082TIP3    H124661   5.006   3.938  12.294 -0.4757 -0.7989  0.8129
 1082TIP3    H224662   4.910   3.851  12.216  2.6462 -3.3702 -0.4170
 1083TIP3   OH224663   1.694   0.840  10.938 -0.4671  0.3419  0.1548
 1083TIP3    H124664   1.763   0.858  10.874 -0.0249 -2.0248 -0.0931
 1083TIP3    H224665   1.622   0.897  10.911 -0.3639 -0.6757 -2.5817
 1084TIP3   OH224666   0.918   5.227   1.478 -0.4496 -0.1743 -0.3850
 1084TIP3    H124667   0.902   5.225   1.384  0.6292 -0.9775 -0.5614
 1084TIP3    H224668   0.860   5.159   1.514  0.2865 -0.9500 -0.6565
 1085TIP3   OH224669   4.592   1.773   2.001  0.4097 -0.2366  0.0413
 1085TIP3    H124670   4.622   1.775   2.092 -1.4371  0.3984  0.6826
 1085TIP3    H224671   4.602   1.682   1.974 -0.8326 -0.8505  1.5414
 1086TIP3   OH224672   2.909   6.213  15.051 -0.6648  0.5360 -0.0024
 1086TIP3    H124673   2.841   6.247  15.109  0.1990  0.2351  1.2441
 1086TIP3    H224674   2.934   6.129  15.090 -0.4797  0.0302 -1.1756
 1087TIP3   OH224675   3.229   3.654   0.778 -0.0425  0.4787 -0.3040
 1087TIP3    H124676   3.271   3.568   0.777  0.8488  0.8995 -1.2974
 1087TIP3    H224677   3.175   3.655   0.699 -0.5532  0.5914  0.0468
 1088TIP3   OH224678   4.464   3.623  13.395 -0.1399  0.1951 -0.0849
 1088TIP3    H124679   4.486   3.584  13.310  0.9188 -1.7226  1.0155
 1088TIP3    H224680   4.437   3.712  13.373  2.0004  0.4344 -2.2733
 1089TIP3   OH224681   1.519   4.720   6.146  0.6548  0.5536  0.1937
 1089TIP3    H124682   1.531   4.695   6.238 -0.9151  0.2248  0.3367
 1089TIP3    H224683   1.546   4.812   6.143  2.6838  0.0206  0.5143
 1090TIP3   OH224684   6.043   6.664  11.564  0.3984 -0.3747 -0.8755
 1090TIP3    H124685   6.010   6.701  11.646 -2.4026  0.2185 -2.1617
 1090TIP3    H224686   6.052   6.740  11.506 -1.8013 -1.1993 -2.3953
 1091TIP3   OH224687   0.083   4.255  16.876 -0.2474  0.1608  0.2949
 1091TIP3    H124688   0.050   4.195  16.809  1.9314  1.5265 -2.1983
 1091TIP3    H224689   0.155   4.207  16.918 -0.9706 -0.3298  0.9942
 1092TIP3   OH224690   1.597   6.738   0.297 -0.3506  0.6647  0.0410
 1092TIP3    H124691   1.620   6.661   0.349 -3.1293 -0.6173 -0.4084
 1092TIP3    H224692   1.597   6.706   0.207  1.8369  2.1658 -0.5487
 1093TIP3   OH224693   6.690   5.561  14.249  0.0483 -0.4475  0.8332
 1093TIP3    H124694   6.691   5.468  14.226  1.8468 -1.0766  3.0659
 1093TIP3    H224695   6.756   5.600  14.191 -0.6588 -0.5581 -0.0579
 1094TIP3   OH224696   3.932   0.600   0.576  0.5268 -0.3466 -0.1154
 1094TIP3    H124697   3.859   0.549   0.610  0.3347  0.9302  1.4918
 1094TIP3    H224698   3.948   0.564   0.489 -2.3244 -0.3346 -0.7220
 1095TIP3   OH224699   3.116   4.364  13.634  0.1930  0.6022  0.5933
 1095TIP3    H124700   3.103   4.423  13.559 -1.1844  3.0584  2.6195
 1095TIP3    H224701   3.057   4.291  13.617  0.1667  0.9262 -0.8695
 1096TIP3   OH224702   4.012   5.062  11.005 -0.0674  0.4751  0.7047
 1096TIP3    H124703   3.946   5.127  11.028 -1.3973  0.9606 -3.5249
 1096TIP3    H224704   4.095   5.110  11.008 -0.3916  0.9851  2.2112
 1097TIP3   OH224705   3.433   1.456  14.537  0.0283  0.5981  0.2079
 1097TIP3    H124706   3.349   1.411  14.527  0.1195  0.3044  0.7282
 1097TIP3    H224707   3.497   1.391  14.509  0.0687  0.9343 -0.5083
 1098TIP3   OH224708   1.246   5.665  12.873 -0.1851 -0.5974 -0.5022
 1098TIP3    H124709   1.188   5.737  12.895  2.1920  1.2603  0.1795
 1098TIP3    H224710   1.193   5.606  12.820 -2.3120  1.5365 -0.9113
 1099TIP3   OH224711   6.327   4.013   4.695 -0.2552 -0.1717  0.3288
 1099TIP3    H124712   6.370   3.993   4.778  0.4898 -0.5791 -0.1358
 1099TIP3    H224713   6.348   3.938   4.639 -1.8304 -0.5264  0.1667
 1100TIP3   OH224714   5.824   4.212   3.042 -0.1443 -0.1738  0.2066
 1100TIP3    H124715   5.754   4.169   3.092 -0.4422  2.3182  2.1371
 1100TIP3    H224716   5.891   4.144   3.031 -1.7741 -1.9227  0.4584
 1101TIP3   OH224717   2.370   4.454  11.463 -0.2514  0.2710 -0.3291
 1101TIP3    H124718   2.299   4.462  11.526 -0.6485  4.8902 -1.0347
 1101TIP3    H224719   2.328   4.423  11.383 -1.4432  2.2122 -0.5136
 1102TIP3   OH224720   6.147   2.890   3.838  0.6603 -0.1766 -0.3475
 1102TIP3    H124721   6.101   2.914   3.918  1.4587  2.6656 -0.6149
 1102TIP3    H224722   6.092   2.924   3.767  0.2288 -2.1773 -1.0365
 1103TIP3   OH224723   5.425   5.115  14.875  0.1055  0.2607 -0.0954
 1103TIP3    H124724   5.517   5.132  14.896  0.3883  0.4103 -1.3616
 1103TIP3    H224725   5.419   5.129  14.780 -1.0216 -0.6723 -0.1858
 1104TIP3   OH224726   1.750   0.686   1.758 -0.2728  0.0019  0.0691
 1104TIP3    H124727   1.713   0.670   1.845  0.0309 -0.3368  0.1381
 1104TIP3    H224728   1.835   0.642   1.760 -1.3385 -2.3097 -1.2736
 1105TIP3   OH224729   2.986   0.296   3.961 -0.7034 -0.0125  0.2875
 1105TIP3    H124730   3.029   0.259   3.885  0.4813  0.7116  0.5765
 1105TIP3    H224731   2.893   0.300   3.937 -0.4574 -0.5376 -0.7949
 1106TIP3   OH224732   1.912   6.744   3.013  0.2543  0.8273 -0.4880
 1106TIP3    H124733   1.938   6.707   3.097  1.1718  0.7925 -0.7762
 1106TIP3    H224734   1.845   6.684   2.980  0.5285  0.3490 -0.1874
 1107TIP3   OH224735   5.496   5.994   5.624 -0.5325  0.0134 -0.1688
 1107TIP3    H124736   5.567   5.938   5.591 -0.9408 -0.4283 -0.3122
 1107TIP3    H224737   5.446   5.937   5.682 -0.5067  0.4540  0.2887
 1108TIP3   OH224738   6.001   3.774  12.458  0.0243 -0.0508 -0.1076
 1108TIP3    H124739   6.020   3.690  12.417 -1.4262 -0.1007 -0.7487
 1108TIP3    H224740   5.945   3.819  12.395 -1.1965  0.3963  1.2309
 1109TIP3   OH224741   3.416   2.585   2.895 -0.1745 -0.0011 -0.3321
 1109TIP3    H124742   3.416   2.637   2.976  1.9848  0.7938 -0.7681
 1109TIP3    H224743   3.379   2.501   2.920 -0.7443  0.6559  1.1634
 1110TIP3   OH224744   2.769   1.556   4.539  0.0906  0.1533  0.3240
 1110TIP3    H124745   2.779   1.647   4.510 -0.9431  0.0877 -0.2635
 1110TIP3    H224746   2.746   1.563   4.632 -0.4884  0.5091  0.1549
 1111TIP3   OH224747   0.763   1.407  12.415 -0.3661 -0.2411  0.6115
 1111TIP3    H124748   0.845   1.382  12.456  0.9905 -0.4518 -1.9820
 1111TIP3    H224749   0.779   1.496  12.382 -0.6961 -0.7098 -0.9203
 1112TIP3   OH224750   0.013   5.072   4.619 -0.3343  0.3165  0.1451
 1112TIP3    H124751   0.067   5.144   4.586  1.1086 -0.6555  0.2981
 1112TIP3    H224752  -0.039   5.112   4.689 -0.1582  1.3822 -0.3076
 1113TIP3   OH224753   5.747   3.534   1.836 -0.4567 -0.0048 -0.0636
 1113TIP3    H124754   5.792   3.612   1.803 -0.6758  0.9609  1.7537
 1113TIP3    H224755   5.788   3.517   1.921 -0.5942 -1.7412 -0.3039
 1114TIP3   OH224756   4.915   5.064   3.015 -0.4491 -0.0179  0.6465
 1114TIP3    H124757   4.869   5.013   3.082  0.5027 -0.1150  1.2388
 1114TIP3    H224758   5.002   5.078   3.051 -0.7755  2.3116  0.6398
 1115TIP3   OH224759   0.610   0.799  11.952 -0.0077 -0.1576  1.2015
 1115TIP3    H124760   0.607   0.718  11.902 -0.4276  1.6634 -1.9681
 1115TIP3    H224761   0.701   0.829  11.944 -0.0199  0.0484  1.7619
 1116TIP3   OH224762   5.333   1.529   1.082  0.5977 -0.3295 -0.0165
 1116TIP3    H124763   5.322   1.459   1.018  0.5156 -0.3398  0.0079
 1116TIP3    H224764   5.288   1.496   1.160 -0.9117  0.4449 -0.5153
 1117TIP3   OH224765   2.909   4.944   3.730 -0.2693 -0.1464 -0.4562
 1117TIP3    H124766   2.896   5.038   3.717 -0.0319 -0.1384 -0.6407
 1117TIP3    H224767   2.853   4.922   3.805 -1.6890 -0.1907 -1.4805
 1118TIP3   OH224768   2.066   0.807  14.046  0.0355 -0.8767  0.3071
 1118TIP3    H124769   2.130   0.876  14.061 -1.0105  0.4955 -1.1808
 1118TIP3    H224770   2.119   0.729  14.025  1.2478  0.1933 -0.8261
 1119TIP3   OH224771   0.609   3.143  11.191 -0.2207 -0.2000  0.1409
 1119TIP3    H124772   0.661   3.222  11.203 -0.8094  0.3434 -0.7446
 1119TIP3    H224773   0.518   3.174  11.190 -0.3796 -0.2849 -3.9500
 1120TIP3   OH224774   1.344   1.865   1.012  0.0910  0.1219 -0.2621
 1120TIP3    H124775   1.324   1.948   0.969  1.4320  0.6472  0.0831
 1120TIP3    H224776   1.378   1.889   1.098  0.2145 -0.7967 -0.0376
 1121TIP3   OH224777   6.166   4.956  14.036 -0.5774  0.1513  0.3334
 1121TIP3    H124778   6.090   4.921  13.990  0.2957 -0.7419 -0.4663
 1121TIP3    H224779   6.211   4.879  14.070 -0.9364  0.7528  2.3152
 1122TIP3   OH224780   1.946   5.352   5.391 -0.7222 -0.5515  0.2582
 1122TIP3    H124781   1.917   5.416   5.456 -2.1763 -0.8440 -0.0712
 1122TIP3    H224782   2.006   5.294   5.440 -0.3985  0.2828  0.8712
 1123TIP3   OH224783   0.489   3.152   3.707  0.3942 -0.1853 -0.0887
 1123TIP3    H124784   0.541   3.151   3.788  2.3973  0.3742 -1.3106
 1123TIP3    H224785   0.492   3.243   3.678  1.0220 -0.6636 -1.5927
 1124TIP3   OH224786   6.076   5.782  14.251 -0.3079 -0.4306  0.0610
 1124TIP3    H124787   6.078   5.766  14.157  0.3781  0.8800 -0.1679
 1124TIP3    H224788   5.988   5.816  14.268 -0.3129 -0.3309 -0.1661
 1125TIP3   OH224789   0.535   6.007   1.396 -0.1106 -0.8612 -0.3293
 1125TIP3    H124790   0.513   6.044   1.310 -1.0145 -2.0597 -0.6480
 1125TIP3    H224791   0.630   6.001   1.396 -0.0537 -0.1290 -0.9268
 1126TIP3   OH224792   0.180   2.472  15.253  0.4949 -0.7504 -0.1098
 1126TIP3    H124793   0.157   2.462  15.345  1.7640 -0.3591  0.2780
 1126TIP3    H224794   0.116   2.535  15.220  1.0592  0.4308  0.9535
 1127TIP3   OH224795   3.614   3.132   2.997 -0.2469 -0.2791  0.6045
 1127TIP3    H124796   3.531   3.156   3.036 -0.6132  0.0826 -0.3792
 1127TIP3    H224797   3.678   3.192   3.035 -0.8356  1.0078 -0.3770
 1128TIP3   OH224798   3.181   4.067   5.755  0.3023 -0.2468 -0.3791
 1128TIP3    H124799   3.098   4.105   5.783  0.9997  0.6400  0.5583
 1128TIP3    H224800   3.164   4.034   5.666 -1.1165 -0.3607 -0.0913
 1129TIP3   OH224801   1.414   6.408  12.899 -0.2424 -0.0898 -0.2503
 1129TIP3    H124802   1.374   6.343  12.957  0.4853  0.7954  1.2851
 1129TIP3    H224803   1.444   6.357  12.823 -0.4023 -1.4167  0.5436
 1130TIP3   OH224804   5.787   0.596   3.820 -0.7335 -0.3137  0.1930
 1130TIP3    H124805   5.772   0.637   3.735  0.6281  0.3394  0.2346
 1130TIP3    H224806   5.711   0.620   3.873  0.6607  3.5999  0.7250
 1131TIP3   OH224807   2.830   5.090  16.497 -0.2293 -0.0851  0.0401
 1131TIP3    H124808   2.814   5.072  16.589 -0.0334  0.6583  0.2245
 1131TIP3    H224809   2.921   5.062  16.483 -0.1534  0.1036  0.1534
 1132TIP3   OH224810   4.218   2.880   3.375 -0.1062  0.0406  0.5016
 1132TIP3    H124811   4.176   2.810   3.325  0.0800 -1.0524  1.7997
 1132TIP3    H224812   4.286   2.914   3.316 -0.0067 -1.0777 -0.0618
 1133TIP3   OH224813   1.980   4.095  11.300  0.6190  0.7275  0.0410
 1133TIP3    H124814   1.945   4.014  11.262  0.2502 -0.4469  2.6942
 1133TIP3    H224815   1.918   4.162  11.272  1.2750  0.3252 -2.7573
 1134TIP3   OH224816   4.477   4.664   6.007  0.6237  0.2597  0.1399
 1134TIP3    H124817   4.392   4.620   6.010 -0.6583  2.5783  0.2145
 1134TIP3    H224818   4.527   4.624   6.077 -0.1958 -1.4954 -0.1991
 1135TIP3   OH224819   2.874   2.903  11.490 -0.0752  0.2704  0.1076
 1135TIP3    H124820   2.818   2.973  11.457 -1.5960 -0.8665  0.1924
 1135TIP3    H224821   2.829   2.822  11.465  0.7254 -0.6671  1.5626
 1136TIP3   OH224822   0.956   4.051   2.019 -0.0843 -0.1798 -0.8280
 1136TIP3    H124823   0.927   4.102   1.943  0.0941 -0.3126 -0.9840
 1136TIP3    H224824   0.881   3.996   2.041  0.3208 -1.1350 -1.7474
 1137TIP3   OH224825   4.084   6.241  16.258  0.5823 -0.4477 -0.2137
 1137TIP3    H124826   4.138   6.178  16.210  0.2363 -0.3409 -0.7541
 1137TIP3    H224827   4.100   6.221  16.351  0.3816 -1.4225 -0.3691
 1138TIP3   OH224828   6.393   5.445   1.971  0.1233  0.2399 -0.2847
 1138TIP3    H124829   6.321   5.383   1.970 -0.7775  1.2599 -1.0147
 1138TIP3    H224830   6.455   5.409   2.035 -0.5282 -1.1952 -0.4254
 1139TIP3   OH224831   2.255   6.216   1.381  0.0188  0.6407  0.4028
 1139TIP3    H124832   2.217   6.148   1.437  0.7464  0.7740  1.0716
 1139TIP3    H224833   2.262   6.293   1.437 -2.7303  1.9825 -0.8808
 1140TIP3   OH224834   3.868   4.776  15.154  0.1293  0.8625  0.1837
 1140TIP3    H124835   3.785   4.762  15.199 -0.1192  1.8476  0.0409
 1140TIP3    H224836   3.843   4.783  15.061  0.4381  0.6456  0.0823
 1141TIP3   OH224837   2.898   0.463  11.600 -0.2106 -0.5711  0.8314
 1141TIP3    H124838   2.826   0.523  11.578  0.4630 -0.5399 -1.6732
 1141TIP3    H224839   2.866   0.377  11.572  0.0319 -0.8480  1.4055
 1142TIP3   OH224840   2.150   3.052   0.869  0.3088  0.3270  0.3113
 1142TIP3    H124841   2.085   3.090   0.809 -0.4452  0.0061  0.9016
 1142TIP3    H224842   2.202   3.126   0.898  0.5953  0.5041 -0.6340
 1143TIP3   OH224843   1.441   2.779   5.325 -0.2798  0.1777  0.1295
 1143TIP3    H124844   1.415   2.734   5.405  1.0271  0.0462  0.5076
 1143TIP3    H224845   1.454   2.870   5.352 -0.1477  0.1985 -0.0023
 1144TIP3   OH224846   2.772   3.581  12.251  0.5846  0.0925 -0.1705
 1144TIP3    H124847   2.797   3.584  12.343 -1.2511  0.5551  0.3592
 1144TIP3    H224848   2.727   3.664  12.236 -1.4764 -1.0597 -0.7392
 1145TIP3   OH224849   1.544   5.699  14.321 -0.2243  0.3543  0.5615
 1145TIP3    H124850   1.449   5.695  14.318 -0.3282  2.1866  0.0105
 1145TIP3    H224851   1.563   5.787  14.355  1.2470  0.6631 -0.9209
 1146TIP3   OH224852   1.503   6.248   0.671 -0.5118 -0.2200 -0.6278
 1146TIP3    H124853   1.421   6.205   0.696 -0.7708  0.2848 -0.6076
 1146TIP3    H224854   1.538   6.283   0.753  0.6038 -1.8932 -0.3263
 1147TIP3   OH224855   5.386   1.559  11.334 -0.3998  0.3914 -0.3432
 1147TIP3    H124856   5.436   1.553  11.416 -1.1682  0.2145  0.1254
 1147TIP3    H224857   5.452   1.573  11.267  0.2078  1.0653  0.3705
 1148TIP3   OH224858   2.525   2.805  14.059 -0.2968  0.3914 -0.7393
 1148TIP3    H124859   2.561   2.741  13.998 -0.7459 -0.3026 -0.2896
 1148TIP3    H224860   2.539   2.890  14.016 -0.8256 -0.0927 -1.9207
 1149TIP3   OH224861   4.566   3.631  13.673  0.1579 -0.2791 -0.1887
 1149TIP3    H124862   4.523   3.642  13.588  0.4557  0.3257 -0.2703
 1149TIP3    H224863   4.596   3.719  13.696 -0.9431 -0.2139  1.0979
 1150TIP3   OH224864   4.123   4.611   0.657  0.4315  0.1692  1.0970
 1150TIP3    H124865   4.149   4.520   0.649 -1.1104 -0.2002 -0.1297
 1150TIP3    H224866   4.029   4.611   0.642  0.2752  1.8813  1.8067
 1151TIP3   OH224867   3.646   0.013  12.422 -0.5746 -0.1769  0.2263
 1151TIP3    H124868   3.657   0.104  12.393 -2.5519  0.4584  1.3419
 1151TIP3    H224869   3.695   0.008  12.504  1.0892 -0.6835 -0.7458
 1152TIP3   OH224870   0.811   4.904  13.644  0.4922  0.3046  0.5248
 1152TIP3    H124871   0.773   4.829  13.690  0.9768  1.0249  2.1880
 1152TIP3    H224872   0.736   4.950  13.607  0.2168 -1.1966 -0.8895
 1153TIP3   OH224873   0.162   6.270  12.098 -0.3561  0.0614  0.1381
 1153TIP3    H124874   0.074   6.246  12.127 -0.9664 -0.3938 -1.8865
 1153TIP3    H224875   0.172   6.225  12.014  2.1641 -0.5621  0.7155
 1154TIP3   OH224876   3.092   4.273  15.540 -0.0638  0.2430  0.1992
 1154TIP3    H124877   3.115   4.255  15.631 -0.0894  1.1670  0.3973
 1154TIP3    H224878   3.042   4.354  15.544 -2.3387 -1.0410 -0.3393
 1155TIP3   OH224879   4.359   5.002   5.750 -0.3453  0.1718  0.1392
 1155TIP3    H124880   4.413   4.984   5.827  0.8206 -0.5833 -0.8111
 1155TIP3    H224881   4.282   4.946   5.762 -1.0944  1.4525  1.6347
 1156TIP3   OH224882   4.167   1.663   1.471  0.3899 -0.1318 -0.0164
 1156TIP3    H124883   4.163   1.730   1.539 -0.6807 -0.3659  0.1672
 1156TIP3    H224884   4.107   1.595   1.501 -0.9216  0.2298 -1.6903
 1157TIP3   OH224885   1.680   4.083   5.329  0.3102  0.3938 -0.4668
 1157TIP3    H124886   1.766   4.116   5.353  0.4088 -0.7843  0.9238
 1157TIP3    H224887   1.673   4.100   5.235  1.4104  1.8914 -0.3070
 1158TIP3   OH224888   5.141   6.579  11.283 -0.2644  0.0638 -0.3733
 1158TIP3    H124889   5.195   6.504  11.261  0.6862  0.5015  0.3778
 1158TIP3    H224890   5.070   6.579  11.217  0.1492 -1.0268 -0.8290
 1159TIP3   OH224891   4.419   1.890  15.001  0.4927 -0.7658 -0.3141
 1159TIP3    H124892   4.496   1.937  15.033 -0.4133  0.0958  0.7141
 1159TIP3    H224893   4.362   1.884  15.078 -0.1834 -1.9772 -0.8850
 1160TIP3   OH224894   1.359   6.592  13.828 -0.2770 -0.1452  0.2014
 1160TIP3    H124895   1.440   6.631  13.795 -0.1622  0.0208  0.6658
 1160TIP3    H224896   1.336   6.646  13.905  0.4660 -1.6459  1.5172
 1161TIP3   OH224897   1.283   1.524  12.588  0.1133  0.0411  0.2001
 1161TIP3    H124898   1.318   1.601  12.632 -0.8125 -0.4010  1.8046
 1161TIP3    H224899   1.225   1.559  12.520  1.4536  0.7355 -0.6328
 1162TIP3   OH224900   4.652   1.567   1.069  0.1211 -0.2707 -1.0102
 1162TIP3    H124901   4.657   1.473   1.084 -1.9351 -0.1388  0.9663
 1162TIP3    H224902   4.642   1.605   1.156  1.2080  1.8438 -1.7327
 1163TIP3   OH224903   3.731   5.270  12.097  0.6448  0.5003  0.0709
 1163TIP3    H124904   3.817   5.240  12.069 -0.4026  0.5220 -3.7793
 1163TIP3    H224905   3.684   5.189  12.121  1.0395  0.2362 -0.0349
 1164TIP3   OH224906   2.886   5.660  15.315 -0.5082  0.2925  1.1387
 1164TIP3    H124907   2.944   5.635  15.243 -1.5563  1.8339 -0.2940
 1164TIP3    H224908   2.801   5.624  15.290 -0.6212 -0.2505  2.2556
 1165TIP3   OH224909   3.689   2.483  15.075 -0.2461 -0.0215 -0.2333
 1165TIP3    H124910   3.747   2.557  15.092  0.5033 -0.9962  1.8379
 1165TIP3    H224911   3.658   2.496  14.985  1.6037  1.5893 -0.6963
 1166TIP3   OH224912   3.720   2.263   3.322  0.2801  0.2262 -0.7097
 1166TIP3    H124913   3.633   2.297   3.306  0.0789 -0.6195 -1.5064
 1166TIP3    H224914   3.760   2.255   3.235  1.2492  0.8305 -0.3441
 1167TIP3   OH224915   4.742   2.905   0.694 -0.5131 -0.6699  0.3395
 1167TIP3    H124916   4.750   2.809   0.693  3.3560 -0.4871 -1.0140
 1167TIP3    H224917   4.728   2.928   0.602  0.6296  0.1523  0.3623
 1168TIP3   OH224918   3.024   5.083   1.021  0.3746 -0.1740  0.0657
 1168TIP3    H124919   3.088   5.120   0.961 -1.6041  0.3463 -1.8503
 1168TIP3    H224920   2.941   5.088   0.974 -0.8074 -2.5076  1.6989
 1169TIP3   OH224921   4.753   1.640   5.746 -0.1959 -0.3598 -0.0885
 1169TIP3    H124922   4.794   1.683   5.671 -1.7320  1.4936  0.0376
 1169TIP3    H224923   4.675   1.694   5.764  0.7686  0.0836  3.6386
 1170TIP3   OH224924   6.334   0.735   5.827  0.1146  0.8880 -0.6112
 1170TIP3    H124925   6.276   0.785   5.885 -1.2715 -1.8579  0.5339
 1170TIP3    H224926   6.283   0.722   5.747 -0.3281 -0.2635 -0.1660
 1171TIP3   OH224927   4.994   6.816   2.811  0.2308 -0.0167  0.0167
 1171TIP3    H124928   4.967   6.889   2.756  0.0108  1.0570  1.4870
 1171TIP3    H224929   4.996   6.740   2.752 -0.2552  1.0227 -1.3773
 1172TIP3   OH224930   0.244   6.497   5.681 -0.4591  0.0021  0.0559
 1172TIP3    H124931   0.230   6.568   5.620 -0.6632  0.7322  0.9337
 1172TIP3    H224932   0.178   6.431   5.658  0.5545 -0.4806 -1.5790
 1173TIP3   OH224933   1.910   2.645  17.061  0.7895  0.8485 -0.4614
 1173TIP3    H124934   1.968   2.572  17.041 -1.4332 -1.1226 -0.1222
 1173TIP3    H224935   1.930   2.711  16.994  1.2110 -1.0331 -2.2904
 1174TIP3   OH224936   6.445   2.714  12.071  0.3608  0.0174  0.5768
 1174TIP3    H124937   6.437   2.625  12.103  1.1520 -0.4242 -0.3736
 1174TIP3    H224938   6.369   2.760  12.106  0.4454 -0.7757  1.8620
 1175TIP3   OH224939   5.913   0.787  12.891  0.1086  0.1891  0.2177
 1175TIP3    H124940   5.820   0.777  12.910 -0.1113 -0.3894 -1.1019
 1175TIP3    H224941   5.940   0.703  12.854  1.3714  0.0535  1.3734
 1176TIP3   OH224942   4.753   2.423  16.365 -0.4202  0.1418  0.3893
 1176TIP3    H124943   4.789   2.502  16.404  0.5602 -0.4692  0.7583
 1176TIP3    H224944   4.694   2.388  16.431 -0.0161 -0.0114  0.6757
 1177TIP3   OH224945   5.067   3.078   3.466  0.3677 -0.2649  0.2761
 1177TIP3    H124946   5.071   3.010   3.398  0.9756  1.8003 -1.8765
 1177TIP3    H224947   5.030   3.033   3.542  1.5247 -3.2021 -0.7474
 1178TIP3   OH224948   5.963   1.720   2.449 -0.3533 -0.1430  0.1360
 1178TIP3    H124949   6.033   1.683   2.396 -0.4442  1.0242 -0.8497
 1178TIP3    H224950   5.944   1.804   2.408 -1.3884  0.1775  1.2121
 1179TIP3   OH224951   6.385   0.011  15.564 -0.6285 -0.2187 -0.4215
 1179TIP3    H124952   6.456  -0.042  15.527  0.9204  1.6049 -0.1854
 1179TIP3    H224953   6.417   0.101  15.561 -2.0539  0.4414  1.6822
 1180TIP3   OH224954   3.030   6.016   5.710 -0.1011 -0.8062 -0.1106
 1180TIP3    H124955   3.034   6.060   5.795 -0.0085  1.7085 -1.3292
 1180TIP3    H224956   2.942   5.978   5.708  0.0263 -1.2458  1.2398
 1181TIP3   OH224957   5.518   4.010  12.805  0.0529  0.4139 -0.4650
 1181TIP3    H124958   5.576   3.934  12.792  1.3450  1.0038  1.5022
 1181TIP3    H224959   5.431   3.977  12.781  0.9374 -0.9453 -2.0491
 1182TIP3   OH224960   6.370   4.732  11.221  0.0123  0.4557  0.0552
 1182TIP3    H124961   6.305   4.674  11.183  0.5356  0.5200 -0.9604
 1182TIP3    H224962   6.451   4.680  11.221  0.3919  1.0464 -0.4852
 1183TIP3   OH224963   2.482   2.421  12.272 -0.0474 -0.1426  0.2352
 1183TIP3    H124964   2.516   2.458  12.191  1.0596 -0.3109  0.6057
 1183TIP3    H224965   2.548   2.357  12.298 -0.3862 -0.0794  1.2797
 1184TIP3   OH224966   3.368   2.197   1.174 -0.7057  0.6407  0.0559
 1184TIP3    H124967   3.422   2.149   1.236 -0.9191  0.8335  0.3962
 1184TIP3    H224968   3.323   2.263   1.227  0.5071  2.0442 -0.5847
 1185TIP3   OH224969   5.410   0.291  12.247  0.5734 -0.3178  0.1465
 1185TIP3    H124970   5.478   0.224  12.252  1.0040  0.1819  1.2483
 1185TIP3    H224971   5.332   0.243  12.219  0.7528 -1.3910  1.3909
 1186TIP3   OH224972   0.809   2.543  13.510  0.0790  0.0089  0.9279
 1186TIP3    H124973   0.883   2.601  13.527 -0.2530  1.1552 -1.1345
 1186TIP3    H224974   0.732   2.597  13.527 -0.3658 -1.2216  3.2106
 1187TIP3   OH224975   3.556   2.690   4.391  0.4144 -0.1447 -0.2578
 1187TIP3    H124976   3.510   2.769   4.361 -0.9281 -0.4772  0.7950
 1187TIP3    H224977   3.537   2.624   4.324 -0.1190 -0.0973 -0.1596
 1188TIP3   OH224978   5.848   3.789   3.258 -0.3453  0.7091 -0.2580
 1188TIP3    H124979   5.931   3.748   3.282 -0.4942 -0.0930 -1.0441
 1188TIP3    H224980   5.848   3.873   3.304 -0.8604 -0.9026  2.9847
 1189TIP3   OH224981   3.599   3.455   3.616  0.2097 -0.2320  0.0466
 1189TIP3    H124982   3.577   3.387   3.680  1.7361 -1.4622 -0.6687
 1189TIP3    H224983   3.549   3.432   3.538 -0.7253  0.5742  0.3966
 1190TIP3   OH224984   6.116   6.304   1.005 -0.1159 -0.5178  0.1086
 1190TIP3    H124985   6.031   6.280   1.043 -0.7977  2.8509  1.0823
 1190TIP3    H224986   6.095   6.370   0.939  1.6912 -0.6212 -0.6362
 1191TIP3   OH224987   5.706   5.411   1.580 -0.0223 -0.1094 -0.1927
 1191TIP3    H124988   5.749   5.418   1.665 -1.2231 -1.5025  0.5634
 1191TIP3    H224989   5.640   5.481   1.580  1.1567  1.0514 -0.7475
 1192TIP3   OH224990   6.172   5.394   5.016 -0.0630  0.1958  0.1411
 1192TIP3    H124991   6.176   5.380   4.921  0.0678  1.0468  0.0144
 1192TIP3    H224992   6.251   5.352   5.050  0.3547  0.6610 -0.2355
 1193TIP3   OH224993   0.875   1.844  14.616  0.0737  0.7851  0.9872
 1193TIP3    H124994   0.967   1.835  14.641  0.1870 -0.0214  0.3246
 1193TIP3    H224995   0.833   1.883  14.693  0.5458 -0.8834  2.1386
 1194TIP3   OH224996   2.993   6.082   0.077 -0.1586 -0.3944 -0.6035
 1194TIP3    H124997   2.969   5.991   0.094  0.6822 -0.4352  0.4612
 1194TIP3    H224998   3.011   6.119   0.163  1.8441  0.0995 -1.1816
 1195TIP3   OH224999   5.919   3.949  12.235 -0.8541  0.0154 -0.5330
 1195TIP3    H125000   5.830   3.964  12.267 -0.7849  0.4920 -0.5498
 1195TIP3    H225001   5.950   4.036  12.211 -0.3778 -0.1480 -0.5150
 1196TIP3   OH225002   5.610   2.135   2.420 -0.4392  0.2466  0.3562
 1196TIP3    H125003   5.542   2.168   2.479 -1.7382  0.5086 -1.2265
 1196TIP3    H225004   5.562   2.101   2.345  1.2257  2.2625 -1.7698
 1197TIP3   OH225005   3.574   2.212   1.643  0.4622 -0.3115 -0.6926
 1197TIP3    H125006   3.612   2.180   1.725  1.1301 -0.7388 -1.1628
 1197TIP3    H225007   3.536   2.134   1.602  0.7246 -0.2224 -1.1111
 1198TIP3   OH225008   2.059   5.817   2.756 -0.4275 -0.4226  0.1190
 1198TIP3    H125009   2.060   5.752   2.686  1.4055 -3.0626  2.3989
 1198TIP3    H225010   2.150   5.827   2.782 -0.9265  1.3186  1.4391
 1199TIP3   OH225011   2.562   3.098   5.663  0.2439  0.2278 -0.3561
 1199TIP3    H125012   2.556   3.014   5.618 -1.5874  1.5027 -2.7144
 1199TIP3    H225013   2.619   3.151   5.608  2.2015  0.3328  1.6222
 1200TIP3   OH225014   1.542   4.370   0.437  0.1584 -0.1161 -0.2857
 1200TIP3    H125015   1.615   4.309   0.429 -0.6590 -1.1438 -0.1692
 1200TIP3    H225016   1.490   4.356   0.357 -0.9141 -0.7916  0.4974
 1201TIP3   OH225017   0.025   5.054   2.617 -0.1409  0.1537  0.0051
 1201TIP3    H125018  -0.020   5.097   2.545 -0.5053 -0.3570 -0.0717
 1201TIP3    H225019  -0.036   5.061   2.691 -1.1641 -2.0890 -0.5345
 1202TIP3   OH225020   1.189   5.308   1.525  0.1606 -0.0811  0.1090
 1202TIP3    H125021   1.101   5.273   1.515  0.5753 -1.1026 -0.0653
 1202TIP3    H225022   1.244   5.231   1.539  1.0288  0.5426  0.1975
 1203TIP3   OH225023   1.731   0.613   5.710  0.1181 -0.6645 -0.6176
 1203TIP3    H125024   1.778   0.632   5.791 -0.1039  1.2600 -0.8744
 1203TIP3    H225025   1.665   0.548   5.734 -1.6731  1.7386  1.4295
 1204TIP3   OH225026   4.624   3.646   4.578  0.1680  0.4595 -0.2297
 1204TIP3    H125027   4.678   3.680   4.650 -0.3707 -0.3199  0.5688
 1204TIP3    H225028   4.536   3.638   4.616 -0.0862 -0.1520 -0.9220
 1205TIP3   OH225029   6.309   1.337   1.143 -0.0975  0.3518 -0.1477
 1205TIP3    H125030   6.385   1.333   1.085  2.2312 -2.2626  2.7394
 1205TIP3    H225031   6.314   1.424   1.183  0.5472  0.7164 -0.9775
 1206TIP3   OH225032   6.661   3.845   2.042  0.9563  0.0297  0.2017
 1206TIP3    H125033   6.653   3.813   1.952 -0.6826  0.1439  0.2752
 1206TIP3    H225034   6.742   3.806   2.074 -0.5486 -3.6455  0.0796
 1207TIP3   OH225035   4.065   2.070   0.828  0.1938 -0.3939  0.2127
 1207TIP3    H125036   4.011   2.118   0.765  0.3298 -0.5291 -0.0091
 1207TIP3    H225037   4.153   2.074   0.791  0.0944 -1.3948 -0.1557
 1208TIP3   OH225038   0.207   4.763  16.308  0.8009 -0.0840 -0.0678
 1208TIP3    H125039   0.200   4.778  16.402  0.0932 -0.2236 -0.0915
 1208TIP3    H225040   0.154   4.685  16.292 -0.0708  0.6314 -0.7560
 1209TIP3   OH225041   1.323   2.648   5.527  0.4255 -0.4965  0.1196
 1209TIP3    H125042   1.257   2.580   5.515 -1.2130  1.2986 -1.7950
 1209TIP3    H225043   1.304   2.686   5.613 -0.9189 -0.1794 -0.2964
 1210TIP3   OH225044   3.596   2.846  10.330 -0.0030 -0.3029  0.3600
 1210TIP3    H125045   3.614   2.924  10.383  0.1957 -0.8893  1.1803
 1210TIP3    H225046   3.531   2.797  10.380  2.1702 -2.2419  1.5509
 1211TIP3   OH225047   6.507   5.081  12.356 -0.2985 -0.1140  0.1382
 1211TIP3    H125048   6.540   5.150  12.299  1.6282 -0.1354  1.1435
 1211TIP3    H225049   6.578   5.016  12.359  0.0737  0.2672  3.1557
 1212TIP3   OH225050   5.281   4.119  14.176  0.4277  0.0969 -0.1330
 1212TIP3    H125051   5.216   4.049  14.165 -0.2835  0.1870  2.6735
 1212TIP3    H225052   5.283   4.135  14.270  2.5586  2.0293 -0.4156
 1213TIP3   OH225053   2.684   2.667  14.879 -0.1606  0.2219  1.0047
 1213TIP3    H125054   2.712   2.670  14.970  0.4664  3.8850  0.8342
 1213TIP3    H225055   2.748   2.721  14.832 -1.1773 -0.5278 -1.4253
 1214TIP3   OH225056   3.851   5.442   3.545  0.0566  0.6372 -0.5041
 1214TIP3    H125057   3.774   5.483   3.504  0.0075  0.4749 -0.5781
 1214TIP3    H225058   3.904   5.515   3.575 -0.3541  0.7466 -0.0276
 1215TIP3   OH225059   1.398   6.558   2.000  0.0890  1.0164 -0.2910
 1215TIP3    H125060   1.325   6.608   2.036 -0.5831 -0.3586  0.2903
 1215TIP3    H225061   1.362   6.516   1.922  0.4923  0.9594 -0.4509
 1216TIP3   OH225062   2.113   0.847  15.405  0.0549  0.0985  0.2164
 1216TIP3    H125063   2.124   0.753  15.392  0.5056  0.2806 -0.8516
 1216TIP3    H225064   2.018   0.861  15.402 -0.0809 -0.4431  1.4512
 1217TIP3   OH225065   5.188   5.792   2.306 -0.0043  0.1301 -0.1878
 1217TIP3    H125066   5.212   5.884   2.294 -0.8485  0.6108  1.5578
 1217TIP3    H225067   5.260   5.755   2.358  0.3035 -0.2012 -0.8352
 1218TIP3   OH225068   5.668   2.936  15.143  0.1159  0.0967  0.9777
 1218TIP3    H125069   5.630   2.997  15.080  1.4547 -0.1640 -0.1377
 1218TIP3    H225070   5.757   2.920  15.110  0.0191 -1.9525  1.5827
 1219TIP3   OH225071   3.906   2.952   0.131  1.1096 -0.3435 -0.5044
 1219TIP3    H125072   3.849   2.915   0.199 -0.0640  0.8025 -0.8342
 1219TIP3    H225073   3.870   2.918   0.049 -0.4551  2.0099 -0.8768
 1220TIP3   OH225074   2.155   2.074  11.307  0.0730  0.5172 -0.0248
 1220TIP3    H125075   2.111   1.989  11.312  1.9074 -0.4750 -0.1421
 1220TIP3    H225076   2.091   2.131  11.264 -0.4318 -1.3352 -1.8804
 1221TIP3   OH225077   1.172   1.798  13.538  0.1815 -0.0270 -0.0594
 1221TIP3    H125078   1.137   1.822  13.452  1.1646  0.8397 -0.2320
 1221TIP3    H225079   1.201   1.881  13.576 -0.6519 -0.3382  1.3082
 1222TIP3   OH225080   1.778   4.627  15.266 -0.1525  0.3445 -0.2498
 1222TIP3    H125081   1.822   4.625  15.351  0.0937  1.0892 -0.3454
 1222TIP3    H225082   1.740   4.540  15.256  1.1578 -0.2681 -0.0881
 1223TIP3   OH225083   5.502   0.879  14.595  0.6256  0.2969 -0.1540
 1223TIP3    H125084   5.557   0.802  14.608  0.7204  0.4126  0.1229
 1223TIP3    H225085   5.423   0.860  14.645  0.4854  0.2097 -0.4056
 1224TIP3   OH225086   1.128   6.271   3.998 -0.3570  0.3261  0.4897
 1224TIP3    H125087   1.148   6.304   4.086  1.2792 -0.2795  0.3877
 1224TIP3    H225088   1.195   6.309   3.942 -1.1746  0.4180 -0.4498
 1225TIP3   OH225089   0.171   4.237  15.478  0.1225 -0.2390  0.4144
 1225TIP3    H125090   0.242   4.227  15.542 -0.5686 -1.4357  1.0228
 1225TIP3    H225091   0.098   4.187  15.514 -0.4669 -0.5077 -1.0621
 1226TIP3   OH225092   4.999   4.356   2.626  0.6140  0.6753  0.0821
 1226TIP3    H125093   4.906   4.332   2.627  0.9812 -0.8263  0.3093
 1226TIP3    H225094   5.023   4.354   2.534  1.1125 -1.9106  0.2093
 1227TIP3   OH225095   1.998   1.255  11.456  0.1069 -0.1275  0.3236
 1227TIP3    H125096   1.951   1.294  11.383 -0.2807  0.0518  0.6692
 1227TIP3    H225097   2.084   1.297  11.454  0.1168 -0.1597 -0.0580
 1228TIP3   OH225098   0.106   1.731  14.704 -0.3832  0.0251 -0.0964
 1228TIP3    H125099   0.168   1.682  14.650  1.0797  0.5185  1.0767
 1228TIP3    H225100   0.022   1.686  14.691  0.6110 -1.9036 -0.1693
 1229TIP3   OH225101   5.581   5.481  16.306  0.1905  0.3864  0.0418
 1229TIP3    H125102   5.664   5.434  16.297  0.1606  0.6776 -2.3655
 1229TIP3    H225103   5.518   5.414  16.330  0.4448 -0.5802 -1.8160
 1230TIP3   OH225104   4.180   1.877   2.713  0.5983 -0.3853 -0.1964
 1230TIP3    H125105   4.158   1.832   2.631  0.7099  0.0294 -0.4610
 1230TIP3    H225106   4.158   1.814   2.782  0.8476 -0.8825 -0.5603
 1231TIP3   OH225107   2.042   0.496   5.821 -0.1246  0.3554 -0.2642
 1231TIP3    H125108   2.025   0.527   5.732 -0.0831  0.0841 -0.3689
 1231TIP3    H225109   2.133   0.466   5.819  0.2514  1.4235  0.1844
 1232TIP3   OH225110   0.654   6.747   2.074 -0.0424  0.7799  0.1483
 1232TIP3    H125111   0.574   6.708   2.110  0.6143  0.3756  1.2043
 1232TIP3    H225112   0.670   6.698   1.993  0.0783 -0.3367  0.8185
 1233TIP3   OH225113   6.654   4.866   3.914 -0.6426 -0.0147 -0.1396
 1233TIP3    H125114   6.704   4.873   3.996  2.7907  2.2675 -2.1889
 1233TIP3    H225115   6.695   4.792   3.868 -0.6988  0.4148 -0.8890
 1234TIP3   OH225116   2.625   1.877   4.848 -0.5699 -0.0219  0.4153
 1234TIP3    H125117   2.581   1.804   4.802 -0.7084 -0.2174  0.8522
 1234TIP3    H225118   2.689   1.909   4.785  1.6052 -2.4418  1.2224
 1235TIP3   OH225119   2.677   0.114  13.388  0.4089  0.4688  0.0145
 1235TIP3    H125120   2.727   0.085  13.311 -0.8576  0.0704 -0.7011
 1235TIP3    H225121   2.740   0.162  13.442  1.9181 -1.2405 -0.1279
 1236TIP3   OH225122   3.630   6.239  15.577  0.2595 -0.4691  0.1579
 1236TIP3    H125123   3.665   6.150  15.577  0.3678 -0.4278 -0.0219
 1236TIP3    H225124   3.563   6.238  15.509 -0.2059 -0.5911  0.6135
 1237TIP3   OH225125   2.203   2.132   1.077 -0.2175 -0.3185 -0.2434
 1237TIP3    H125126   2.281   2.165   1.033  0.4039 -1.1494  0.2027
 1237TIP3    H225127   2.140   2.204   1.072  1.2559  1.1552  1.1479
 1238TIP3   OH225128   4.992   2.916  13.939  0.2308  0.2553  0.3945
 1238TIP3    H125129   5.023   2.827  13.955 -0.1862 -0.1279 -0.7939
 1238TIP3    H225130   4.913   2.904  13.886  0.3944  1.3460 -0.1173
 1239TIP3   OH225131   4.463   5.841   2.402  0.0221 -0.6392  0.1984
 1239TIP3    H125132   4.515   5.866   2.478 -2.0777  0.1520  1.4621
 1239TIP3    H225133   4.445   5.924   2.357 -0.7359 -0.8024  0.1870
 1240TIP3   OH225134   0.684   0.950   2.210 -0.0232  0.1687 -0.0412
 1240TIP3    H125135   0.718   0.985   2.128 -0.8680 -0.0347 -0.4964
 1240TIP3    H225136   0.591   0.973   2.208  0.2920  1.7767  1.7239
 1241TIP3   OH225137   0.727   2.941   3.176 -0.2166  0.0136  0.2395
 1241TIP3    H125138   0.811   2.917   3.216 -0.2516  1.3823  1.2378
 1241TIP3    H225139   0.751   2.993   3.100 -0.1649 -0.2758  0.0555
 1242TIP3   OH225140   4.536   0.723  11.800 -0.1901  0.4992  0.3238
 1242TIP3    H125141   4.567   0.812  11.815 -1.1604  0.8828  0.1349
 1242TIP3    H225142   4.611   0.677  11.763  0.1321  1.4062 -0.1711
 1243TIP3   OH225143   5.552   2.767   4.902 -0.0271  0.4025 -0.5954
 1243TIP3    H125144   5.463   2.786   4.933  0.7004  1.7136  0.8917
 1243TIP3    H225145   5.603   2.755   4.982  1.2027 -0.0011 -1.4066
 1244TIP3   OH225146   3.028   1.167   0.976  0.2140  0.3021  0.2320
 1244TIP3    H125147   3.118   1.135   0.982  0.2433  0.5646  1.6491
 1244TIP3    H225148   3.027   1.224   0.899  0.5482 -1.8353 -1.4186
 1245TIP3   OH225149   6.594   4.400   6.538  0.0429 -0.3790 -0.3074
 1245TIP3    H125150   6.547   4.475   6.573  1.2596 -0.3160  1.2710
 1245TIP3    H225151   6.678   4.400   6.584  0.4317 -2.1791 -0.9394
 1246TIP3   OH225152   5.128   1.272   5.050  0.2107  0.1683 -0.5877
 1246TIP3    H125153   5.208   1.323   5.058 -0.6323  1.3873  0.3349
 1246TIP3    H225154   5.063   1.333   5.016 -1.1313  0.0960  1.6582
 1247TIP3   OH225155   2.488   5.237  16.247  0.5577  0.1144 -0.0556
 1247TIP3    H125156   2.565   5.191  16.213  1.1372 -0.5568  1.9902
 1247TIP3    H225157   2.502   5.239  16.342 -1.6823  0.4688  0.3175
 1248TIP3   OH225158   1.655   6.421  11.633  0.3931  0.2778  0.0275
 1248TIP3    H125159   1.581   6.478  11.613 -0.4974 -1.4268 -1.9099
 1248TIP3    H225160   1.675   6.439  11.724 -1.7163  1.5747  0.3069
 1249TIP3   OH225161   1.531   3.934  14.740 -0.1449  0.2056  0.0435
 1249TIP3    H125162   1.577   3.851  14.754  0.1359  0.2454 -0.6317
 1249TIP3    H225163   1.439   3.910  14.735 -0.0869 -0.0317  0.1095
 1250TIP3   OH225164   6.389   3.270  13.805 -0.2104  0.1876  0.4450
 1250TIP3    H125165   6.373   3.300  13.716 -0.3523 -0.0101  0.4041
 1250TIP3    H225166   6.304   3.243  13.837 -0.0643 -0.2953  0.4366
 1251TIP3   OH225167   6.137   1.465  13.914 -0.1148  0.2500 -0.1003
 1251TIP3    H125168   6.109   1.520  13.987 -0.6249 -1.1843  0.8205
 1251TIP3    H225169   6.069   1.477  13.848 -0.6746  0.0546  0.4380
 1252TIP3   OH225170   1.475   5.551  12.729  0.0214  0.1593 -0.0937
 1252TIP3    H125171   1.422   5.617  12.774  2.3132  1.6493  0.6405
 1252TIP3    H225172   1.533   5.602  12.672  2.1265 -1.1174  0.7785
 1253TIP3   OH225173   2.044   4.542   1.443  0.5869  0.5839 -0.4390
 1253TIP3    H125174   1.979   4.583   1.385  2.2869  2.3948 -1.1747
 1253TIP3    H225175   2.125   4.591   1.426  1.7138 -0.4114  1.7553
 1254TIP3   OH225176   4.387   1.115   1.620  0.3826 -0.6710 -0.3631
 1254TIP3    H125177   4.405   1.079   1.707 -0.5113  0.4501  0.3103
 1254TIP3    H225178   4.457   1.179   1.605 -0.4479  0.4285  0.3219
 1255TIP3   OH225179   3.331   2.807   0.035  0.4998  0.0487 -0.3125
 1255TIP3    H125180   3.414   2.760   0.038  0.9371  0.4853 -2.9659
 1255TIP3    H225181   3.355   2.899   0.041  0.5908  0.3498 -3.3736
 1256TIP3   OH225182   0.430   3.830   4.157  0.0725  0.2011  0.3016
 1256TIP3    H125183   0.414   3.923   4.143  0.6657  0.0188 -1.9781
 1256TIP3    H225184   0.521   3.825   4.186 -0.0275  0.3379  0.6443
 1257TIP3   OH225185   2.085   4.879   1.275  0.0825 -0.3423  0.2661
 1257TIP3    H125186   2.086   4.844   1.186  3.8512 -2.2806  0.8341
 1257TIP3    H225187   2.023   4.823   1.322 -0.6756 -0.3891 -0.7476
 1258TIP3   OH225188   6.191   3.511  11.576  0.4116  0.1196  0.0789
 1258TIP3    H125189   6.190   3.423  11.613 -0.2490  0.1860  0.2458
 1258TIP3    H225190   6.159   3.500  11.487  0.0814  0.2160  0.1821
 1259TIP3   OH225191   3.889   4.713  16.657 -0.4238 -0.2408 -0.3541
 1259TIP3    H125192   3.871   4.772  16.730 -2.5739 -1.4464  0.1872
 1259TIP3    H225193   3.817   4.649  16.660  0.8369 -1.8349 -1.9703
 1260TIP3   OH225194   3.637   3.373   0.101 -0.6117 -0.0837  0.2291
 1260TIP3    H125195   3.714   3.321   0.078 -0.9323  0.0675 -1.3202
 1260TIP3    H225196   3.564   3.311   0.098 -0.6096 -0.1635  1.3994
 1261TIP3   OH225197   5.559   3.601   4.286 -0.2968  0.6068 -0.7470
 1261TIP3    H125198   5.599   3.671   4.337  0.5038  1.5563 -2.5851
 1261TIP3    H225199   5.584   3.619   4.195 -0.8375 -1.5531 -1.4002
 1262TIP3   OH225200   3.233   3.446   4.240 -0.1477 -0.2690 -0.4873
 1262TIP3    H125201   3.272   3.454   4.327 -0.6864 -1.0149 -0.1577
 1262TIP3    H225202   3.211   3.353   4.233 -0.0385 -0.2294 -1.4572
 1263TIP3   OH225203   6.405   5.434   3.412  0.1948 -0.1093 -0.1191
 1263TIP3    H125204   6.380   5.430   3.504 -0.6150 -2.2840 -0.3669
 1263TIP3    H225205   6.466   5.508   3.407  0.3451  0.0058  2.1713
 1264TIP3   OH225206   4.233   2.809   2.247 -0.0499  0.6429 -0.5638
 1264TIP3    H125207   4.222   2.736   2.307  2.4678 -0.0168 -0.8087
 1264TIP3    H225208   4.168   2.793   2.178 -0.6119 -0.4763  0.1997
 1265TIP3   OH225209   4.672   1.708   1.517  0.2371 -0.2264  0.0419
 1265TIP3    H125210   4.698   1.783   1.462  0.9837 -0.6558 -0.2145
 1265TIP3    H225211   4.602   1.666   1.468 -0.7623  0.7706  0.5843
 1266TIP3   OH225212   1.023   2.689  13.022 -0.1064 -0.4715 -0.1594
 1266TIP3    H125213   0.999   2.764  12.968 -1.2663 -0.9361 -0.3305
 1266TIP3    H225214   1.089   2.642  12.971 -0.4722 -0.3733 -0.7322
 1267TIP3   OH225215   6.634   0.814  15.491 -0.7108  0.0051 -0.7925
 1267TIP3    H125216   6.644   0.747  15.423 -0.3131  0.0988 -0.8308
 1267TIP3    H225217   6.675   0.892  15.454  0.9818 -0.3620  0.1473
 1268TIP3   OH225218   0.073   3.292   1.296  0.0564 -0.1068  0.0064
 1268TIP3    H125219   0.135   3.220   1.286 -0.7249 -0.4609 -3.5338
 1268TIP3    H225220   0.011   3.262   1.363 -0.1694 -2.7015 -1.2466
 1269TIP3   OH225221   1.649   1.896  13.018 -0.4651 -0.0163  0.0743
 1269TIP3    H125222   1.601   1.928  12.942 -1.8433 -1.8441  0.1075
 1269TIP3    H225223   1.608   1.939  13.093 -0.7946 -0.1277 -0.0400
 1270TIP3   OH225224   3.011   2.355  15.405  0.2819  0.6793 -0.1239
 1270TIP3    H125225   2.931   2.400  15.431  0.0668  0.3059 -0.1340
 1270TIP3    H225226   3.081   2.407  15.445 -0.0355  0.1150  1.2328
 1271TIP3   OH225227   2.527   0.547   4.635  0.2380  0.1798 -0.3520
 1271TIP3    H125228   2.441   0.572   4.669  0.0747 -2.2212  1.2570
 1271TIP3    H225229   2.584   0.544   4.711  0.1842 -4.0944 -0.2534
 1272TIP3   OH225230   2.062   5.803   4.153  0.5337 -0.1816  0.0363
 1272TIP3    H125231   2.047   5.751   4.074 -1.1557  2.1235 -1.3000
 1272TIP3    H225232   1.986   5.786   4.208  0.3705  0.2247 -0.0574
 1273TIP3   OH225233   5.329   3.129   0.865 -0.9058 -0.2926  0.1248
 1273TIP3    H125234   5.313   3.178   0.946  2.6453 -1.3760  1.6623
 1273TIP3    H225235   5.417   3.156   0.838 -0.9192 -2.0276 -1.8305
 1274TIP3   OH225236   0.868   3.233  16.685  0.0881  0.6321  0.7645
 1274TIP3    H125237   0.823   3.161  16.641  0.3370  0.1566  1.2705
 1274TIP3    H225238   0.957   3.230  16.650  0.0154  0.8913  0.5567
 1275TIP3   OH225239   4.175   6.440  16.949  0.3383 -0.0906  0.2251
 1275TIP3    H125240   4.177   6.531  16.921 -0.7937 -0.0357  0.2754
 1275TIP3    H225241   4.192   6.443  17.044  0.4484  0.0510  0.2011
 1276TIP3   OH225242   2.544   2.669  16.820 -0.2989  0.1370 -0.0979
 1276TIP3    H125243   2.492   2.731  16.872 -0.2956 -0.1726  0.2757
 1276TIP3    H225244   2.514   2.583  16.848 -0.0199 -0.0381 -0.3329
 1277TIP3   OH225245   2.611   3.038   4.971  0.2481 -0.4733  0.4169
 1277TIP3    H125246   2.650   3.077   5.049  0.7204 -0.3367  0.1163
 1277TIP3    H225247   2.517   3.033   4.991  0.1411  0.9754  0.3911
 1278TIP3   OH225248   3.818   4.078   0.570 -0.6525 -0.1097 -0.7278
 1278TIP3    H125249   3.731   4.116   0.574 -2.3230 -3.4554  3.9128
 1278TIP3    H225250   3.874   4.139   0.618 -1.0745  0.7531 -1.3296
 1279TIP3   OH225251   4.333   4.973  13.960  0.5385 -0.8365 -0.0339
 1279TIP3    H125252   4.266   5.041  13.957  1.2235 -0.1911 -0.9210
 1279TIP3    H225253   4.315   4.926  14.042 -0.7306 -0.4168 -0.0475
 1280TIP3   OH225254   2.181   1.643   2.193  0.0352 -0.1059 -0.1775
 1280TIP3    H125255   2.144   1.576   2.250 -0.1567 -1.2193 -1.5726
 1280TIP3    H225256   2.126   1.720   2.209 -0.8398 -0.7798  0.1804
 1281TIP3   OH225257   0.732   1.993   5.486  0.0033  0.1318  0.5831
 1281TIP3    H125258   0.748   1.907   5.524  2.1804 -0.2679 -1.0093
 1281TIP3    H225259   0.733   2.053   5.560  0.6026 -0.9839  1.5030
 1282TIP3   OH225260   2.640   2.081  14.940 -0.3643 -0.0751 -0.0357
 1282TIP3    H125261   2.564   2.040  14.981 -0.3546  1.3080  1.5032
 1282TIP3    H225262   2.701   2.095  15.012 -0.0025  1.7540 -0.6330
 1283TIP3   OH225263   5.856   1.149  16.197  0.2687 -0.5424  0.1863
 1283TIP3    H125264   5.841   1.065  16.155  0.5153 -0.1683 -0.6743
 1283TIP3    H225265   5.915   1.130  16.270  1.0050 -0.9878 -0.5184
 1284TIP3   OH225266   4.524   1.871   1.064 -0.1429 -0.1014  0.1422
 1284TIP3    H125267   4.535   1.923   0.985 -1.7218  0.9834  0.6014
 1284TIP3    H225268   4.600   1.892   1.118 -0.0886  0.7048 -0.2404
 1285TIP3   OH225269   1.631   3.708   2.212 -0.0915  0.5402  0.5155
 1285TIP3    H125270   1.657   3.639   2.273  2.0652  0.5277 -0.3014
 1285TIP3    H225271   1.605   3.662   2.132  1.7382  0.5949 -0.1715
 1286TIP3   OH225272   0.454   4.650   3.367  0.1865 -0.1151  0.2924
 1286TIP3    H125273   0.505   4.638   3.447  0.3324  1.3790  0.4447
 1286TIP3    H225274   0.431   4.561   3.340  1.5199 -0.7291  1.0861
 1287TIP3   OH225275   2.546   6.113   6.406  0.5157  0.3726  0.3484
 1287TIP3    H125276   2.523   6.162   6.326  2.0608  2.3651  1.0294
 1287TIP3    H225277   2.494   6.155   6.474  1.1522  0.4627  0.7877
 1288TIP3   OH225278   2.195   2.297  12.720 -0.0865 -0.0357  0.5019
 1288TIP3    H125279   2.163   2.220  12.768 -0.5835 -1.1335 -1.5111
 1288TIP3    H225280   2.243   2.262  12.645 -1.0494  1.5761 -0.9467
 1289TIP3   OH225281   5.675   0.511  15.890 -0.6138 -0.4260  0.6635
 1289TIP3    H125282   5.698   0.419  15.902  1.1438 -0.2969 -1.1366
 1289TIP3    H225283   5.599   0.509  15.832 -0.9988 -0.7477  1.1733
 1290TIP3   OH225284   6.794   2.600   4.715  0.0821 -0.3708  0.4563
 1290TIP3    H125285   6.844   2.649   4.649 -1.9027  0.7522 -0.2924
 1290TIP3    H225286   6.742   2.537   4.664 -1.1824  0.2379  0.9554
 1291TIP3   OH225287   4.714   4.959   0.705 -0.2187 -0.5097 -0.0907
 1291TIP3    H125288   4.754   4.915   0.631 -0.9325 -1.6218  0.1603
 1291TIP3    H225289   4.774   4.944   0.778 -0.3872 -0.9418 -0.0403
 1292TIP3   OH225290   1.427   1.321  14.221 -0.8030 -0.0557 -0.4519
 1292TIP3    H125291   1.350   1.376  14.207 -0.9207 -0.4563 -1.4688
 1292TIP3    H225292   1.403   1.265  14.295 -0.8459  0.9417  0.3113
 1293TIP3   OH225293   4.746   2.937   5.076 -0.9201 -0.2585  0.0664
 1293TIP3    H125294   4.805   2.874   5.033 -0.8250 -0.4130  0.4128
 1293TIP3    H225295   4.761   3.019   5.030  0.1288 -0.1111  0.6226
 1294TIP3   OH225296   3.505   0.778  13.511 -0.2649 -0.0296 -0.0111
 1294TIP3    H125297   3.536   0.789  13.421  1.0987  0.3975  0.4819
 1294TIP3    H225298   3.566   0.715  13.549 -0.9604 -0.3686  0.5542
 1295TIP3   OH225299   4.461   0.647   6.223  0.1200 -0.1007 -0.2162
 1295TIP3    H125300   4.552   0.666   6.244 -0.6530  1.3021  2.2827
 1295TIP3    H225301   4.439   0.571   6.277 -0.7186  0.8112  0.7544
 1296TIP3   OH225302   4.045   6.534  14.467 -0.0121 -0.4688  0.0874
 1296TIP3    H125303   4.063   6.466  14.402 -0.3756  0.3958 -0.9465
 1296TIP3    H225304   4.114   6.524  14.532  0.2789 -1.4495 -0.3558
 1297TIP3   OH225305   4.904   0.546   3.013 -0.0262  0.4156  0.2876
 1297TIP3    H125306   4.981   0.489   3.015 -1.3441 -1.4351  0.3876
 1297TIP3    H225307   4.896   0.579   3.102  0.0691 -0.2223  0.5366
 1298TIP3   OH225308   1.707   1.498  15.793  0.1151 -0.4657  0.1546
 1298TIP3    H125309   1.761   1.447  15.733 -0.3160  1.7810 -2.2714
 1298TIP3    H225310   1.619   1.493  15.757 -0.0224  1.5497  0.1317
 1299TIP3   OH225311   4.815   5.297   5.877  0.1709  0.6904  0.9226
 1299TIP3    H125312   4.880   5.316   5.944 -1.4372  0.0162  2.7879
 1299TIP3    H225313   4.760   5.375   5.873  1.8912  1.8875 -1.7630
 1300TIP3   OH225314   6.218   5.456  15.266 -0.1943  0.0240 -0.0775
 1300TIP3    H125315   6.173   5.539  15.278 -0.8266 -0.3070 -0.0896
 1300TIP3    H225316   6.291   5.476  15.208  0.1556  0.7273  0.5835
 1301TIP3   OH225317   4.128   3.228  15.121  0.2393  0.0498  0.1640
 1301TIP3    H125318   4.074   3.149  15.121  2.0025 -1.2366 -0.2665
 1301TIP3    H225319   4.165   3.232  15.033  0.8136  0.8805  0.4284
 1302TIP3   OH225320   2.243   5.537   1.184 -0.0766  0.2992  0.3304
 1302TIP3    H125321   2.291   5.567   1.261  0.8325 -0.9275  0.2654
 1302TIP3    H225322   2.203   5.455   1.212  0.1802 -0.1017 -0.4670
 1303TIP3   OH225323   1.726   3.707  13.672 -0.0407  0.2015 -0.0231
 1303TIP3    H125324   1.676   3.660  13.606 -0.2368  0.4555 -0.0549
 1303TIP3    H225325   1.813   3.720  13.633  0.5106 -1.4626  0.5604
 1304TIP3   OH225326   5.775   5.910  10.785  0.3920 -0.1346  0.5388
 1304TIP3    H125327   5.841   5.942  10.724 -1.1636 -1.0363 -1.7638
 1304TIP3    H225328   5.778   5.815  10.775 -1.5940 -0.1807 -0.0798
 1305TIP3   OH225329   4.106   1.497  15.779 -0.2498  0.4588  0.5132
 1305TIP3    H125330   4.156   1.571  15.813  3.2431 -1.1385 -0.6298
 1305TIP3    H225331   4.139   1.485  15.689 -0.2593 -2.7279  0.8178
 1306TIP3   OH225332   3.573   4.622   4.489 -0.0555  0.2969  0.2004
 1306TIP3    H125333   3.626   4.552   4.451 -0.1170  0.2241  0.2493
 1306TIP3    H225334   3.502   4.636   4.426  0.2159  0.6310 -0.0333
 1307TIP3   OH225335   6.049   0.590  16.630 -0.0984 -0.1389 -0.2219
 1307TIP3    H125336   6.054   0.558  16.721 -0.9343 -0.3413 -0.2399
 1307TIP3    H225337   5.956   0.586  16.609  0.1919 -1.0157 -1.4158
 1308TIP3   OH225338   5.889   3.967   0.358 -0.2980 -0.8556 -0.6410
 1308TIP3    H125339   5.831   3.957   0.282 -0.9003  0.3946 -0.3652
 1308TIP3    H225340   5.857   4.045   0.403 -0.1969 -1.7734  1.1298
 1309TIP3   OH225341   3.828   3.348  15.571  0.1315 -0.2913 -0.0750
 1309TIP3    H125342   3.769   3.404  15.623 -2.1140  1.0540 -3.7106
 1309TIP3    H225343   3.884   3.409  15.524  0.8731 -1.3574 -0.6145
 1310TIP3   OH225344   1.006   6.216  13.216  0.0264  0.2203 -0.0656
 1310TIP3    H125345   1.074   6.155  13.188 -0.3767 -0.0856 -0.3789
 1310TIP3    H225346   1.048   6.302  13.211  0.4387  0.0179 -0.1026
 1311TIP3   OH225347   4.642   1.380  10.712  0.2708  0.6293  0.2699
 1311TIP3    H125348   4.581   1.441  10.670  0.4153  1.1052  0.7296
 1311TIP3    H225349   4.588   1.309  10.743  0.0511  0.6873  0.0251
 1312TIP3   OH225350   1.202   5.576  14.931  0.6719 -0.1931 -0.1355
 1312TIP3    H125351   1.281   5.621  14.902  0.0529  0.8089 -0.3216
 1312TIP3    H225352   1.131   5.638  14.914 -0.0298 -0.6384  1.0402
 1313TIP3   OH225353   0.784   0.655  15.819 -0.6807  0.3472 -1.0627
 1313TIP3    H125354   0.848   0.585  15.814 -1.2095 -0.0832 -2.0720
 1313TIP3    H225355   0.788   0.697  15.734 -1.2019  0.8030 -0.8677
 1314TIP3   OH225356   4.804   4.913  11.819 -0.4920 -0.2416  0.1647
 1314TIP3    H125357   4.861   4.989  11.805 -1.3487  0.1192 -1.5518
 1314TIP3    H225358   4.719   4.939  11.784 -1.1285 -1.5756  0.6433
 1315TIP3   OH225359   2.506   0.461  14.769  0.4829  0.3032 -0.3231
 1315TIP3    H125360   2.475   0.389  14.824  1.3642  0.5203  0.4919
 1315TIP3    H225361   2.576   0.502  14.821  0.4560  1.3207 -1.0608
 1316TIP3   OH225362   5.852   6.463   2.470 -0.1234 -0.1517  0.4088
 1316TIP3    H125363   5.878   6.521   2.542 -1.1657  0.0273  0.6459
 1316TIP3    H225364   5.873   6.375   2.502 -0.9903 -0.1152  1.1326
 1317TIP3   OH225365   0.568   1.871  15.815 -0.0792 -0.3195  0.5108
 1317TIP3    H125366   0.546   1.850  15.725  0.3265  0.1104  0.3054
 1317TIP3    H225367   0.533   1.958  15.829 -0.3707 -0.4888  0.8560
 1318TIP3   OH225368   1.751   0.911   1.608  0.0343  0.0452 -0.2713
 1318TIP3    H125369   1.755   0.835   1.666 -1.0780  0.1067 -0.0774
 1318TIP3    H225370   1.840   0.945   1.605  0.2024 -0.2418  1.0384
 1319TIP3   OH225371   0.311   5.681  12.883  0.2215  0.6153 -0.5288
 1319TIP3    H125372   0.250   5.624  12.836 -0.1672  1.1116 -0.6335
 1319TIP3    H225373   0.397   5.656  12.850  0.2381 -1.1655  0.7512
 1320TIP3   OH225374   0.226   0.532   0.301  0.0359  0.4980  0.5065
 1320TIP3    H125375   0.202   0.504   0.390  0.5837 -0.6469  0.3048
 1320TIP3    H225376   0.149   0.579   0.270 -0.2937  0.6217  1.4615
 1321TIP3   OH225377   3.057   4.421   1.329 -0.3217  0.2175 -0.0868
 1321TIP3    H125378   3.130   4.481   1.342 -0.9446  0.9344  0.1752
 1321TIP3    H225379   3.009   4.458   1.254 -0.7003  0.0341  0.0631
 1322TIP3   OH225380   2.509   0.511  11.249  0.7068 -0.4746 -0.1363
 1322TIP3    H125381   2.580   0.576  11.246 -0.7476  1.5064  2.8718
 1322TIP3    H225382   2.467   0.526  11.334 -1.3209 -3.7452 -0.3964
 1323TIP3   OH225383   4.136   2.581   3.435 -0.5876  0.8334  0.3822
 1323TIP3    H125384   4.102   2.497   3.466 -1.2697  1.0846  0.3267
 1323TIP3    H225385   4.072   2.611   3.371  0.3341  0.7682 -0.5996
 1324TIP3   OH225386   0.618   0.250  12.513 -0.2472  0.4778  0.3575
 1324TIP3    H125387   0.584   0.272  12.427  0.4923  1.2536  0.2509
 1324TIP3    H225388   0.703   0.210  12.496 -1.2419 -1.9352  0.5863
 1325TIP3   OH225389   2.204   5.259   5.503  0.4255  0.4697  0.1400
 1325TIP3    H125390   2.283   5.248   5.555 -0.7421  0.3079  1.9821
 1325TIP3    H225391   2.190   5.174   5.463 -0.3528 -0.4293  2.1716
 1326TIP3   OH225392   3.616   4.750  12.123  0.5209 -0.5258 -0.4458
 1326TIP3    H125393   3.666   4.677  12.161 -0.4173 -1.1104 -0.3038
 1326TIP3    H225394   3.658   4.766  12.039  2.7755  0.9373  0.8552
 1327TIP3   OH225395   1.590   6.530   2.284 -0.2054  0.1382 -0.0687
 1327TIP3    H125396   1.616   6.593   2.350 -0.5495  0.8461 -0.6038
 1327TIP3    H225397   1.528   6.576   2.228  2.0878  0.5273 -2.5482
 1328TIP3   OH225398   0.170   2.632  13.116  0.0457 -0.3470  0.1483
 1328TIP3    H125399   0.146   2.643  13.209  0.5164 -0.4897  0.2864
 1328TIP3    H225400   0.230   2.704  13.098 -1.3870  0.7286 -0.5286
 1329TIP3   OH225401   5.528   5.451  12.284 -0.2429 -0.8399 -0.0277
 1329TIP3    H125402   5.445   5.440  12.331 -0.1330  0.4136  0.4863
 1329TIP3    H225403   5.595   5.446  12.352  0.0779 -1.3690 -0.3798
 1330TIP3   OH225404   0.521   1.599   0.292 -0.0348 -0.4801 -0.0816
 1330TIP3    H125405   0.572   1.666   0.339 -2.3224  2.5934 -1.6316
 1330TIP3    H225406   0.457   1.569   0.357 -0.0053  0.0378  0.1978
 1331TIP3   OH225407   5.304   3.152   3.552  0.0777  0.5708  0.1099
 1331TIP3    H125408   5.341   3.090   3.489 -0.3163  1.8675 -1.4614
 1331TIP3    H225409   5.209   3.141   3.543  0.0123  1.1634  0.0436
 1332TIP3   OH225410   0.116   1.250  13.162  0.1554  0.6229  0.2352
 1332TIP3    H125411   0.184   1.183  13.159  2.2482  2.5480  1.3170
 1332TIP3    H225412   0.050   1.216  13.222  0.8054 -0.7544  0.1974
 1333TIP3   OH225413   3.994   3.352  13.528  0.2582  0.2181 -0.1556
 1333TIP3    H125414   4.077   3.385  13.494  0.7212 -0.6823  0.0610
 1333TIP3    H225415   3.927   3.407  13.487  1.0047  1.5844  0.4241
 1334TIP3   OH225416   6.687   4.008   4.463 -0.0064  0.5767 -0.3373
 1334TIP3    H125417   6.628   3.973   4.396  1.8751  0.6526 -2.1666
 1334TIP3    H225418   6.697   3.937   4.526 -0.7932 -0.0060 -0.8516
 1335TIP3   OH225419   3.690   3.544  14.184 -0.1093 -0.0726  0.9493
 1335TIP3    H125420   3.661   3.624  14.142 -2.0187 -0.6880  0.9879
 1335TIP3    H225421   3.785   3.545  14.175 -0.2427  1.1839 -0.8596
 1336TIP3   OH225422   3.566   4.472  11.938 -0.0193 -0.4589  0.5617
 1336TIP3    H125423   3.646   4.486  11.989  0.8006  0.3226 -0.8546
 1336TIP3    H225424   3.568   4.379  11.915  0.5865 -0.4103  0.3919
 1337TIP3   OH225425   1.361   3.671  11.843 -0.3447 -0.4599  0.0735
 1337TIP3    H125426   1.319   3.742  11.795  0.0874  1.1778  1.9491
 1337TIP3    H225427   1.292   3.606  11.855 -0.9642 -0.0342 -1.0505
 1338TIP3   OH225428   2.797   2.010  12.372  0.4626 -0.0318  0.0644
 1338TIP3    H125429   2.887   2.041  12.379  0.3980 -0.1203  1.6403
 1338TIP3    H225430   2.805   1.923  12.334  1.0261 -0.0154  0.1292
 1339TIP3   OH225431   5.976   5.562  12.512 -0.1657  0.5025 -0.5859
 1339TIP3    H125432   6.044   5.506  12.475 -0.0420 -0.0546  0.4324
 1339TIP3    H225433   5.997   5.650  12.480  0.2457  0.1375 -1.3620
 1340TIP3   OH225434   1.396   3.903   4.941  0.4058 -0.2142  0.1181
 1340TIP3    H125435   1.387   3.907   5.036  0.8055  0.0804  0.1451
 1340TIP3    H225436   1.314   3.864   4.911  0.0189  0.2574  0.5399
 1341TIP3   OH225437   4.291   6.717  13.657 -0.2600  0.1664 -0.4685
 1341TIP3    H125438   4.345   6.689  13.583 -1.5693 -0.2327 -1.3101
 1341TIP3    H225439   4.321   6.663  13.731 -0.0281 -0.5925 -1.1102
 1342TIP3   OH225440   1.027   1.192  11.439 -0.4893 -0.0140  0.3394
 1342TIP3    H125441   0.937   1.207  11.466 -1.4941 -0.3908 -2.4145
 1342TIP3    H225442   1.061   1.128  11.502 -2.7635 -1.2583  0.4063
 1343TIP3   OH225443   5.376   4.473   2.282 -0.2243  0.1346  0.0937
 1343TIP3    H125444   5.453   4.471   2.226 -0.6460  0.8602 -0.5403
 1343TIP3    H225445   5.390   4.548   2.341 -0.3555  0.1478  0.1098
 1344TIP3   OH225446   2.677   6.519  12.919  0.4320 -0.3418 -0.3125
 1344TIP3    H125447   2.632   6.582  12.975 -0.4760 -0.3017 -1.0594
 1344TIP3    H225448   2.652   6.433  12.953  0.2826 -0.3101 -0.3401
 1345TIP3   OH225449   4.739   4.019   6.080 -0.1661 -0.5047 -0.5213
 1345TIP3    H125450   4.683   3.944   6.101 -3.8619  2.3895  1.2113
 1345TIP3    H225451   4.796   4.029   6.156 -2.2860  0.4791  1.0378
 1346TIP3   OH225452   4.570   6.735   4.595  0.5167  0.4388  0.2158
 1346TIP3    H125453   4.626   6.775   4.661  1.4293 -0.0547 -0.2296
 1346TIP3    H225454   4.587   6.641   4.603  0.2848  0.3389 -0.4011
 1347TIP3   OH225455   2.277   3.930  13.585  0.4395 -0.1329 -0.5549
 1347TIP3    H125456   2.318   3.859  13.535  0.4239  0.2182 -1.0677
 1347TIP3    H225457   2.308   4.010  13.543 -0.4006  0.1467 -0.6605
 1348TIP3   OH225458   0.453   4.276   2.927 -0.1392  0.5903 -0.2592
 1348TIP3    H125459   0.403   4.357   2.935 -1.8274 -0.3749 -0.5789
 1348TIP3    H225460   0.398   4.210   2.967  1.5757 -0.3053  0.7588
 1349TIP3   OH225461   4.384   5.576  11.527  0.7040 -0.0806 -0.0339
 1349TIP3    H125462   4.335   5.496  11.546  0.3754  0.1708  0.1841
 1349TIP3    H225463   4.416   5.564  11.437  0.6888 -0.4719  0.0129
 1350TIP3   OH225464   3.111   1.323   2.175 -0.2974 -0.1235 -0.0653
 1350TIP3    H125465   3.141   1.347   2.263 -0.1477 -0.6718  0.0372
 1350TIP3    H225466   3.044   1.258   2.189  0.7635 -1.3284 -0.3858
 1351TIP3   OH225467   4.617   2.807  11.739  0.3378 -0.3058 -0.1137
 1351TIP3    H125468   4.635   2.734  11.798 -1.7618  1.1044  2.4552
 1351TIP3    H225469   4.524   2.798  11.716 -0.2242  1.9650  0.9941
 1352TIP3   OH225470   5.324   0.963   0.980 -0.1027 -0.3865 -0.3930
 1352TIP3    H125471   5.336   0.987   1.072  1.1603 -0.6325 -0.4882
 1352TIP3    H225472   5.411   0.942   0.948 -0.8717 -3.4141 -0.8078
 1353TIP3   OH225473   5.690   5.423   6.041  0.0672  0.0650 -0.4198
 1353TIP3    H125474   5.668   5.332   6.057 -0.7917  0.4858  0.9976
 1353TIP3    H225475   5.768   5.438   6.095  0.8962 -0.1207 -1.5488
 1354TIP3   OH225476   5.843   3.876   0.920 -0.1967 -0.6345 -0.2200
 1354TIP3    H125477   5.878   3.848   0.836 -0.9230 -0.9446 -0.4222
 1354TIP3    H225478   5.920   3.906   0.969  0.2102 -0.2935 -1.0500
 1355TIP3   OH225479   1.961   1.268   5.552 -0.4000 -0.3933 -0.0313
 1355TIP3    H125480   1.942   1.263   5.645 -3.0286  0.8527 -0.3939
 1355TIP3    H225481   1.951   1.360   5.530 -2.3305 -0.9751 -1.9347
 1356TIP3   OH225482   0.808   1.107   3.770 -0.2157 -0.2058 -0.1576
 1356TIP3    H125483   0.735   1.160   3.737 -0.2776  0.7716  1.4677
 1356TIP3    H225484   0.765   1.033   3.815 -0.1618 -0.4115 -0.4385
 1357TIP3   OH225485   4.075   0.278   3.222 -0.2530  0.0736  0.0552
 1357TIP3    H125486   4.088   0.359   3.172 -2.2614  0.5444  0.2020
 1357TIP3    H225487   4.107   0.299   3.310  0.1256  0.3802 -0.1524
 1358TIP3   OH225488   2.547   3.508  12.859  0.4258  0.0711  0.2917
 1358TIP3    H125489   2.630   3.531  12.900  0.4052  0.8196 -0.0786
 1358TIP3    H225490   2.562   3.420  12.823  2.2932  1.5066 -2.8993
 1359TIP3   OH225491   0.816   5.961   1.395 -0.0354  0.0888 -0.7821
 1359TIP3    H125492   0.810   5.963   1.300  2.0262 -1.5282 -1.0122
 1359TIP3    H225493   0.830   5.869   1.417 -1.9966  0.1821  1.2402
 1360TIP3   OH225494   3.744   1.386   3.598 -0.5915 -0.6607 -0.0403
 1360TIP3    H125495   3.649   1.381   3.585 -0.7706  0.8891  0.4380
 1360TIP3    H225496   3.780   1.374   3.510 -1.3195  0.1513 -0.4788
 1361TIP3   OH225497   2.859   1.756   1.463  0.5228 -0.0744  0.3040
 1361TIP3    H125498   2.913   1.783   1.538  2.9424 -1.4181 -0.8109
 1361TIP3    H225499   2.908   1.786   1.386  0.6598 -2.8737 -0.8145
 1362TIP3   OH225500   0.104   6.472  13.443  0.0288 -0.2238 -0.1489
 1362TIP3    H125501   0.046   6.425  13.383  0.7916 -0.1342 -0.9681
 1362TIP3    H225502   0.148   6.537  13.389  1.2199 -0.5780  0.3661
 1363TIP3   OH225503   1.446   1.263   4.386 -0.1452  0.1935  0.2433
 1363TIP3    H125504   1.359   1.297   4.366  0.1298  0.4791 -0.5027
 1363TIP3    H225505   1.472   1.309   4.466 -0.3922  0.6375  0.0685
 1364TIP3   OH225506   2.775   3.034  16.365  0.2091 -0.3461  0.0712
 1364TIP3    H125507   2.853   3.011  16.313  1.6458 -1.9913  2.7163
 1364TIP3    H225508   2.713   2.964  16.347  0.2816 -0.3328 -0.2349
 1365TIP3   OH225509   5.487   5.847  11.544 -0.4157 -0.8037  0.1463
 1365TIP3    H125510   5.421   5.800  11.492 -1.3564  0.1342  0.4573
 1365TIP3    H225511   5.568   5.836  11.494 -1.3574  0.4087 -1.8078
 1366TIP3   OH225512   4.802   2.611  13.521 -0.0705  0.0508  0.6023
 1366TIP3    H125513   4.819   2.555  13.445  0.2822 -1.3874  1.6836
 1366TIP3    H225514   4.819   2.554  13.596 -0.6967  1.3430  1.7619
 1367TIP3   OH225515   5.671   2.126  10.918  0.0202 -0.1531 -0.1044
 1367TIP3    H125516   5.610   2.109  10.846  2.9215 -1.1361 -2.5839
 1367TIP3    H225517   5.732   2.191  10.882  0.0267  1.4466  2.5507
 1368TIP3   OH225518   0.061   5.065  14.130  0.2435  0.1555  0.4720
 1368TIP3    H125519  -0.033   5.083  14.126  0.2894  0.2238 -0.7422
 1368TIP3    H225520   0.072   5.013  14.209 -0.6773  0.9122  1.1331
 1369TIP3   OH225521   2.308   5.194   3.308  0.0659  0.3896  0.4571
 1369TIP3    H125522   2.328   5.284   3.335 -1.3436  0.3323  1.8320
 1369TIP3    H225523   2.283   5.150   3.389 -1.2674 -0.6832 -0.5025
 1370TIP3   OH225524   2.179   3.135  12.650  0.2778 -0.0085 -0.5283
 1370TIP3    H125525   2.251   3.081  12.679  1.0318  0.3572 -1.6403
 1370TIP3    H225526   2.166   3.111  12.558 -1.9313 -1.0545 -0.0069
 1371TIP3   OH225527   1.669   3.353   2.968  0.2002  0.2377  0.0880
 1371TIP3    H125528   1.596   3.293   2.955 -1.5781  2.3807 -0.3662
 1371TIP3    H225529   1.718   3.350   2.886 -0.7244  0.4674 -0.4859
 1372TIP3   OH225530   4.841   0.193  14.306  0.2131 -0.3515 -0.1742
 1372TIP3    H125531   4.774   0.259  14.290  1.0938  0.5943 -0.0333
 1372TIP3    H225532   4.920   0.243  14.327  1.4684 -1.3616 -2.1765
 1373TIP3   OH225533   5.868   2.435  12.440  0.1957  0.0546  0.7101
 1373TIP3    H125534   5.822   2.375  12.381  1.0153 -1.5223  1.5939
 1373TIP3    H225535   5.798   2.480  12.488 -0.5376 -2.3704  2.1150
 1374TIP3   OH225536   3.982   3.369  15.860  0.0392  0.1311 -0.0112
 1374TIP3    H125537   4.053   3.408  15.910 -1.3096  2.8134  0.0384
 1374TIP3    H225538   3.977   3.422  15.780 -1.8560  0.0488 -0.0057
 1375TIP3   OH225539   2.567   5.075   4.557 -0.1154  0.0277  0.1953
 1375TIP3    H125540   2.510   5.142   4.595 -1.1854 -0.9301  0.3354
 1375TIP3    H225541   2.531   5.062   4.469  0.8499  0.4943 -0.2867
 1376TIP3   OH225542   1.992   3.659   0.675  0.2943  0.2463 -0.2357
 1376TIP3    H125543   2.028   3.692   0.592 -0.4922  0.2840 -0.5706
 1376TIP3    H225544   1.897   3.659   0.661  0.1994 -0.5322  0.3760
 1377TIP3   OH225545   4.464   2.655   3.352  0.2344 -0.5920  0.2620
 1377TIP3    H125546   4.482   2.746   3.331  2.2247 -0.7472  1.1245
 1377TIP3    H225547   4.439   2.655   3.444 -2.2171 -0.6773 -0.3290
 1378TIP3   OH225548   1.982   2.188   3.720 -0.3229  0.0528  0.2647
 1378TIP3    H125549   1.937   2.181   3.636 -0.1263  2.5440 -0.1235
 1378TIP3    H225550   1.912   2.189   3.785 -0.4584 -2.3299  0.2289
 1379TIP3   OH225551   5.894   6.003   6.132 -0.4490 -0.2005 -0.2498
 1379TIP3    H125552   5.847   5.969   6.208  0.4918 -1.5072 -0.2025
 1379TIP3    H225553   5.986   5.990   6.154 -0.0419  2.0968 -0.4235
 1380TIP3   OH225554   4.071   5.396   2.483 -0.5009 -0.1556 -0.5924
 1380TIP3    H125555   4.151   5.346   2.501 -0.1012 -0.7571 -3.5188
 1380TIP3    H225556   4.062   5.393   2.388 -2.4298  2.4068 -0.5944
 1381TIP3   OH225557   1.268   1.732  10.342  0.2922  0.1217  0.2150
 1381TIP3    H125558   1.213   1.663  10.379  0.3989 -0.3154 -0.4135
 1381TIP3    H225559   1.242   1.736  10.250 -0.6930  1.8697  0.5129
 1382TIP3   OH225560   1.396   4.054  15.488 -0.3941 -0.6199 -0.2758
 1382TIP3    H125561   1.322   4.108  15.517  1.7434  2.3379  0.1953
 1382TIP3    H225562   1.369   4.018  15.404 -1.8049  1.7352 -0.9151
 1383TIP3   OH225563   2.937   5.805   3.817  0.3755 -0.0163  0.7905
 1383TIP3    H125564   2.905   5.716   3.802  0.0513  0.5387 -2.4823
 1383TIP3    H225565   2.875   5.842   3.880  0.6726 -2.1124  2.4377
 1384TIP3   OH225566   1.970   6.411   0.540  0.1938  0.3695 -0.6163
 1384TIP3    H125567   1.914   6.478   0.500  0.3391  2.3926  2.2394
 1384TIP3    H225568   1.918   6.331   0.538 -1.4073  1.3881 -1.1150
 1385TIP3   OH225569   4.431   2.125  17.000  0.6065  0.9944 -0.5305
 1385TIP3    H125570   4.394   2.136  17.088  2.5202 -1.7680  0.7812
 1385TIP3    H225571   4.354   2.107  16.945 -0.5085  1.0475  0.9258
 1386TIP3   OH225572   6.668   3.219  12.529  0.1204 -0.4667  0.1880
 1386TIP3    H125573   6.710   3.194  12.611 -0.5417  0.5324  0.8558
 1386TIP3    H225574   6.595   3.158  12.520  0.5500 -0.9612  0.0281
 1387TIP3   OH225575   1.228   3.552  15.320 -0.8032  0.1760 -0.0338
 1387TIP3    H125576   1.223   3.612  15.395  0.8970 -2.0809  2.0444
 1387TIP3    H225577   1.142   3.510  15.317 -0.8999  0.3206  0.6205
 1388TIP3   OH225578   5.512   3.493  17.027 -0.2533  0.0983 -0.1911
 1388TIP3    H125579   5.436   3.533  16.984 -0.5955  0.6489  0.8924
 1388TIP3    H225580   5.491   3.496  17.121  1.6315  1.3829  0.2279
 1389TIP3   OH225581   3.870   3.269  16.965 -0.0004 -0.2822 -0.5153
 1389TIP3    H125582   3.961   3.246  16.985 -0.3471  0.2662  2.0030
 1389TIP3    H225583   3.821   3.187  16.974  0.3183 -0.7732 -2.7801
 1390TIP3   OH225584   1.306   6.347   3.797 -0.4087 -0.2566 -0.1141
 1390TIP3    H125585   1.401   6.363   3.805 -0.3431  0.9506 -2.4821
 1390TIP3    H225586   1.298   6.291   3.720 -1.6014 -1.0478  0.5642
 1391TIP3   OH225587   1.203   6.338   6.530 -0.0059  0.2684 -0.0560
 1391TIP3    H125588   1.276   6.385   6.491 -1.0990  1.2702 -0.9372
 1391TIP3    H225589   1.140   6.406   6.555 -0.7079 -0.5834  0.5754
 1392TIP3   OH225590   0.126   2.986  16.598  0.8880 -0.0541  0.5580
 1392TIP3    H125591   0.093   3.065  16.639  0.0649  0.7244 -1.4514
 1392TIP3    H225592   0.197   2.956  16.655  0.2151  1.2613  2.1452
 1393TIP3   OH225593   2.547   0.436   2.544  0.4109 -0.1102 -0.3872
 1393TIP3    H125594   2.592   0.432   2.628 -1.9286 -0.9545  0.8987
 1393TIP3    H225595   2.606   0.390   2.483  1.5616 -0.6061  1.0434
 1394TIP3   OH225596   3.542   5.083  12.820  0.2011  0.0029  0.2840
 1394TIP3    H125597   3.508   5.133  12.747  1.9284 -0.9603 -1.2573
 1394TIP3    H225598   3.625   5.126  12.843  1.0153 -1.2906 -0.1516
 1395TIP3   OH225599   0.215   6.769  12.201 -0.4575 -0.0627  0.3846
 1395TIP3    H125600   0.135   6.776  12.148 -0.3807  0.9675  0.3770
 1395TIP3    H225601   0.267   6.846  12.176  0.5685 -0.7535  0.3461
 1396TIP3   OH225602   2.610   0.341  15.981  0.2802  0.1626 -0.4111
 1396TIP3    H125603   2.675   0.411  15.985 -0.5303  0.8480  1.1337
 1396TIP3    H225604   2.549   0.359  16.052 -0.6688 -1.4148 -0.7689
 1397TIP3   OH225605   1.153   6.305   3.298 -0.0899 -0.1377 -0.3390
 1397TIP3    H125606   1.247   6.322   3.303 -0.0671 -0.2570 -0.3519
 1397TIP3    H225607   1.141   6.222   3.343 -0.6520  1.4330  2.6765
 1398TIP3   OH225608   6.471   3.749   6.239  0.8785 -0.9260 -0.4453
 1398TIP3    H125609   6.385   3.774   6.273  0.9731  0.7858 -1.3781
 1398TIP3    H225610   6.534   3.795   6.295  1.0748  0.4466 -1.7264
 1399TIP3   OH225611   5.301   6.709   6.095 -0.7893 -0.9334 -0.6221
 1399TIP3    H125612   5.390   6.694   6.127 -1.0147 -0.4164  0.2741
 1399TIP3    H225613   5.249   6.637   6.132 -0.8329 -0.9701 -0.7548
 1400TIP3   OH225614   4.595   2.764   3.738  0.2274 -0.1638  0.4444
 1400TIP3    H125615   4.505   2.756   3.706 -0.2790 -0.1108  1.7582
 1400TIP3    H225616   4.632   2.838   3.690 -0.2461 -0.5421 -0.5125
 1401TIP3   OH225617   1.006   5.529  12.791  0.6653  0.0718  0.0920
 1401TIP3    H125618   0.997   5.475  12.869  1.9747 -1.1323 -0.5465
 1401TIP3    H225619   0.927   5.582  12.789  0.6299  0.1653  2.2487
 1402TIP3   OH225620   6.634   5.882   3.371  0.3721 -0.5339 -0.1869
 1402TIP3    H125621   6.664   5.898   3.281 -0.2020 -1.5022 -0.5739
 1402TIP3    H225622   6.690   5.937   3.425  1.3463 -0.6271 -1.0635
 1403TIP3   OH225623   4.081   4.183   4.852  0.1475  0.0894 -0.1160
 1403TIP3    H125624   4.141   4.255   4.837  1.3845 -0.7489  0.6068
 1403TIP3    H225625   4.073   4.139   4.767  0.9420 -0.0665 -0.1164
 1404TIP3   OH225626   2.927   1.472   5.011  0.0996  0.8275  0.0810
 1404TIP3    H125627   2.921   1.493   4.918 -0.0037  0.2076 -0.0530
 1404TIP3    H225628   2.883   1.545   5.054 -0.3573  0.8326 -0.3874
 1405TIP3   OH225629   2.678   6.223  13.885 -0.0609  0.2375 -0.2108
 1405TIP3    H125630   2.722   6.217  13.969 -2.7525  1.2709  1.4005
 1405TIP3    H225631   2.706   6.308  13.849  0.1314  0.3767  0.2602
 1406TIP3   OH225632   3.853   0.412   3.441 -1.0262  0.1337  0.6716
 1406TIP3    H125633   3.947   0.403   3.459 -0.5028 -0.2696 -1.8548
 1406TIP3    H225634   3.834   0.503   3.462  0.7224  1.1270 -1.6193
 1407TIP3   OH225635   5.808   1.334  15.641 -0.5726 -0.4752 -0.2741
 1407TIP3    H125636   5.762   1.257  15.607 -0.0099 -1.2081  0.5812
 1407TIP3    H225637   5.884   1.344  15.584 -1.7682  0.7712 -1.7265
 1408TIP3   OH225638   6.545   5.747  16.688  0.4643 -0.1919 -0.1877
 1408TIP3    H125639   6.478   5.757  16.755 -0.2266  0.1070 -0.9028
 1408TIP3    H225640   6.537   5.826  16.634  1.4014 -0.1469 -0.2835
 1409TIP3   OH225641   1.301   1.292  12.747  0.3124 -0.0830  0.4831
 1409TIP3    H125642   1.282   1.373  12.699  0.1024  1.2477  2.6640
 1409TIP3    H225643   1.392   1.301  12.775  0.6412 -1.1425 -0.1990
 1410TIP3   OH225644   4.170   2.747   5.070 -0.5213  0.0067  0.7000
 1410TIP3    H125645   4.142   2.697   5.147 -0.4627  0.6094  1.1130
 1410TIP3    H225646   4.263   2.765   5.085 -0.0310 -1.4313 -0.3697
 1411TIP3   OH225647   3.425   3.694  15.940  0.0131 -0.1874 -0.0660
 1411TIP3    H125648   3.330   3.690  15.952 -0.0681 -0.9638 -0.8640
 1411TIP3    H225649   3.438   3.763  15.875 -0.1970 -1.5286 -1.5876
 1412TIP3   OH225650   5.669   3.375   4.906  0.1887 -0.6384 -0.3535
 1412TIP3    H125651   5.738   3.409   4.963  1.1410 -0.1446 -1.7390
 1412TIP3    H225652   5.630   3.453   4.867 -1.1830 -0.9173  0.4209
 1413TIP3   OH225653   4.071   5.818  12.171 -0.2353 -0.1174 -0.4919
 1413TIP3    H125654   4.050   5.753  12.105  1.1259  0.1031 -1.1755
 1413TIP3    H225655   4.130   5.774  12.232 -0.1111  0.1855 -0.3875
 1414TIP3   OH225656   1.538   0.696  16.117 -0.3352 -0.0686  0.1685
 1414TIP3    H125657   1.476   0.687  16.044 -1.4599  0.4387  1.0334
 1414TIP3    H225658   1.492   0.658  16.192 -0.1263  1.4643  1.1119
 1415TIP3   OH225659   4.023   3.676  14.440  0.4041 -0.0186  0.2810
 1415TIP3    H125660   4.069   3.700  14.359  0.9381  0.7934  0.8151
 1415TIP3    H225661   3.982   3.757  14.470 -2.3778 -0.9234 -0.7602
 1416TIP3   OH225662   1.370   4.494   6.046 -0.4297 -0.4298 -0.1083
 1416TIP3    H125663   1.390   4.425   6.109  0.3173  0.0349  0.1818
 1416TIP3    H225664   1.411   4.572   6.082  0.0695 -0.1656 -1.1972
 1417TIP3   OH225665   2.380   5.919  16.844  1.0686  0.0699 -0.2489
 1417TIP3    H125666   2.457   5.929  16.899  1.0179 -2.8056  0.5259
 1417TIP3    H225667   2.319   5.868  16.898 -0.4005  0.1640 -1.7338
 1418TIP3   OH225668   1.577   6.209   5.980  0.1678  0.2680  0.0688
 1418TIP3    H125669   1.583   6.133   6.037  1.9961 -1.0859 -1.7921
 1418TIP3    H225670   1.500   6.192   5.925  0.5408 -0.2257 -0.3055
 1419TIP3   OH225671   0.095   3.306   5.082  0.3353 -0.7427 -0.4552
 1419TIP3    H125672   0.063   3.310   5.172 -0.8662  0.8561 -0.9089
 1419TIP3    H225673   0.136   3.391   5.068 -0.1046 -0.7109 -1.6197
 1420TIP3   OH225674   0.621   5.345   1.236 -1.2373 -0.3446  0.1863
 1420TIP3    H125675   0.651   5.410   1.299 -1.3753 -0.5876  0.5068
 1420TIP3    H225676   0.701   5.300   1.208 -1.1252  0.0653 -0.1521
 1421TIP3   OH225677   2.933   0.018  12.927 -0.3788  0.4929 -0.0330
 1421TIP3    H125678   2.957  -0.073  12.914 -1.3191  0.1675  0.4108
 1421TIP3    H225679   2.950   0.060  12.843  1.8657  0.3538  0.2841
 1422TIP3   OH225680   0.663   3.374   3.665  0.2044 -0.3035 -0.1919
 1422TIP3    H125681   0.695   3.461   3.690 -0.5363 -0.7966  2.9159
 1422TIP3    H225682   0.737   3.316   3.680 -0.4308 -0.6956  1.6516
 1423TIP3   OH225683   5.415   4.816   5.649 -0.3756  0.4470 -0.1099
 1423TIP3    H125684   5.365   4.735   5.666  1.1423 -0.3195  0.9752
 1423TIP3    H225685   5.394   4.872   5.724  0.6343 -0.0239  0.5449
 1424TIP3   OH225686   1.682   6.157  11.730 -0.6875 -0.5416  0.0007
 1424TIP3    H125687   1.738   6.082  11.713  1.7375  0.5677  2.3384
 1424TIP3    H225688   1.704   6.220  11.661  2.5340  0.5668  1.7984
 1425TIP3   OH225689   2.423   1.156  14.620  0.4742 -0.6240 -0.2197
 1425TIP3    H125690   2.433   1.162  14.715  0.3556 -1.7029 -0.1270
 1425TIP3    H225691   2.505   1.190  14.585  1.4230 -2.1961  0.3414
 1426TIP3   OH225692   6.105   6.599   4.134  0.2975  0.2371 -0.1009
 1426TIP3    H125693   6.063   6.516   4.159  0.1742 -0.0617 -1.2390
 1426TIP3    H225694   6.198   6.579   4.133  0.2725  0.1220 -0.3056
 1427TIP3   OH225695   6.171   2.319  16.460  0.2713 -0.3159  0.8649
 1427TIP3    H125696   6.090   2.351  16.501  0.3563 -0.0186  0.8011
 1427TIP3    H225697   6.155   2.325  16.366 -0.9777 -3.5897  0.7417
 1428TIP3   OH225698   4.559   0.155  12.899 -0.2458  0.0151  0.0417
 1428TIP3    H125699   4.621   0.218  12.861  0.7658 -1.2242 -0.4177
 1428TIP3    H225700   4.480   0.207  12.915  1.0547  1.7989  1.1737
 1429TIP3   OH225701   3.060   5.719   3.429  0.5439 -0.0276  0.1583
 1429TIP3    H125702   3.017   5.635   3.440  0.1013  0.5050  3.5707
 1429TIP3    H225703   3.151   5.698   3.408  0.1522 -1.2834 -0.3491
 1430TIP3   OH225704   5.995   5.394   6.383  0.2771 -0.3268 -0.0534
 1430TIP3    H125705   6.085   5.418   6.362  0.0425  0.3363 -0.3370
 1430TIP3    H225706   5.963   5.466   6.438 -0.7306  0.5038 -1.6527
 1431TIP3   OH225707   3.300   4.137  11.655  0.4838 -0.5797 -0.0594
 1431TIP3    H125708   3.301   4.226  11.621  0.3786 -0.4254  0.3350
 1431TIP3    H225709   3.219   4.099  11.622 -0.4233  0.0810  1.2964
 1432TIP3   OH225710   3.739   2.652  12.435  1.0103 -0.0822 -0.0978
 1432TIP3    H125711   3.739   2.578  12.375  1.0832  0.7901 -1.2086
 1432TIP3    H225712   3.747   2.729  12.378 -3.0251  1.0910  0.6409
 1433TIP3   OH225713   2.523   1.309  13.410 -0.7956  0.1143  0.3310
 1433TIP3    H125714   2.560   1.396  13.393  1.6330 -0.5538  1.7706
 1433TIP3    H225715   2.564   1.252  13.346 -0.7946 -0.3313  0.7261
 1434TIP3   OH225716   5.476   3.060   3.240 -0.2035  0.0159 -0.0762
 1434TIP3    H125717   5.424   3.075   3.161  1.5663 -0.6572 -1.4372
 1434TIP3    H225718   5.567   3.055   3.209  0.3532 -2.8235  1.6017
 1435TIP3   OH225719   0.121   0.547   3.359  0.3509 -0.6226  0.7704
 1435TIP3    H125720   0.150   0.610   3.293  1.3802 -1.2808  0.5841
 1435TIP3    H225721   0.079   0.600   3.427 -0.2002  0.1118 -0.1276
 1436TIP3   OH225722   1.965   5.215  14.573  0.6415 -0.1774 -0.5371
 1436TIP3    H125723   1.928   5.262  14.648  0.0642 -0.1486 -0.8428
 1436TIP3    H225724   1.899   5.151  14.550  0.5770  0.1951 -1.3923
 1437TIP3   OH225725   2.653   3.986   0.993 -0.0678  0.0967  0.1798
 1437TIP3    H125726   2.561   3.984   0.966  0.0102  1.3215 -0.2214
 1437TIP3    H225727   2.650   3.977   1.088 -0.5749 -0.1525  0.1451
 1438TIP3   OH225728   4.895   1.764   4.876  0.8242  0.3619  0.0231
 1438TIP3    H125729   4.967   1.825   4.888  0.8737  0.6540 -1.6491
 1438TIP3    H225730   4.883   1.758   4.782 -0.3478 -0.8537  0.2171
 1439TIP3   OH225731   5.590   4.074  13.970  0.4106  0.3553 -0.0230
 1439TIP3    H125732   5.559   3.988  13.942 -1.2383  0.7789  0.3956
 1439TIP3    H225733   5.634   4.058  14.053 -0.5072 -0.0112  0.4112
 1440TIP3   OH225734   4.496   6.813   2.892 -0.1540  0.3390 -1.0391
 1440TIP3    H125735   4.448   6.788   2.971  0.5965  2.3457  0.1337
 1440TIP3    H225736   4.558   6.742   2.878 -1.8523 -1.1728 -1.2264
 1441TIP3   OH225737   3.470   5.227   5.402 -0.3092 -0.1437  0.0421
 1441TIP3    H125738   3.395   5.207   5.458  1.0199 -2.3820  1.1469
 1441TIP3    H225739   3.546   5.198   5.452  1.2818  1.3419 -1.3623
 1442TIP3   OH225740   5.190   3.364  12.668  0.3138 -0.9024 -0.0371
 1442TIP3    H125741   5.237   3.303  12.724  1.3018  0.5689  0.8145
 1442TIP3    H225742   5.128   3.408  12.726 -0.1669 -0.8647 -0.5615
 1443TIP3   OH225743   6.215   2.910   2.890  0.5002  0.5502 -0.0208
 1443TIP3    H125744   6.308   2.888   2.893  0.8441  1.9569  0.6835
 1443TIP3    H225745   6.184   2.874   2.807  1.7565  0.3767 -0.4366
 1444TIP3   OH225746   2.106   1.048   1.821  0.2432 -0.3263 -0.2438
 1444TIP3    H125747   2.182   1.004   1.859 -0.1143 -0.6153  0.1517
 1444TIP3    H225748   2.132   1.140   1.815  1.0352 -0.5969 -1.1695
 1445TIP3   OH225749   4.492   3.458  13.965  0.5771  0.5947 -0.3395
 1445TIP3    H125750   4.550   3.492  13.897  0.4561  2.8598  0.5832
 1445TIP3    H225751   4.532   3.375  13.992  2.3314  1.1622 -1.0496
 1446TIP3   OH225752   5.191   2.579  16.261 -0.1538 -0.8457 -0.1086
 1446TIP3    H125753   5.184   2.640  16.188 -1.2423 -1.6196 -0.6813
 1446TIP3    H225754   5.222   2.497  16.222  1.0860 -0.7554  0.6107
 1447TIP3   OH225755   5.331   4.148   0.065 -0.1338 -0.4404  0.2723
 1447TIP3    H125756   5.288   4.202  -0.001 -0.6165 -0.3010  0.6997
 1447TIP3    H225757   5.394   4.207   0.107  0.3506 -0.5936 -0.2202
 1448TIP3   OH225758   2.670   3.321   5.855  0.0296 -0.1740 -0.0131
 1448TIP3    H125759   2.636   3.238   5.822  0.1739 -0.4811  0.5961
 1448TIP3    H225760   2.653   3.319   5.949  0.4542  0.2779  0.0804
 1449TIP3   OH225761   3.821   4.657  14.454  0.4989  0.1985  0.2282
 1449TIP3    H125762   3.861   4.743  14.450 -0.0416  0.4273 -0.7810
 1449TIP3    H225763   3.889   4.597  14.421  0.2402  0.4984 -0.8765
 1450TIP3   OH225764   2.294   1.643   4.510  0.2110 -0.5171  0.4606
 1450TIP3    H125765   2.304   1.550   4.488 -0.9356 -0.4224 -0.5999
 1450TIP3    H225766   2.313   1.689   4.428 -0.8612  0.0659  0.5149
 1451TIP3   OH225767   1.600   2.598  15.386  0.1469 -0.2728 -0.5154
 1451TIP3    H125768   1.626   2.515  15.346 -0.9902 -0.2586 -1.3653
 1451TIP3    H225769   1.561   2.648  15.313  0.8805  1.0357 -0.0360
 1452TIP3   OH225770   1.745   3.651   1.352  0.6964  0.0899 -0.1239
 1452TIP3    H125771   1.790   3.659   1.436 -0.6478 -2.7891  1.0232
 1452TIP3    H225772   1.814   3.624   1.291  1.0576 -2.1322  1.1243
 1453TIP3   OH225773   0.788   4.035  12.533 -0.2905  0.2214  0.4153
 1453TIP3    H125774   0.713   3.997  12.486 -0.2432 -1.8036  1.8305
 1453TIP3    H225775   0.830   4.093  12.469 -3.3600  1.9296 -0.2647
 1454TIP3   OH225776   5.661   5.428   4.857 -0.4294  0.1279  0.4560
 1454TIP3    H125777   5.696   5.349   4.816 -0.9200  0.6498 -1.0769
 1454TIP3    H225778   5.699   5.500   4.806  0.3137  0.9212  2.0619
 1455TIP3   OH225779   4.421   6.716   3.700 -0.0042 -0.0052 -0.3995
 1455TIP3    H125780   4.455   6.776   3.767 -0.1294  0.5999 -0.8759
 1455TIP3    H225781   4.417   6.632   3.745 -0.3934  0.4571  0.4618
 1456TIP3   OH225782   4.915   0.671   2.385  0.2643 -0.2736  0.1327
 1456TIP3    H125783   4.861   0.703   2.313  0.0913  1.0556  0.8106
 1456TIP3    H225784   4.983   0.738   2.395  0.6753 -0.7801  0.7652
 1457TIP3   OH225785   5.709   3.505  12.736  0.2676  0.1797 -0.1944
 1457TIP3    H125786   5.792   3.540  12.702  1.1519 -0.5166  1.1435
 1457TIP3    H225787   5.709   3.413  12.710  0.2247  0.0265  0.3310
 1458TIP3   OH225788   4.927   0.484  11.361  0.6834 -0.1128  0.5855
 1458TIP3    H125789   4.918   0.480  11.456  4.6405 -0.0275  1.1663
 1458TIP3    H225790   5.014   0.447  11.344  0.0304 -0.3906 -3.0682
 1459TIP3   OH225791   6.423   2.200  16.397  0.3470 -0.0497  0.3952
 1459TIP3    H125792   6.330   2.206  16.421  0.6309  0.4209  1.4395
 1459TIP3    H225793   6.431   2.116  16.352 -0.8385  0.4868 -0.9046
 1460TIP3   OH225794   5.516   2.383  16.962 -0.2542  0.1171  0.2654
 1460TIP3    H125795   5.555   2.467  16.985  2.7055 -1.2729  0.7864
 1460TIP3    H225796   5.471   2.399  16.878 -0.3963  2.3257  0.7180
 1461TIP3   OH225797   6.756   2.921   1.243  0.3088  0.4284 -0.2709
 1461TIP3    H125798   6.814   2.996   1.257 -0.0007  0.5852  0.1961
 1461TIP3    H225799   6.684   2.956   1.189 -0.3339  0.7194  0.7500
 1462TIP3   OH225800   2.023   6.225  12.195 -0.0966  0.5723  0.2561
 1462TIP3    H125801   2.057   6.253  12.280 -0.8673 -0.4301  0.9256
 1462TIP3    H225802   2.049   6.132  12.189 -1.3861  0.2051  0.1076
 1463TIP3   OH225803   6.242   3.258   0.861  0.2502 -0.2012  0.0723
 1463TIP3    H125804   6.268   3.317   0.790  3.0508 -0.3918  0.8196
 1463TIP3    H225805   6.187   3.193   0.819  2.1036 -0.5335 -2.0588
 1464TIP3   OH225806   4.710   4.395   4.236 -0.2330  0.0986 -0.1233
 1464TIP3    H125807   4.756   4.315   4.209 -0.1014  0.2024 -0.2097
 1464TIP3    H225808   4.659   4.420   4.159  0.2445  0.4684 -0.3280
 1465TIP3   OH225809   0.472   6.338  12.238  0.8040 -0.1949  0.0467
 1465TIP3    H125810   0.387   6.382  12.239  0.8339 -0.1124 -0.5401
 1465TIP3    H225811   0.462   6.267  12.174  1.2813  0.0482 -0.3074
 1466TIP3   OH225812   6.153   1.167   3.489  0.2528  0.2756 -0.1682
 1466TIP3    H125813   6.062   1.191   3.504 -0.1842 -0.8642 -0.8792
 1466TIP3    H225814   6.162   1.080   3.526  1.2351  0.6336  0.4597
 1467TIP3   OH225815   5.527   2.111   0.726  0.5534 -0.3254 -0.4061
 1467TIP3    H125816   5.455   2.127   0.665 -1.1081 -2.6145  0.8415
 1467TIP3    H225817   5.586   2.052   0.678  0.1238 -0.7493 -0.4186
 1468TIP3   OH225818   0.410   1.403   5.008  0.1771 -0.7163  0.4929
 1468TIP3    H125819   0.426   1.439   4.920  1.0147 -2.4733 -0.1178
 1468TIP3    H225820   0.329   1.354   5.000  0.0419 -0.5514  0.8219
 1469TIP3   OH225821   5.213   2.564   0.007 -0.1376  0.4259 -0.1535
 1469TIP3    H125822   5.164   2.605  -0.065 -0.5302  0.6045  0.2071
 1469TIP3    H225823   5.145   2.532   0.066  0.1818  0.1945  0.0915
 1470TIP3   OH225824   5.066   1.807   4.209 -0.1657 -0.2455  0.5952
 1470TIP3    H125825   5.063   1.741   4.278  2.1863 -0.1512  0.8654
 1470TIP3    H225826   5.159   1.829   4.201 -0.6947  1.7455 -0.7152
 1471TIP3   OH225827   1.285   0.867   3.269  0.3922  0.0141 -0.3334
 1471TIP3    H125828   1.226   0.939   3.291 -0.4524 -1.2314  1.8452
 1471TIP3    H225829   1.231   0.809   3.215 -0.0818 -0.5875  0.7442
 1472TIP3   OH225830   0.282   2.870  14.088  0.0385 -0.0282 -0.2323
 1472TIP3    H125831   0.278   2.964  14.109  1.0277  0.1050 -0.5693
 1472TIP3    H225832   0.205   2.833  14.131  1.2538  0.4283  2.6455
 1473TIP3   OH225833   1.410   6.545   5.919  0.2775  0.6048 -0.5400
 1473TIP3    H125834   1.503   6.536   5.900  0.4108  1.6889 -0.4728
 1473TIP3    H225835   1.403   6.526   6.013  0.3441 -0.0092 -0.6565
 1474TIP3   OH225836   6.789   0.337  15.659 -0.2099  0.0636  0.3197
 1474TIP3    H125837   6.747   0.251  15.667  1.0063 -0.8437 -2.1104
 1474TIP3    H225838   6.740   0.381  15.589  1.3484 -0.0699 -0.8828
 1475TIP3   OH225839   2.055   4.687  13.594 -0.2924  0.2616  0.1234
 1475TIP3    H125840   2.036   4.677  13.501  0.3004 -0.4507  0.0711
 1475TIP3    H225841   1.978   4.731  13.630  0.1048  1.9773 -0.9757
 1476TIP3   OH225842   4.043   2.259  16.534  0.6011  0.0571  0.5010
 1476TIP3    H125843   4.023   2.277  16.626 -1.7675 -1.5008  0.3778
 1476TIP3    H225844   3.958   2.266  16.489  1.8234  1.5726 -1.7539
 1477TIP3   OH225845   5.685   0.185   3.071  0.2084 -0.2613 -0.1896
 1477TIP3    H125846   5.677   0.263   3.015  0.5293 -0.1472 -0.0803
 1477TIP3    H225847   5.600   0.178   3.114  0.5814  0.7742  0.7624
 1478TIP3   OH225848   5.965   4.748   2.312  0.1042  0.3955 -0.0774
 1478TIP3    H125849   6.003   4.709   2.233  2.3425  1.1272  0.5442
 1478TIP3    H225850   5.883   4.788   2.282  0.8554  0.6073 -2.0288
 1479TIP3   OH225851   4.008   3.984  13.506 -0.1273  0.6659  0.3408
 1479TIP3    H125852   3.976   4.029  13.428 -0.0733 -0.5654 -0.4093
 1479TIP3    H225853   4.065   4.048  13.549  1.6058  0.6716 -1.7868
 1480TIP3   OH225854   0.058   2.484   0.981 -0.4562  0.0689  0.4042
 1480TIP3    H125855   0.143   2.506   1.018  0.9720 -0.8758 -2.0207
 1480TIP3    H225856   0.029   2.564   0.937  0.4552 -0.2548 -0.8715
 1481TIP3   OH225857   2.071   3.238   0.089  0.4652 -0.7139 -0.0683
 1481TIP3    H125858   2.161   3.209   0.101  0.4088 -1.3819 -1.0938
 1481TIP3    H225859   2.071   3.330   0.113  0.8295 -1.3354  2.5569
 1482TIP3   OH225860   2.830   6.551  13.244  0.2058 -0.2652 -0.6291
 1482TIP3    H125861   2.890   6.544  13.169  1.0713  0.4737 -0.0312
 1482TIP3    H225862   2.815   6.461  13.271  2.0994 -0.4403  0.0021
 1483TIP3   OH225863   3.880   0.143   5.632 -0.3969 -0.5643 -0.2528
 1483TIP3    H125864   3.871   0.128   5.726  0.0721 -0.0973 -0.1276
 1483TIP3    H225865   3.967   0.110   5.611  0.7726  2.0676  0.0848
 1484TIP3   OH225866   3.032   1.254   4.732 -0.0893 -0.3878  0.2470
 1484TIP3    H125867   3.048   1.268   4.826 -0.0956  0.9655  0.0679
 1484TIP3    H225868   2.990   1.169   4.727 -0.3505 -0.3524  1.5092
 1485TIP3   OH225869   4.904   5.494  12.088  0.8080  0.0196  0.2365
 1485TIP3    H125870   4.946   5.422  12.041  1.3525  0.7010 -0.3376
 1485TIP3    H225871   4.858   5.543  12.020 -0.3407 -0.3018  0.7592
 1486TIP3   OH225872   0.500   6.386   5.170 -0.6690 -0.0107  0.8916
 1486TIP3    H125873   0.447   6.388   5.249 -2.4435  0.8185 -0.2447
 1486TIP3    H225874   0.581   6.430   5.194 -2.1873  2.5811  1.6013
 1487TIP3   OH225875   4.147   2.646  16.181 -1.1011  0.5558 -0.3146
 1487TIP3    H125876   4.193   2.680  16.104  0.0673 -0.2381 -0.0009
 1487TIP3    H225877   4.173   2.554  16.187 -0.1017  0.8995  1.7450
 1488TIP3   OH225878   6.000   5.125  11.608  0.2298  0.9359  0.0484
 1488TIP3    H125879   6.086   5.121  11.650 -1.4914 -0.3913  3.9570
 1488TIP3    H225880   6.000   5.209  11.563  2.9034  1.9102  1.5816
 1489TIP3   OH225881   0.612   3.182   1.823 -1.2168 -0.4382 -0.0169
 1489TIP3    H125882   0.678   3.119   1.854 -0.9348 -0.7267 -1.1346
 1489TIP3    H225883   0.602   3.161   1.730 -1.7143  0.6540 -0.2219
 1490TIP3   OH225884   1.841   1.117  14.400 -0.0458 -0.1001 -0.4957
 1490TIP3    H125885   1.753   1.130  14.364  0.4363  0.4548 -1.5159
 1490TIP3    H225886   1.874   1.206  14.413  0.7807 -0.3036 -1.1762
 1491TIP3   OH225887   6.023   5.565  11.241 -0.2014 -0.2282  0.0313
 1491TIP3    H125888   5.939   5.602  11.268  0.4163  0.7792  0.6459
 1491TIP3    H225889   6.049   5.616  11.164 -0.8650 -1.5695 -1.1273
 1492TIP3   OH225890   0.744   5.050   5.506  0.2003 -0.3562  0.4354
 1492TIP3    H125891   0.831   5.090   5.503  0.8057 -1.6764 -1.9407
 1492TIP3    H225892   0.759   4.965   5.547  0.1768 -0.8642 -0.5940
 1493TIP3   OH225893   2.586   6.808  12.531  0.4871 -0.1402  0.2888
 1493TIP3    H125894   2.603   6.899  12.557 -1.2327 -0.0805  1.4156
 1493TIP3    H225895   2.548   6.814  12.444 -0.2772  0.3270  0.6362
 1494TIP3   OH225896   5.392   1.863   5.616 -0.9103  0.4376 -0.2517
 1494TIP3    H125897   5.300   1.877   5.640 -1.3079  0.9226 -1.9063
 1494TIP3    H225898   5.391   1.779   5.570 -1.1476  1.7900 -2.9450
 1495TIP3   OH225899   5.892   5.795  13.942  0.1068 -0.4373 -0.4857
 1495TIP3    H125900   5.835   5.867  13.917 -0.6000 -1.5224 -2.1667
 1495TIP3    H225901   5.930   5.765  13.859  4.0251  0.9060  0.6061
 1496TIP3   OH225902   4.963   4.028  12.786  0.2462  0.0801  0.1730
 1496TIP3    H125903   4.916   4.059  12.708  1.4155 -0.4863 -0.7990
 1496TIP3    H225904   4.996   3.942  12.760 -0.4052 -0.6757  1.7594
 1497TIP3   OH225905   5.604   0.532   1.767  0.2530  0.2093  0.5957
 1497TIP3    H125906   5.675   0.486   1.812 -1.7813 -1.3418  2.4276
 1497TIP3    H225907   5.531   0.529   1.828 -1.1948  2.4781 -0.8701
 1498TIP3   OH225908   1.035   5.592   3.132 -0.0950 -0.8464  0.2755
 1498TIP3    H125909   1.061   5.682   3.112  0.0063 -0.8734  0.2856
 1498TIP3    H225910   1.039   5.586   3.227  1.6500 -1.3862  0.1914
 1499TIP3   OH225911   1.130   4.574  13.061  0.3984 -0.1247 -0.4942
 1499TIP3    H125912   1.211   4.526  13.047  0.3489 -0.6792  0.9352
 1499TIP3    H225913   1.062   4.518  13.023  0.7252  0.7428 -2.4842
 1500TIP3   OH225914   0.276   0.080   5.331  0.1803  0.2729  0.7487
 1500TIP3    H125915   0.350   0.140   5.330  0.7057 -0.3245  1.8545
 1500TIP3    H225916   0.278   0.040   5.418 -1.7552  0.6156  0.9979
 1501TIP3   OH225917   3.059   5.178   2.137 -0.2464 -0.0027 -0.1209
 1501TIP3    H125918   3.083   5.259   2.182 -2.4598  0.3854  0.4414
 1501TIP3    H225919   3.050   5.113   2.207 -0.7733 -0.1511 -0.3264
 1502TIP3   OH225920   6.200   1.997  14.807  0.3456  0.1355 -0.8940
 1502TIP3    H125921   6.216   1.918  14.756  2.0433  0.3562 -0.7453
 1502TIP3    H225922   6.104   2.000  14.817  0.1762 -1.2924 -1.8273
 1503TIP3   OH225923   3.734   2.053  14.840  0.1378 -0.0611  0.5319
 1503TIP3    H125924   3.736   2.086  14.750  3.1425  0.9944  0.8781
 1503TIP3    H225925   3.747   1.959  14.832 -0.9771 -0.1850 -0.1389
 1504TIP3   OH225926   4.173   5.275   0.603 -0.4593  0.1817 -0.4082
 1504TIP3    H125927   4.174   5.321   0.519 -2.0310 -0.5328 -0.8679
 1504TIP3    H225928   4.090   5.227   0.603  1.1102 -2.7851 -0.0628
 1505TIP3   OH225929   1.649   1.145  17.086 -0.2795  0.2342 -0.3541
 1505TIP3    H125930   1.605   1.146  17.001 -0.2279  1.6371 -0.3756
 1505TIP3    H225931   1.586   1.185  17.146  0.7527  1.8751 -0.3021
 1506TIP3   OH225932   5.238   6.003   2.713  0.2656 -0.4220 -0.7583
 1506TIP3    H125933   5.242   5.947   2.790 -0.7071  0.3693 -0.1189
 1506TIP3    H225934   5.201   5.947   2.645 -1.8802 -0.2630  0.2020
 1507TIP3   OH225935   3.026   1.111  11.723  0.2394 -0.2720  0.2702
 1507TIP3    H125936   2.991   1.114  11.812  0.6703 -0.7911  0.4572
 1507TIP3    H225937   3.077   1.192  11.715  2.1761 -1.3171  1.3258
 1508TIP3   OH225938   4.760   1.140   0.153 -0.9938 -0.0157 -0.1946
 1508TIP3    H125939   4.689   1.193   0.115 -0.2023  0.9263 -0.3866
 1508TIP3    H225940   4.723   1.051   0.158 -2.4742  0.6004  0.4711
 1509TIP3   OH225941   4.396   3.811   2.259  0.0937  0.3019 -0.4385
 1509TIP3    H125942   4.363   3.862   2.333 -0.1807 -0.7195  0.1577
 1509TIP3    H225943   4.480   3.777   2.288  1.2152  1.9689 -1.5498
 1510TIP3   OH225944   3.630   3.833   1.700  0.0197  0.3217 -0.2937
 1510TIP3    H125945   3.658   3.791   1.619 -0.4470  3.0823 -2.0223
 1510TIP3    H225946   3.624   3.926   1.678 -0.8962  1.0912  2.7189
 1511TIP3   OH225947   2.244   1.115   4.300 -0.0806 -0.0514  0.3094
 1511TIP3    H125948   2.194   1.033   4.310 -1.5851  0.9978  2.0992
 1511TIP3    H225949   2.228   1.142   4.210 -0.2826 -1.2739 -0.0428
 1512TIP3   OH225950   0.290   2.081   2.248 -0.2336  0.2742  0.4261
 1512TIP3    H125951   0.344   2.018   2.295  1.3368  1.0641 -0.2621
 1512TIP3    H225952   0.227   2.111   2.313 -0.1570 -0.9899  1.1289
 1513TIP3   OH225953   1.164   0.123  11.455 -0.6362  0.3790  0.0093
 1513TIP3    H125954   1.105   0.168  11.395 -1.8146  0.2221  1.0265
 1513TIP3    H225955   1.221   0.192  11.489  0.8070  0.3211 -2.0557
 1514TIP3   OH225956   4.926   2.763   4.139 -0.3646  0.4901 -0.3408
 1514TIP3    H125957   4.971   2.736   4.219  0.1601 -0.1900 -0.8585
 1514TIP3    H225958   4.983   2.830   4.101  0.5007 -0.7502 -1.2723
 1515TIP3   OH225959   4.303   5.139   0.349  0.7143  0.0009 -0.2851
 1515TIP3    H125960   4.216   5.100   0.356  1.1183 -0.7205  1.0405
 1515TIP3    H225961   4.323   5.136   0.255  0.3106 -2.0903 -0.3494
 1516TIP3   OH225962   3.545   5.843   1.300  0.7162 -0.2695 -0.2803
 1516TIP3    H125963   3.587   5.918   1.258 -1.5517  0.8363 -0.7205
 1516TIP3    H225964   3.569   5.851   1.392  0.5591  0.9890 -0.3286
 1517TIP3   OH225965   0.104   6.763  14.260 -0.0704 -0.1083  0.2022
 1517TIP3    H125966   0.041   6.830  14.234 -0.5077 -0.6566 -0.1682
 1517TIP3    H225967   0.095   6.695  14.194  0.4163 -0.5072  0.5425
 1518TIP3   OH225968   6.265   6.054   4.443  0.6175  0.3065  0.0867
 1518TIP3    H125969   6.219   6.089   4.519  0.2429  1.9805 -0.8385
 1518TIP3    H225970   6.354   6.089   4.450 -0.2419  3.2101 -1.7978
 1519TIP3   OH225971   5.831   0.714  11.878  0.1995 -0.4434 -0.5968
 1519TIP3    H125972   5.736   0.701  11.877 -0.1172  1.3849 -2.1797
 1519TIP3    H225973   5.843   0.799  11.921  1.0703 -0.4763 -0.7603
 1520TIP3   OH225974   2.071   3.215   1.256 -0.2142 -0.0513  0.5162
 1520TIP3    H125975   2.016   3.144   1.224 -0.1476  0.7627 -1.5610
 1520TIP3    H225976   2.161   3.183   1.248 -0.2057  0.0920  0.0249
 1521TIP3   OH225977   6.314   3.713   3.774 -0.0459  0.4490  0.1835
 1521TIP3    H125978   6.384   3.777   3.763 -0.3122  0.9899  1.4756
 1521TIP3    H225979   6.297   3.712   3.868 -1.1150 -0.3756 -0.0013
 1522TIP3   OH225980   2.017   1.377  14.407 -0.0983 -0.5563 -0.3159
 1522TIP3    H125981   2.081   1.343  14.471 -0.5710 -0.3331  0.2889
 1522TIP3    H225982   1.975   1.450  14.453 -2.7772 -2.4014  0.4076
 1523TIP3   OH225983   2.653   5.334  13.518 -0.6748  0.9470  0.3840
 1523TIP3    H125984   2.694   5.373  13.595  0.5757  1.1078 -0.3280
 1523TIP3    H225985   2.718   5.347  13.448 -1.7546  0.7631 -0.6768
 1524TIP3   OH225986   2.159   6.788   2.029  0.0476 -0.0927 -0.0135
 1524TIP3    H125987   2.248   6.820   2.013  0.3400 -1.2372 -0.7956
 1524TIP3    H225988   2.143   6.807   2.121  1.2326 -0.1934  0.2333
 1525TIP3   OH225989   4.778   4.931  11.331  0.4678  0.5834  0.0435
 1525TIP3    H125990   4.688   4.957  11.352  0.5462  0.8676  0.0382
 1525TIP3    H225991   4.830   4.970  11.401  0.6884  1.1982 -0.4576
 1526TIP3   OH225992   5.644   2.872  16.272 -0.7985 -0.7922  0.6759
 1526TIP3    H125993   5.649   2.821  16.353 -1.9723  1.1399  2.0497
 1526TIP3    H225994   5.611   2.957  16.299  1.5394  0.9369 -1.4191
 1527TIP3   OH225995   6.186   5.247   2.016 -0.0771  0.2471  0.1151
 1527TIP3    H125996   6.182   5.195   1.936 -1.4612  1.3435 -0.5563
 1527TIP3    H225997   6.222   5.186   2.081  0.8518 -0.7322 -1.2499
 1528TIP3   OH225998   0.057   2.350  13.383 -0.7432  0.2042 -0.4498
 1528TIP3    H125999   0.108   2.407  13.440 -0.8688  0.6684 -0.7968
 1528TIP3    H226000   0.109   2.341  13.303 -0.4831 -0.5905 -0.2045
 1529TIP3   OH226001   5.142   1.451   3.468 -0.1710 -0.1608  0.0498
 1529TIP3    H126002   5.081   1.411   3.406 -1.6248  0.3881  1.0815
 1529TIP3    H226003   5.100   1.534   3.493  0.9126  0.1453  0.9225
 1530TIP3   OH226004   2.443   4.864   3.441  0.0635  1.0599  0.1326
 1530TIP3    H126005   2.480   4.777   3.458 -0.2257  1.3641  2.6191
 1530TIP3    H226006   2.489   4.894   3.362  3.0295  0.2080  1.3861
 1531TIP3   OH226007   3.915   3.008   4.486  0.4262  0.2112  0.3333
 1531TIP3    H126008   3.876   2.967   4.409 -1.6980 -1.7727  2.3413
 1531TIP3    H226009   4.006   3.025   4.460  0.0642 -1.2889 -2.2617
 1532TIP3   OH226010   2.027   3.960  13.667  0.0039  0.4487 -0.2647
 1532TIP3    H126011   1.994   3.904  13.597  0.0148 -0.2368  0.2720
 1532TIP3    H226012   2.119   3.974  13.643  1.3732 -3.4556  1.8068
 1533TIP3   OH226013   4.847   2.273  12.623  0.8186 -0.6031  0.1398
 1533TIP3    H126014   4.821   2.284  12.531  0.3545 -2.2602  0.0330
 1533TIP3    H226015   4.766   2.246  12.667  1.0106  0.3230  1.0682
 1534TIP3   OH226016   3.903   0.151   5.068 -0.1759  0.1787  0.0928
 1534TIP3    H126017   3.852   0.171   4.990 -1.2460  0.2609  0.7897
 1534TIP3    H226018   3.841   0.163   5.140  0.8722  0.3969  0.9728
 1535TIP3   OH226019   0.501   1.795  11.613 -0.1164  0.4343  0.1141
 1535TIP3    H126020   0.594   1.783  11.594 -0.1985  0.1151 -0.0822
 1535TIP3    H226021   0.500   1.830  11.702  0.2197  1.0394 -0.1083
 1536TIP3   OH226022   5.011   2.863   2.657 -0.6049  0.0992 -0.2258
 1536TIP3    H126023   4.947   2.865   2.729 -0.3942  1.3486 -0.0398
 1536TIP3    H226024   4.979   2.929   2.596  2.3037  3.4874  1.5483
 1537TIP3   OH226025   6.146   3.959  10.524 -0.2416 -0.1041  0.1779
 1537TIP3    H126026   6.165   4.051  10.502  2.8617 -0.5686  0.4273
 1537TIP3    H226027   6.192   3.909  10.456  0.5579 -1.4625  1.6459
 1538TIP3   OH226028   1.361   4.189  13.970  0.0056  0.1176  1.0250
 1538TIP3    H126029   1.444   4.203  13.924 -1.4164  0.1220 -1.7578
 1538TIP3    H226030   1.315   4.124  13.917 -2.4951  1.4209  1.4388
 1539TIP3   OH226031   5.411   5.495   0.947 -0.3568  0.3555  0.7632
 1539TIP3    H126032   5.490   5.452   0.979 -1.0099 -0.4833  1.2959
 1539TIP3    H226033   5.345   5.478   1.015 -1.2105  0.3051 -0.0541
 1540TIP3   OH226034   1.385   1.147  14.851  0.0430  0.1050 -0.1966
 1540TIP3    H126035   1.457   1.165  14.791  0.1439  1.1634  0.2100
 1540TIP3    H226036   1.402   1.203  14.927 -0.4622 -0.6660  0.5162
 1541TIP3   OH226037   1.216   2.527  14.245 -0.0861 -0.7583  0.2456
 1541TIP3    H126038   1.219   2.480  14.161  1.7082  0.3577 -0.3694
 1541TIP3    H226039   1.144   2.588  14.236 -0.9090 -1.7187  0.1406
 1542TIP3   OH226040   4.529   5.283  15.843 -0.1664 -0.0407  0.3355
 1542TIP3    H126041   4.485   5.220  15.786  0.5036 -1.1939  1.0514
 1542TIP3    H226042   4.598   5.321  15.788 -1.4334  1.1313 -0.5208
 1543TIP3   OH226043   3.831   1.141  16.968  0.0163  0.4594 -0.6846
 1543TIP3    H126044   3.882   1.105  16.895 -2.5653  0.2032 -2.4842
 1543TIP3    H226045   3.752   1.088  16.971 -1.1828  2.2121  0.5543
 1544TIP3   OH226046   3.502   5.108   3.238  0.0079  0.6737  0.4674
 1544TIP3    H126047   3.548   5.184   3.203 -2.6143  3.1857  2.0499
 1544TIP3    H226048   3.525   5.106   3.331 -0.2025 -0.3146  0.5125
 1545TIP3   OH226049   5.959   1.989   1.205  0.1654 -0.0035 -0.2790
 1545TIP3    H126050   5.869   1.977   1.236 -0.3322  1.2658 -1.1688
 1545TIP3    H226051   6.004   2.029   1.279 -0.1805  0.0016 -0.0673
 1546TIP3   OH226052   5.965   2.936  12.308 -0.2439  0.3658 -0.1741
 1546TIP3    H126053   5.956   3.030  12.321 -1.3264  0.0861  1.4657
 1546TIP3    H226054   5.881   2.909  12.270 -1.2291 -0.3312  2.3058
 1547TIP3   OH226055   5.381   6.463  17.108  0.3922  0.0267 -0.8975
 1547TIP3    H126056   5.385   6.518  17.186  3.1006 -0.3481 -0.6666
 1547TIP3    H226057   5.368   6.524  17.035  0.5177  0.6545 -0.4009
 1548TIP3   OH226058   6.817   4.852   6.513  0.0200  0.0955 -0.6042
 1548TIP3    H126059   6.785   4.942   6.505 -0.9436 -0.3447 -1.9400
 1548TIP3    H226060   6.902   4.853   6.469  0.7102  0.6693  0.6845
 1549TIP3   OH226061   2.048   1.002  14.684  0.7730 -0.3723  0.0957
 1549TIP3    H126062   2.090   0.952  14.754 -1.0404 -0.6366  1.0558
 1549TIP3    H226063   1.954   0.988  14.697  0.1561  3.0405  0.2051
 1550TIP3   OH226064   4.603   3.845  15.875 -0.0281  0.4530 -0.4787
 1550TIP3    H126065   4.538   3.832  15.945 -0.0501  2.8809  0.0491
 1550TIP3    H226066   4.569   3.794  15.801 -0.9074 -0.7975  0.7289
 1551TIP3   OH226067   6.128   4.090  16.898 -0.1042  0.3832 -0.3318
 1551TIP3    H126068   6.209   4.121  16.938 -0.0545 -0.9204  0.6370
 1551TIP3    H226069   6.149   4.003  16.865 -1.0745  0.0694 -0.1458
 1552TIP3   OH226070   3.405   6.238  15.807 -0.1619  0.2501  0.2768
 1552TIP3    H126071   3.376   6.162  15.859  0.8137  1.1668  2.2602
 1552TIP3    H226072   3.500   6.235  15.811 -0.1130  1.4898  0.2370
 1553TIP3   OH226073   4.283   6.568   0.130 -0.2207 -0.0779  0.5033
 1553TIP3    H126074   4.310   6.493   0.183 -0.9232  0.4738  1.6882
 1553TIP3    H226075   4.204   6.600   0.173 -2.1174 -0.8993 -2.1242
 1554TIP3   OH226076   5.274   2.686  11.289 -0.4926 -0.1986 -0.0601
 1554TIP3    H126077   5.201   2.691  11.350  0.3553  1.9190  0.8697
 1554TIP3    H226078   5.319   2.605  11.312 -0.1752  0.5646  2.2026
 1555TIP3   OH226079   1.406   3.518  12.407  0.2896 -0.4854 -0.2868
 1555TIP3    H126080   1.377   3.604  12.375  2.3098  0.7503  0.9451
 1555TIP3    H226081   1.328   3.480  12.447 -0.2780  1.6107  0.7635
 1556TIP3   OH226082   2.629   4.346  15.293  0.5271 -0.6244  0.2356
 1556TIP3    H126083   2.605   4.391  15.213  2.0877  2.1234  1.1680
 1556TIP3    H226084   2.721   4.323  15.282  0.5693 -0.8531  0.9556
 1557TIP3   OH226085   4.164   3.102   0.821  0.0227 -0.0930  0.2141
 1557TIP3    H126086   4.186   3.195   0.832 -0.3290  0.2018 -1.3730
 1557TIP3    H226087   4.247   3.059   0.802  0.2292 -0.1722  1.2260
 1558TIP3   OH226088   4.799   4.760  15.326  0.0553 -0.2150 -0.4526
 1558TIP3    H126089   4.800   4.835  15.268 -1.6058 -1.3203 -2.0149
 1558TIP3    H226090   4.732   4.781  15.391  0.6048  0.2385 -0.0227
 1559TIP3   OH226091   1.065   4.520  12.292  0.1381 -0.0827 -0.1010
 1559TIP3    H126092   1.047   4.527  12.198  4.6707 -1.4639 -1.3352
 1559TIP3    H226093   1.137   4.580  12.307  0.0589 -0.5081  2.3368
 1560TIP3   OH226094   2.311   3.893  13.110 -0.8967 -0.4094 -0.3799
 1560TIP3    H126095   2.368   3.836  13.058 -1.4297 -1.0729 -0.2403
 1560TIP3    H226096   2.253   3.934  13.045 -0.3813  0.1446 -0.5036
 1561TIP3   OH226097   6.664   0.529  16.924 -0.3502 -0.3866 -0.3140
 1561TIP3    H126098   6.588   0.587  16.925  0.4419  0.7261 -1.0998
 1561TIP3    H226099   6.711   0.552  16.843  1.7145  0.2251  0.9621
 1562TIP3   OH226100   1.210   2.431  13.174  0.1619  0.7270 -0.1727
 1562TIP3    H126101   1.224   2.517  13.213 -2.2395  1.5144 -0.8911
 1562TIP3    H226102   1.182   2.450  13.084 -0.1429 -0.8244 -0.4309
 1563TIP3   OH226103   1.057   5.944   2.880 -0.4775  0.1121  0.4654
 1563TIP3    H126104   1.101   5.888   2.945 -1.3928 -0.6993  0.4228
 1563TIP3    H226105   0.965   5.945   2.909 -0.5305  1.3415  0.2694
 1564TIP3   OH226106   3.991   5.393  11.793  0.0014  0.5082 -0.0373
 1564TIP3    H126107   3.900   5.395  11.764 -0.1904  2.4807  0.5661
 1564TIP3    H226108   4.017   5.485  11.797  1.6557  0.0349  0.9242
 1565TIP3   OH226109   1.406   2.853   1.645 -0.0838 -0.0247  0.2285
 1565TIP3    H126110   1.399   2.943   1.612  0.0078  0.5090  1.5655
 1565TIP3    H226111   1.320   2.814   1.628 -0.0214  0.2178 -0.6461
 1566TIP3   OH226112   4.266   2.345  13.835 -0.1428  0.0736  0.4803
 1566TIP3    H126113   4.192   2.299  13.795 -0.2468  0.6420 -0.0007
 1566TIP3    H226114   4.226   2.403  13.900 -0.0788  0.0212  0.5650
 1567TIP3   OH226115   2.920   6.391  15.961  0.4839  0.2917 -0.1513
 1567TIP3    H126116   2.929   6.423  15.871 -0.3116  1.0414  0.0261
 1567TIP3    H226117   2.909   6.469  16.014 -2.3341 -0.2396  0.1978
 1568TIP3   OH226118   6.113   1.819   1.728  0.1689 -0.1186 -0.1930
 1568TIP3    H126119   6.098   1.778   1.643 -1.2567 -0.1551  0.0499
 1568TIP3    H226120   6.208   1.825   1.736  0.3659 -1.8485 -0.9502
 1569TIP3   OH226121   5.859   6.618   2.698 -0.0878  0.1324  0.1780
 1569TIP3    H126122   5.865   6.692   2.758 -0.8846 -0.1121  0.5643
 1569TIP3    H226123   5.801   6.556   2.741 -0.5133 -0.1372 -0.7500
 1570TIP3   OH226124   3.580   3.861  12.741  0.3777 -0.0980  0.3140
 1570TIP3    H126125   3.529   3.793  12.784 -3.2807  1.9713 -0.3176
 1570TIP3    H226126   3.584   3.933  12.804  0.0901  0.8059 -0.6657
 1571TIP3   OH226127   4.854   0.395  11.114 -0.6050 -0.5993  0.6815
 1571TIP3    H126128   4.889   0.396  11.203 -1.5330 -1.5530  1.0798
 1571TIP3    H226129   4.759   0.397  11.126 -0.7459 -0.9929 -0.2814
 1572TIP3   OH226130   6.413   3.038  11.107 -0.0720  0.3401 -0.1272
 1572TIP3    H126131   6.470   3.114  11.094 -1.0797  1.0149 -0.7195
 1572TIP3    H226132   6.325   3.074  11.110 -0.5467 -0.7762 -0.1091
 1573TIP3   OH226133   3.491   1.930  15.293  0.0242 -0.1823 -0.2388
 1573TIP3    H126134   3.430   1.965  15.228 -0.6443  0.0324  0.4881
 1573TIP3    H226135   3.475   1.982  15.372  1.3430  0.0674 -0.0979
 1574TIP3   OH226136   5.209   1.029   3.793  0.2582 -0.7118 -0.3474
 1574TIP3    H126137   5.140   1.093   3.814  1.3232  0.5239 -0.4840
 1574TIP3    H226138   5.196   0.958   3.856  0.6314  0.8286  1.5619
 1575TIP3   OH226139   3.097   5.586  15.779  0.0403  0.1649 -0.0098
 1575TIP3    H126140   3.029   5.634  15.731  0.0682  0.3286  0.1123
 1575TIP3    H226141   3.049   5.527  15.836  0.0086 -0.5263 -0.7264
 1576TIP3   OH226142   4.430   4.168   3.953  0.3296  0.4368  0.6905
 1576TIP3    H126143   4.511   4.121   3.972  0.3203  1.0554  2.4203
 1576TIP3    H226144   4.361   4.114   3.991 -0.4980 -1.4927 -3.0578
 1577TIP3   OH226145   3.466   6.305   4.889 -0.0088 -0.0842 -0.1218
 1577TIP3    H126146   3.529   6.339   4.953 -0.8297  1.3282 -0.0171
 1577TIP3    H226147   3.492   6.346   4.807 -1.9290  2.1771  0.2892
 1578TIP3   OH226148   6.767   0.209   1.711  0.1205  0.0818 -0.7650
 1578TIP3    H126149   6.727   0.277   1.656  3.2114  0.6134 -2.6738
 1578TIP3    H226150   6.823   0.160   1.650  1.2974 -1.3876  1.3711
 1579TIP3   OH226151   5.409   3.625   4.596  0.2947  0.0284 -0.0520
 1579TIP3    H126152   5.463   3.547   4.591  1.1881  0.2941  2.9689
 1579TIP3    H226153   5.321   3.592   4.615  0.3227 -0.2951 -0.4853
 1580TIP3   OH226154   0.469   5.356  11.316 -0.6139  0.1246 -0.0956
 1580TIP3    H126155   0.517   5.327  11.393 -1.9569  0.9066  1.0841
 1580TIP3    H226156   0.536   5.378  11.252  0.5933  1.1540  1.4713
 1581TIP3   OH226157   2.490   0.535  15.317 -0.4640 -0.0099 -0.5477
 1581TIP3    H126158   2.430   0.542  15.243  1.2614 -0.3533 -2.0280
 1581TIP3    H226159   2.529   0.622  15.323 -0.5451 -0.0047 -0.0623
 1582TIP3   OH226160   2.255   3.607   3.746  0.0978 -0.0412 -0.2131
 1582TIP3    H126161   2.318   3.597   3.817  0.3397 -0.1832 -0.4473
 1582TIP3    H226162   2.180   3.651   3.787  0.9802  1.6072 -0.2969
 1583TIP3   OH226163   1.203   3.941  11.315 -0.6017  0.1607  0.3035
 1583TIP3    H126164   1.271   3.926  11.381  0.5276  1.1479 -0.5831
 1583TIP3    H226165   1.122   3.911  11.356 -0.1886  2.0340  2.7050
 1584TIP3   OH226166   3.344   1.849   4.032 -0.1805  0.4711  0.1072
 1584TIP3    H126167   3.369   1.904   4.107  0.7157  0.9212 -0.5083
 1584TIP3    H226168   3.375   1.762   4.056  0.7993  0.7603 -0.0479
 1585TIP3   OH226169   0.538   4.953  11.291 -0.3114 -0.2920 -0.0126
 1585TIP3    H126170   0.456   4.969  11.339 -0.4460  0.4363 -0.4719
 1585TIP3    H226171   0.511   4.943  11.200  0.0914 -0.1696 -0.1466
 1586TIP3   OH226172   0.464   3.171   2.789  0.1580  0.0596 -0.2209
 1586TIP3    H126173   0.478   3.158   2.882 -2.3887 -0.8307  0.1363
 1586TIP3    H226174   0.425   3.089   2.759 -2.0148  1.3996 -1.3447
 1587TIP3   OH226175   6.237   1.648   5.744  0.2201  0.3121  0.2468
 1587TIP3    H126176   6.283   1.565   5.760  0.1639  0.0606 -0.8410
 1587TIP3    H226177   6.220   1.683   5.831 -0.3744 -1.1563  0.7525
 1588TIP3   OH226178   2.299   0.015  15.496 -0.0179  0.0904  0.4568
 1588TIP3    H126179   2.266  -0.074  15.503 -1.0116  0.5488  2.0712
 1588TIP3    H226180   2.235   0.059  15.439  2.3664 -1.0020 -3.4442
 1589TIP3   OH226181   5.052   4.883  15.370  0.4860  0.1238 -0.2161
 1589TIP3    H126182   4.989   4.811  15.376  1.1348 -0.4093  0.2350
 1589TIP3    H226183   5.037   4.921  15.284  1.2004 -1.5406 -1.1097
 1590TIP3   OH226184   0.793   1.923  14.354  0.3446  0.3853  0.1017
 1590TIP3    H126185   0.813   1.909  14.446  0.4941  0.4695  0.0841
 1590TIP3    H226186   0.817   2.014  14.338  0.2094  0.4041  0.0088
 1591TIP3   OH226187   0.614   3.568  12.834  0.0843 -0.0806 -0.5473
 1591TIP3    H126188   0.589   3.621  12.909  0.8526 -0.5573  0.0676
 1591TIP3    H226189   0.540   3.509  12.820  0.2622 -0.5363  0.3608
 1592TIP3   OH226190   2.451   3.094  11.037 -0.8884 -0.2287  0.7294
 1592TIP3    H126191   2.433   3.000  11.032  1.7119 -0.7658  0.2880
 1592TIP3    H226192   2.458   3.122  10.946  0.6707 -0.1459  0.8483
 1593TIP3   OH226193   0.941   6.068   2.173  0.5743  0.2328 -0.0689
 1593TIP3    H126194   0.895   6.146   2.206  0.2427 -0.0142  0.0603
 1593TIP3    H226195   0.992   6.037   2.247 -0.9685 -0.9236  0.5689
 1594TIP3   OH226196   5.021   5.310   1.764  0.1060 -0.3257  0.4932
 1594TIP3    H126197   4.974   5.384   1.727  0.4175 -0.1331  0.4858
 1594TIP3    H226198   5.088   5.349   1.820  0.4093 -0.5960  0.3219
 1595TIP3   OH226199   1.001   0.322  14.632  0.8377 -0.0475 -0.3870
 1595TIP3    H126200   0.997   0.227  14.628 -0.8186  0.0318 -1.5185
 1595TIP3    H226201   1.035   0.349  14.547  0.0835  0.3908 -0.5682
 1596TIP3   OH226202   2.324   1.146   2.821  0.1668 -0.4151 -1.0976
 1596TIP3    H126203   2.278   1.209   2.765  0.0833 -0.3805 -0.9881
 1596TIP3    H226204   2.297   1.168   2.910  1.4348  0.4845 -0.8961
 1597TIP3   OH226205   6.598   3.361  11.019  0.4811 -0.2312  0.0082
 1597TIP3    H126206   6.621   3.431  10.958 -0.4216  0.5650  0.5511
 1597TIP3    H226207   6.643   3.284  10.985  1.8952  0.7049 -0.3353
 1598TIP3   OH226208   3.927   2.486   5.852 -0.2866  0.3592  0.3080
 1598TIP3    H126209   3.982   2.540   5.909  1.3880 -0.2206 -0.7072
 1598TIP3    H226210   3.860   2.450   5.911  0.3718  1.1201  1.5742
 1599TIP3   OH226211   5.643   2.380   6.267  0.4964 -0.0764 -0.0654
 1599TIP3    H126212   5.555   2.412   6.246  1.0689  0.3536 -1.9837
 1599TIP3    H226213   5.702   2.440   6.223  1.7917 -0.3879  1.1572
 1600TIP3   OH226214   6.705   3.639   3.161 -0.5055  0.6622  0.6760
 1600TIP3    H126215   6.727   3.732   3.168  0.4678  0.3673  1.8784
 1600TIP3    H226216   6.641   3.634   3.090  0.9569  1.9906 -0.8058
 1601TIP3   OH226217   2.474   3.598   1.469 -0.1422  0.2137  0.2424
 1601TIP3    H126218   2.447   3.522   1.521  2.0361 -1.3461 -0.7476
 1601TIP3    H226219   2.444   3.578   1.380  0.2656  0.5851  0.0141
 1602TIP3   OH226220   0.205   6.323  16.181 -0.2133 -0.1118  0.1171
 1602TIP3    H126221   0.214   6.281  16.266 -0.0502  0.6153  0.4694
 1602TIP3    H226222   0.278   6.385  16.177 -0.0547 -0.3376 -0.6686
 1603TIP3   OH226223   6.373   6.541   2.209 -0.2384 -0.3641  0.0877
 1603TIP3    H126224   6.399   6.535   2.301 -0.2282 -0.2752  0.0907
 1603TIP3    H226225   6.398   6.456   2.171  2.5517  0.6177 -0.5447
 1604TIP3   OH226226   3.463   6.064  12.120 -0.5035  0.4954  0.4893
 1604TIP3    H126227   3.401   6.115  12.170 -0.1737 -0.3004  1.7648
 1604TIP3    H226228   3.544   6.115  12.122  0.0240 -0.3362  2.3470
 1605TIP3   OH226229   2.610   4.049  11.357  0.4772 -0.2237 -0.7991
 1605TIP3    H126230   2.525   4.059  11.315 -0.0241 -1.9068 -0.2816
 1605TIP3    H226231   2.592   4.061  11.450  0.7750 -0.6746 -0.6795
 1606TIP3   OH226232   6.711   5.998  12.049 -0.4139 -0.1618 -0.1697
 1606TIP3    H126233   6.680   6.087  12.066 -1.6622 -0.0885 -2.4332
 1606TIP3    H226234   6.743   6.001  11.959  1.7772 -1.4653  0.5069
 1607TIP3   OH226235   3.723   3.341  11.030  0.0191 -0.3630  0.0669
 1607TIP3    H126236   3.800   3.385  10.995 -0.1798  0.7094  0.9388
 1607TIP3    H226237   3.651   3.369  10.975 -0.1228  0.5043  0.6770
 1608TIP3   OH226238   3.885   5.056  11.766  0.3376  0.0380 -0.1598
 1608TIP3    H126239   3.865   5.096  11.681  1.6948 -0.0609 -0.5560
 1608TIP3    H226240   3.925   5.126  11.817 -2.4979  0.7392  1.2760
 1609TIP3   OH226241   5.781   3.439  11.828  0.0470  0.1278  0.3183
 1609TIP3    H126242   5.765   3.345  11.821 -1.2911  0.4596 -2.8330
 1609TIP3    H226243   5.815   3.451  11.917 -2.6791 -2.8603  1.9925
 1610TIP3   OH226244   4.563   3.230   2.031  0.0789 -0.0438 -1.0506
 1610TIP3    H126245   4.629   3.260   2.092 -0.7732 -2.4125  1.2608
 1610TIP3    H226246   4.590   3.141   2.009 -1.6455 -0.6141 -1.0100
 1611TIP3   OH226247   6.653   6.155  15.360 -0.3333  0.7312  0.0241
 1611TIP3    H126248   6.617   6.237  15.394 -1.2974  0.5259 -0.4860
 1611TIP3    H226249   6.597   6.132  15.285 -0.5874 -0.8071  0.6364
 1612TIP3   OH226250   6.047   0.755   4.581  0.2286  0.4523 -0.0664
 1612TIP3    H126251   6.133   0.794   4.569 -0.4816  1.4372 -2.7151
 1612TIP3    H226252   5.992   0.826   4.615  0.3052 -0.0268  1.1087
 1613TIP3   OH226253   6.631   3.324   0.953 -0.1084 -0.6707  0.4249
 1613TIP3    H126254   6.660   3.236   0.979 -1.0412 -0.9533  0.5269
 1613TIP3    H226255   6.709   3.379   0.966 -0.3972 -0.8289  3.5747
 1614TIP3   OH226256   1.578   6.390  14.801  0.3315  0.1491 -0.2753
 1614TIP3    H126257   1.597   6.439  14.881 -1.5590  1.5330 -0.5939
 1614TIP3    H226258   1.512   6.326  14.827  1.2790 -0.8559 -0.3006
 1615TIP3   OH226259   5.746   5.118  10.984 -0.0392  0.0989 -0.2710
 1615TIP3    H126260   5.757   5.037  11.033  1.6934  0.8598  0.6867
 1615TIP3    H226261   5.791   5.103  10.901  0.8422  0.2835  0.1668
 1616TIP3   OH226262   4.984   1.953  15.214  0.2372  0.1497 -0.7744
 1616TIP3    H126263   4.922   1.977  15.146  1.0282  2.1422 -0.8663
 1616TIP3    H226264   4.930   1.920  15.286 -0.8219  0.5492 -1.3676
 1617TIP3   OH226265   0.051   2.268   4.279 -0.3805  0.4925 -0.2634
 1617TIP3    H126266   0.069   2.248   4.187  1.1671 -1.5293  0.3807
 1617TIP3    H226267  -0.042   2.250   4.290 -0.4191  0.0078 -1.2888
 1618TIP3   OH226268   4.350   3.509  12.649  0.1884 -0.3135  0.5504
 1618TIP3    H126269   4.308   3.497  12.734 -0.8198 -0.8096 -0.0123
 1618TIP3    H226270   4.349   3.604  12.635 -0.9002 -0.3225  0.4813
 1619TIP3   OH226271   0.819   1.010   2.525  0.1555  0.1479  0.1149
 1619TIP3    H126272   0.838   1.103   2.516 -2.1081  0.5963 -0.5216
 1619TIP3    H226273   0.815   0.977   2.435 -0.9960 -0.1070  0.2427
 1620TIP3   OH226274   1.280   3.621   3.994  0.0260 -0.6323  0.4551
 1620TIP3    H126275   1.311   3.648   4.081 -1.2536 -0.6249  0.9359
 1620TIP3    H226276   1.282   3.525   3.997  1.5152 -0.6405 -0.1038
 1621TIP3   OH226277   2.959   2.804   2.440  0.0953  0.0535 -0.1424
 1621TIP3    H126278   2.885   2.809   2.500 -0.1048  0.3679 -0.4114
 1621TIP3    H226279   2.938   2.731   2.382  0.8998 -1.1039  0.9709
 1622TIP3   OH226280   5.012   5.663   5.871  0.2778 -0.0952 -0.0539
 1622TIP3    H126281   4.959   5.724   5.820 -0.9873 -0.3963  0.8632
 1622TIP3    H226282   4.988   5.679   5.962  2.0757  0.0262  0.4501
 1623TIP3   OH226283   3.943   0.159   6.626 -0.1466 -0.0316  0.2599
 1623TIP3    H126284   3.886   0.228   6.594 -2.4765 -1.9893 -0.1252
 1623TIP3    H226285   3.997   0.135   6.551 -0.3366  0.3848 -0.0115
 1624TIP3   OH226286   2.686   5.866  13.517 -0.4732 -0.3585  0.8499
 1624TIP3    H126287   2.664   5.845  13.608  1.8370 -1.1647  1.2712
 1624TIP3    H226288   2.607   5.842  13.468 -1.7532  0.0321  2.5969
 1625TIP3   OH226289   3.715   0.876  14.470 -0.0141  0.0779 -0.1871
 1625TIP3    H126290   3.666   0.876  14.552  0.9570 -0.0616  0.4084
 1625TIP3    H226291   3.659   0.827  14.409 -1.0191  0.6923  0.2038
 1626TIP3   OH226292   4.656   5.621   5.434 -0.7437 -0.0547 -0.1337
 1626TIP3    H126293   4.578   5.574   5.464  0.1493 -1.4000  0.2011
 1626TIP3    H226294   4.643   5.631   5.339 -1.3049 -0.3175 -0.0865
 1627TIP3   OH226295   4.175   5.263  15.499 -0.0514  0.6224 -0.0266
 1627TIP3    H126296   4.240   5.206  15.541 -0.9422 -0.5764 -0.2312
 1627TIP3    H226297   4.102   5.266  15.560 -0.2740  1.0440 -0.3059
 1628TIP3   OH226298   6.322   4.565   3.618 -0.0350 -0.6459  0.0093
 1628TIP3    H126299   6.345   4.583   3.709 -1.5059 -1.4804  0.5840
 1628TIP3    H226300   6.360   4.480   3.600 -1.3897 -1.3898  0.5138
 1629TIP3   OH226301   2.204   2.271  15.745  0.1135  0.0415  0.2710
 1629TIP3    H126302   2.218   2.184  15.708 -0.2843 -0.3440  0.9834
 1629TIP3    H226303   2.145   2.315  15.683 -0.6816 -0.6483  0.5115
 1630TIP3   OH226304   5.945   4.276  13.907 -0.0871  0.1476 -0.3705
 1630TIP3    H126305   5.912   4.271  13.997 -0.8996 -1.2725 -0.7240
 1630TIP3    H226306   6.038   4.258  13.914  0.0776  1.1532  0.2928
 1631TIP3   OH226307   6.352   4.495   5.229 -0.2672 -0.5902 -0.3583
 1631TIP3    H126308   6.425   4.549   5.198 -1.4967  1.1605 -0.3077
 1631TIP3    H226309   6.334   4.527   5.317 -1.8864 -0.1114 -0.8279
 1632TIP3   OH226310   4.545   1.238  16.830 -0.5205 -0.2682  0.1784
 1632TIP3    H126311   4.551   1.246  16.735  0.8549 -0.6095  0.2204
 1632TIP3    H226312   4.551   1.144  16.847 -0.5511 -0.1928  0.6192
 1633TIP3   OH226313   5.331   3.497  13.328 -0.1584  0.3981  0.1573
 1633TIP3    H126314   5.279   3.430  13.372  1.2310 -0.8099  0.0695
 1633TIP3    H226315   5.394   3.526  13.395  1.3579 -0.7766 -0.6882
 1634TIP3   OH226316   1.154   3.535  16.473 -0.2123  0.2349 -0.8896
 1634TIP3    H126317   1.246   3.559  16.462 -0.1359 -0.1694 -1.1418
 1634TIP3    H226318   1.154   3.440  16.482 -0.4608  0.3633  0.7600
 1635TIP3   OH226319   2.200   5.082  12.134 -0.1576  0.5341  0.4974
 1635TIP3    H126320   2.149   5.159  12.109 -0.4952  0.6190  1.3979
 1635TIP3    H226321   2.139   5.028  12.186 -0.3832 -1.0694 -1.3187
 1636TIP3   OH226322   1.918   4.070  16.689 -0.5194 -0.7891  0.2576
 1636TIP3    H126323   1.840   4.091  16.638  0.6942 -0.0048 -1.3959
 1636TIP3    H226324   1.885   4.032  16.770 -2.5626 -2.4867 -1.2634
 1637TIP3   OH226325   6.700   1.079   0.978  0.2015  0.2575 -0.3258
 1637TIP3    H126326   6.745   1.143   1.033 -1.0034 -0.4941  1.6423
 1637TIP3    H226327   6.612   1.072   1.015  0.1135 -2.1227 -0.7757
 1638TIP3   OH226328   2.298   3.076   1.208  0.1247  0.3257 -0.4309
 1638TIP3    H126329   2.316   3.007   1.144 -0.1136 -0.6067  0.4778
 1638TIP3    H226330   2.315   3.035   1.292 -0.1967  1.3369  0.1358
 1639TIP3   OH226331   5.900   2.230   4.361  0.2661 -0.0699  0.1776
 1639TIP3    H126332   5.909   2.314   4.317  0.4523 -1.1867 -2.0789
 1639TIP3    H226333   5.975   2.226   4.421  0.2237  1.3650  0.3553
 1640TIP3   OH226334   4.211   6.409  12.083  0.5764  0.0151  0.0768
 1640TIP3    H126335   4.238   6.372  11.998  0.8561  0.4369 -0.0193
 1640TIP3    H226336   4.183   6.498  12.063 -2.7626 -0.9600 -0.1363
 1641TIP3   OH226337   0.873   1.728   3.348 -0.2452 -0.0837 -0.0655
 1641TIP3    H126338   0.927   1.736   3.269  0.9610 -2.5454  0.4307
 1641TIP3    H226339   0.883   1.812   3.392  2.1936  0.0098 -0.6505
 1642TIP3   OH226340   4.168   1.242   4.966 -0.2574  0.2567  0.3045
 1642TIP3    H126341   4.151   1.155   5.002  1.0210 -1.3865 -2.6977
 1642TIP3    H226342   4.082   1.284   4.964 -1.5657 -2.2519 -1.2525
 1643TIP3   OH226343   6.398   3.239   4.129  0.3360  0.6417 -0.1533
 1643TIP3    H126344   6.349   3.212   4.206  0.6443 -0.0691 -0.2018
 1643TIP3    H226345   6.477   3.185   4.129  0.4812  0.8343 -0.8053
 1644TIP3   OH226346   0.192   2.519  16.068 -0.0009 -0.0992 -0.3641
 1644TIP3    H126347   0.189   2.448  16.132  0.9854 -0.6357 -0.8966
 1644TIP3    H226348   0.272   2.503  16.018 -0.3087  0.8030 -1.1676
 1645TIP3   OH226349   5.493   1.862   6.369  0.1586  0.1305 -0.0960
 1645TIP3    H126350   5.472   1.853   6.276 -0.5530 -0.7711  0.1374
 1645TIP3    H226351   5.588   1.858   6.373  0.1581 -0.8262 -0.6892
 1646TIP3   OH226352   5.580   4.181   2.311 -0.5689  0.1113 -0.2861
 1646TIP3    H126353   5.505   4.187   2.252  0.1497 -1.1407 -1.3967
 1646TIP3    H226354   5.553   4.228   2.389 -2.2327  0.3107 -0.9367
 1647TIP3   OH226355   3.501   6.607   5.653 -0.4599  0.2887  0.0535
 1647TIP3    H126356   3.471   6.517   5.668 -1.7948  0.9673  1.7943
 1647TIP3    H226357   3.595   6.598   5.636 -0.5841 -1.4277  0.0608
 1648TIP3   OH226358   0.330   3.473   5.827 -0.0992  0.0035  0.2284
 1648TIP3    H126359   0.293   3.561   5.826 -1.3617 -0.4635 -2.2155
 1648TIP3    H226360   0.309   3.439   5.913 -1.2648  1.4273  0.5428
 1649TIP3   OH226361   0.955   6.177   0.556 -0.1416  0.4178 -0.0596
 1649TIP3    H126362   0.954   6.089   0.595 -2.9697  0.7123  0.7588
 1649TIP3    H226363   0.983   6.234   0.628  0.1861  0.3616 -0.1405
 1650TIP3   OH226364   4.977   2.735  11.765  0.5788 -0.0247 -0.3035
 1650TIP3    H126365   4.984   2.827  11.737  0.7089  0.4929  1.3388
 1650TIP3    H226366   5.047   2.690  11.718  1.5178  1.0296  0.0401
 1651TIP3   OH226367   6.632   2.020   3.030 -0.3067  0.3088  0.4190
 1651TIP3    H126368   6.608   1.952   3.093  4.0480 -1.7428  0.2808
 1651TIP3    H226369   6.651   2.097   3.083 -4.1249  1.2125  0.6996
 1652TIP3   OH226370   3.480   1.346   3.483 -0.1744 -0.0268  0.3436
 1652TIP3    H126371   3.463   1.267   3.535 -3.3413  0.0002 -0.4790
 1652TIP3    H226372   3.458   1.321   3.393  0.7463  1.2426 -0.2602
 1653TIP3   OH226373   2.794   4.708   5.329 -0.5786 -0.6106 -0.0027
 1653TIP3    H126374   2.712   4.668   5.301 -1.1611  1.4124 -1.3538
 1653TIP3    H226375   2.788   4.711   5.424 -2.5592  0.4273 -0.1216
 1654TIP3   OH226376   4.385   4.525   0.213  0.6927 -0.1586  0.0457
 1654TIP3    H126377   4.298   4.485   0.214  0.4526  0.3104  1.8237
 1654TIP3    H226378   4.371   4.615   0.243  1.6391  0.3363 -0.9050
 1655TIP3   OH226379   0.790   2.213  14.270 -0.0598 -0.0611  0.6488
 1655TIP3    H126380   0.866   2.241  14.321  0.5048 -0.8658  0.2647
 1655TIP3    H226381   0.803   2.250  14.183 -1.0529  1.3597  1.0723
 1656TIP3   OH226382   3.306   3.385  17.087 -0.4430  0.4577 -0.2059
 1656TIP3    H126383   3.224   3.364  17.042 -0.5533 -0.3623  0.3464
 1656TIP3    H226384   3.350   3.300  17.099 -0.3679  0.6513  1.1040
 1657TIP3   OH226385   1.917   2.617   5.977  0.3016  0.3855 -0.1277
 1657TIP3    H126386   1.848   2.628   6.043 -0.9865 -0.1349 -1.3444
 1657TIP3    H226387   1.975   2.692   5.991 -1.0865  1.4350  0.2571
 1658TIP3   OH226388   5.792   4.592   4.345 -0.0374  0.0750 -0.2431
 1658TIP3    H126389   5.852   4.655   4.305 -0.3405 -0.1272 -1.0339
 1658TIP3    H226390   5.777   4.626   4.433  0.7974  0.4247 -0.2264
 1659TIP3   OH226391   1.375   6.186   4.763 -0.2778  0.0733 -0.0665
 1659TIP3    H126392   1.306   6.126   4.737  1.4881 -0.6084 -3.7177
 1659TIP3    H226393   1.455   6.133   4.765  0.7497  1.5544  0.3050
 1660TIP3   OH226394   5.751   1.383  16.087  0.3507  0.5015 -0.3234
 1660TIP3    H126395   5.657   1.392  16.103  0.7355  1.5261  1.5474
 1660TIP3    H226396   5.774   1.300  16.127  0.6276  1.3115  1.2522
 1661TIP3   OH226397   2.843   1.870  15.472  0.3899 -0.0485 -1.0431
 1661TIP3    H126398   2.897   1.798  15.506  2.0787  1.2921 -0.7216
 1661TIP3    H226399   2.907   1.936  15.443 -1.0849  0.9218 -2.2475
 1662TIP3   OH226400   5.249   1.128  11.739  0.0672  0.8645  0.3320
 1662TIP3    H126401   5.300   1.126  11.658 -0.3121 -0.5247  0.1144
 1662TIP3    H226402   5.266   1.044  11.781 -2.3746  0.1487  0.0324
 1663TIP3   OH226403   6.531   0.275  14.356  0.1398  0.0276 -0.2581
 1663TIP3    H126404   6.524   0.195  14.305 -1.2081 -0.1982  0.2543
 1663TIP3    H226405   6.567   0.246  14.440  0.0264  0.0288 -0.2102
 1664TIP3   OH226406   3.310   6.088  14.539  0.1800 -0.2687 -0.3047
 1664TIP3    H126407   3.377   6.044  14.486  1.5544 -0.4935  1.4909
 1664TIP3    H226408   3.313   6.041  14.623 -0.0918  1.6718  0.8335
 1665TIP3   OH226409   5.659   0.979   1.224  0.7131 -0.2360 -0.4625
 1665TIP3    H126410   5.647   1.066   1.185  1.1003 -0.6344 -1.5295
 1665TIP3    H226411   5.754   0.970   1.231  0.6493  0.0967  1.2764
 1666TIP3   OH226412   0.184   2.288   1.449  0.8130 -0.2339 -0.0802
 1666TIP3    H126413   0.144   2.205   1.472 -1.8258  1.2524  1.0603
 1666TIP3    H226414   0.190   2.286   1.353 -2.1512 -0.5719 -0.3514
 1667TIP3   OH226415   6.357   2.784   4.940  0.6955 -0.4245  0.3099
 1667TIP3    H126416   6.290   2.717   4.955  0.5974 -0.4254 -0.1206
 1667TIP3    H226417   6.439   2.741   4.966  0.5811 -0.5648  0.4453
 1668TIP3   OH226418   4.809   1.115   1.159 -0.0992  0.2205  0.2949
 1668TIP3    H126419   4.748   1.127   1.086 -0.4976 -2.4217  0.1054
 1668TIP3    H226420   4.757   1.069   1.226  1.3010 -0.8707  0.6703
 1669TIP3   OH226421   4.664   1.861  13.336 -0.4098  0.5727 -0.3532
 1669TIP3    H126422   4.669   1.814  13.253  0.3425 -1.4964  0.8010
 1669TIP3    H226423   4.755   1.880  13.358 -0.5809  0.7364  0.2129
 1670TIP3   OH226424   3.266   1.341   0.571 -0.6163 -0.6989  0.0222
 1670TIP3    H126425   3.276   1.314   0.480  0.1321 -2.7014  0.6510
 1670TIP3    H226426   3.326   1.415   0.581  0.9262 -1.8173 -0.6052
 1671TIP3   OH226427   5.628   6.336  10.590 -0.2808 -0.7063 -0.2623
 1671TIP3    H126428   5.589   6.424  10.587 -1.4296 -1.1560  0.5337
 1671TIP3    H226429   5.697   6.344  10.655 -1.2743 -0.6922  0.8338
 1672TIP3   OH226430   0.664   4.341  12.597 -0.8001  0.3871 -0.1336
 1672TIP3    H126431   0.713   4.296  12.665 -1.9893 -0.5442  0.1319
 1672TIP3    H226432   0.731   4.384  12.544  0.2209  0.0736  0.8668
 1673TIP3   OH226433   2.103   6.260   1.165  0.3569 -0.4434  0.0286
 1673TIP3    H126434   2.147   6.191   1.114 -0.7264 -1.6971  0.7054
 1673TIP3    H226435   2.144   6.256   1.251  3.7460  3.1580 -1.1353
 1674TIP3   OH226436   2.074   6.122  16.468  0.7006  0.3674 -0.0870
 1674TIP3    H126437   2.032   6.205  16.492  1.9856  0.4860  2.0076
 1674TIP3    H226438   2.154   6.148  16.422  1.1673  0.3435  0.6774
 1675TIP3   OH226439   0.323   3.163   0.409  0.4118  0.0942 -0.1390
 1675TIP3    H126440   0.337   3.127   0.496  1.4805  0.4203 -0.1727
 1675TIP3    H226441   0.303   3.255   0.423 -0.0725  0.0077 -0.2105
 1676TIP3   OH226442   2.634   5.194   1.083 -0.1159 -0.2710 -1.3493
 1676TIP3    H126443   2.565   5.260   1.078  0.6139  0.7744  1.1719
 1676TIP3    H226444   2.699   5.222   1.018  0.0502  1.3534 -0.5204
 1677TIP3   OH226445   1.573   0.674  14.999  0.0374  0.0340  0.6008
 1677TIP3    H126446   1.538   0.756  14.965  0.9371 -0.0218 -0.5294
 1677TIP3    H226447   1.538   0.607  14.940  1.2567 -0.1094 -0.0031
 1678TIP3   OH226448   6.494   3.628   0.906 -0.5734 -0.2030  0.7865
 1678TIP3    H126449   6.549   3.680   0.965 -1.4909 -1.0897  2.4782
 1678TIP3    H226450   6.521   3.537   0.921  0.5603 -0.3598 -1.6651
 1679TIP3   OH226451   5.677   3.645  14.743 -0.0044  0.8018 -0.0345
 1679TIP3    H126452   5.727   3.641  14.825  0.7837 -1.6042 -0.5488
 1679TIP3    H226453   5.744   3.640  14.674 -0.8014 -0.4980 -0.7583
 1680TIP3   OH226454   5.347   5.299  16.624  0.4217 -0.0456 -0.2481
 1680TIP3    H126455   5.400   5.286  16.545  1.3042 -1.1948  0.4987
 1680TIP3    H226456   5.303   5.383  16.610  2.1542  0.7736 -1.0579
 1681TIP3   OH226457   4.295   0.295  16.991 -0.8558 -0.2379  0.0894
 1681TIP3    H126458   4.264   0.234  17.058 -3.1072 -1.2930 -1.7745
 1681TIP3    H226459   4.326   0.239  16.920  1.0898  0.8544  0.0012
 1682TIP3   OH226460   0.232   5.759   1.394 -0.0543 -0.4966  0.2021
 1682TIP3    H126461   0.237   5.816   1.471  0.6776 -0.6660  0.2918
 1682TIP3    H226462   0.175   5.805   1.333 -0.1094 -0.0481  0.5853
 1683TIP3   OH226463   0.112   3.864   4.652 -0.2893  0.2705  0.6854
 1683TIP3    H126464   0.023   3.837   4.674 -0.5823  0.2306 -0.4635
 1683TIP3    H226465   0.107   3.891   4.560  1.6122 -3.5248 -0.7746
 1684TIP3   OH226466   0.528   5.027  10.750  0.0486 -0.0915 -0.5625
 1684TIP3    H126467   0.447   4.977  10.739 -1.1044  1.3697  0.7860
 1684TIP3    H226468   0.595   4.961  10.766 -1.3350 -1.2466  0.7556
 1685TIP3   OH226469   5.125   6.209   3.662 -0.2576  0.1794  0.1486
 1685TIP3    H126470   5.092   6.140   3.719 -0.5060 -1.4443 -1.8547
 1685TIP3    H226471   5.215   6.182   3.643  0.0146  1.0185  0.1990
 1686TIP3   OH226472   4.788   3.644   3.487 -0.3232  0.4472 -0.2282
 1686TIP3    H126473   4.756   3.731   3.510  1.0841  0.9720 -0.1267
 1686TIP3    H226474   4.791   3.597   3.570  0.6843  0.9303  0.0197
 1687TIP3   OH226475   6.697   2.663   0.898 -0.2863  0.4838 -0.3251
 1687TIP3    H126476   6.650   2.695   0.974 -0.5354 -1.8608  0.5725
 1687TIP3    H226477   6.636   2.676   0.825 -1.3168 -0.0804  0.4002
 1688TIP3   OH226478   1.626   5.913   0.690 -0.6143  0.7928 -0.1284
 1688TIP3    H126479   1.581   5.997   0.684  1.5213  1.9186 -1.8689
 1688TIP3    H226480   1.654   5.894   0.600 -2.8414 -2.9126 -0.2256
 1689TIP3   OH226481   0.694   0.978  16.171  0.3972  0.1455 -0.5533
 1689TIP3    H126482   0.715   1.055  16.224 -1.2406  0.7255 -0.6973
 1689TIP3    H226483   0.639   0.924  16.227  0.9560 -0.5962 -0.7062
 1690TIP3   OH226484   0.638   4.317   1.336  0.0958 -0.1725 -0.6281
 1690TIP3    H126485   0.718   4.281   1.298  0.6696 -0.1619  0.5490
 1690TIP3    H226486   0.660   4.407   1.359  0.2240 -0.6223  1.0851
 1691TIP3   OH226487   1.639   3.221  16.531 -0.6937 -0.0240  0.1790
 1691TIP3    H126488   1.603   3.295  16.581 -2.3695  0.1253 -1.1272
 1691TIP3    H226489   1.596   3.229  16.445 -2.4399 -3.5849  0.5529
 1692TIP3   OH226490   6.610   1.005  15.849  0.8262  0.0666  0.0476
 1692TIP3    H126491   6.546   1.053  15.796  1.9516  0.3562 -1.1127
 1692TIP3    H226492   6.665   1.074  15.887  1.6853 -0.2328 -0.6198
 1693TIP3   OH226493   1.593   2.955  12.873  0.2100 -0.3359  0.0360
 1693TIP3    H126494   1.684   2.935  12.894  0.0107 -0.6100  0.6696
 1693TIP3    H226495   1.597   3.033  12.817  0.9110 -1.1611 -1.1179
 1694TIP3   OH226496   3.129   5.147   4.156 -0.1169  0.1768 -0.4118
 1694TIP3    H126497   3.125   5.147   4.060  0.2651 -1.7872 -0.4603
 1694TIP3    H226498   3.073   5.074   4.182  2.0218 -1.1572  0.7030
 1695TIP3   OH226499   0.722   0.647  12.516  0.4680  0.7265  0.0427
 1695TIP3    H126500   0.701   0.613  12.429  1.9603 -2.5989  0.8111
 1695TIP3    H226501   0.669   0.594  12.576  1.2101  1.3021  1.2611
 1696TIP3   OH226502   5.457   3.582  13.766  0.3379  0.3650 -0.0400
 1696TIP3    H126503   5.523   3.552  13.829  0.3768  0.7620  0.1113
 1696TIP3    H226504   5.385   3.519  13.774  0.6302  0.0226 -0.0892
 1697TIP3   OH226505   5.260   3.086  16.821  0.0458 -0.2448  0.3222
 1697TIP3    H126506   5.334   3.107  16.877  0.1901 -1.3749  0.5761
 1697TIP3    H226507   5.190   3.145  16.851  1.0182  1.3752 -0.4248
 1698TIP3   OH226508   3.137   0.100  14.914 -0.1875  0.1445  0.2288
 1698TIP3    H126509   3.141   0.150  14.832 -0.8997 -0.1989 -0.0170
 1698TIP3    H226510   3.110   0.165  14.980 -3.4515 -0.3309 -0.4916
 1699TIP3   OH226511   5.808   6.290   0.848 -0.4706 -0.4549 -0.3505
 1699TIP3    H126512   5.889   6.336   0.825 -1.2739  1.6106  0.7297
 1699TIP3    H226513   5.827   6.251   0.933 -1.2526  1.9439  1.0056
 1700TIP3   OH226514   4.097   5.856  16.561  0.2329  0.4108  0.0692
 1700TIP3    H126515   4.105   5.886  16.652 -1.9642 -0.0106  0.4554
 1700TIP3    H226516   4.005   5.833  16.552  0.6465 -0.6213 -1.9636
 1701TIP3   OH226517   5.965   5.817   1.112 -0.0012  0.2209 -0.0140
 1701TIP3    H126518   6.014   5.792   1.190  1.2123 -1.1633 -1.1348
 1701TIP3    H226519   5.883   5.852   1.144  0.4989 -0.2523  1.8765
 1702TIP3   OH226520   1.264   1.764   3.452  0.2248 -0.7038 -0.0983
 1702TIP3    H126521   1.255   1.779   3.546 -0.6572 -2.5314  0.1610
 1702TIP3    H226522   1.337   1.820   3.425 -0.9672  1.5755  1.2054
 1703TIP3   OH226523   5.991   5.375  12.732 -0.6582 -0.1388  0.4389
 1703TIP3    H126524   5.958   5.445  12.675  1.5087  0.4014 -0.2703
 1703TIP3    H226525   6.071   5.411  12.771 -0.3723 -1.6434  1.3474
 1704TIP3   OH226526   0.729   6.162  11.062  0.1033 -0.0221  0.2343
 1704TIP3    H126527   0.682   6.101  11.119  1.3981 -0.7897  0.5190
 1704TIP3    H226528   0.666   6.233  11.046 -0.2844  0.2409  2.6512
 1705TIP3   OH226529   0.885   5.150  12.150 -0.3349 -0.2045  0.0168
 1705TIP3    H126530   0.954   5.101  12.105  0.6313  1.0164  0.1321
 1705TIP3    H226531   0.913   5.241  12.146 -1.6788  0.2591  0.5518
 1706TIP3   OH226532   0.696   4.067  16.461 -0.1764 -0.3253 -0.3971
 1706TIP3    H126533   0.728   4.145  16.414  1.1043 -0.7392 -0.2499
 1706TIP3    H226534   0.606   4.088  16.483 -0.3499  0.4789 -1.7575
 1707TIP3   OH226535   2.092   2.136  10.710 -0.5900  0.4043  0.5733
 1707TIP3    H126536   2.175   2.180  10.695 -1.5961  1.6612 -1.9109
 1707TIP3    H226537   2.114   2.043  10.714  1.0607  0.8041  1.2343
 1708TIP3   OH226538   3.143   0.306  15.077 -0.1029 -0.4011  0.4024
 1708TIP3    H126539   3.230   0.269  15.061  0.7014  0.7158  1.9933
 1708TIP3    H226540   3.145   0.391  15.032 -1.0073 -1.0974 -1.0064
 1709TIP3   OH226541   4.158   4.021  13.157 -0.0065 -0.1101  0.2288
 1709TIP3    H126542   4.083   4.074  13.184 -0.3369 -0.4449 -0.0377
 1709TIP3    H226543   4.231   4.084  13.156 -0.1368  0.0790  1.1269
 1710TIP3   OH226544   5.348   6.660  12.920 -0.4194  0.2185 -0.0502
 1710TIP3    H126545   5.255   6.639  12.924 -0.3887 -0.0931 -0.7739
 1710TIP3    H226546   5.391   6.585  12.961 -0.3375 -1.0230 -2.2428
 1711TIP3   OH226547   3.214   4.497  14.342  0.7877 -0.1922 -0.5247
 1711TIP3    H126548   3.244   4.490  14.433  0.2306  1.0563 -0.2269
 1711TIP3    H226549   3.255   4.423  14.298  0.6530 -1.1320  0.8503
 1712TIP3   OH226550   1.613   5.240  16.895  0.1705  0.4896 -0.7169
 1712TIP3    H126551   1.527   5.234  16.853  0.6694 -1.6594 -1.5409
 1712TIP3    H226552   1.672   5.191  16.838  1.3323 -0.6985  1.3691
 1713TIP3   OH226553   4.603   6.499  16.488  0.1950  0.4792  0.6260
 1713TIP3    H126554   4.648   6.503  16.404  0.2982 -0.6261  0.6184
 1713TIP3    H226555   4.516   6.536  16.470 -0.5595 -1.7061 -0.5122
 1714TIP3   OH226556   2.492   4.121  16.469 -0.5199  0.0760 -0.3534
 1714TIP3    H126557   2.451   4.182  16.530 -1.5973 -0.1733 -0.7853
 1714TIP3    H226558   2.421   4.062  16.444  0.6923 -1.9593  0.7567
 1715TIP3   OH226559   1.368   0.793   0.846  0.9603  0.2316  0.4517
 1715TIP3    H126560   1.291   0.761   0.892  0.1722  1.5971  0.1525
 1715TIP3    H226561   1.358   0.762   0.756 -0.1832  1.8272 -0.0219
 1716TIP3   OH226562   5.390   0.938  13.890 -0.5514  0.1706 -0.2885
 1716TIP3    H126563   5.323   0.874  13.914  0.1859 -1.1579 -1.6311
 1716TIP3    H226564   5.471   0.903  13.927 -0.2529  0.7367 -0.3897
 1717TIP3   OH226565   1.736   2.094  13.344 -0.2333 -0.1389  0.5268
 1717TIP3    H126566   1.773   2.006  13.345  0.6421  0.2161  1.0485
 1717TIP3    H226567   1.678   2.097  13.421 -0.6979 -0.4266  0.1921
 1718TIP3   OH226568   3.648   3.924  11.266  0.4222 -0.0331 -0.2550
 1718TIP3    H126569   3.665   3.875  11.185 -0.8760  0.1722 -0.6727
 1718TIP3    H226570   3.649   4.016  11.238 -2.3155 -0.0084 -0.5712
 1719TIP3   OH226571   3.683   5.194  16.630  0.1349 -0.2425 -0.3366
 1719TIP3    H126572   3.736   5.150  16.696  0.0642 -0.1266 -0.2013
 1719TIP3    H226573   3.601   5.215  16.675  0.0256 -0.3035 -0.5060
 1720TIP3   OH226574   3.692   1.549  12.695 -0.0229  0.1043  0.0783
 1720TIP3    H126575   3.689   1.591  12.782  0.3184  0.5972 -0.1426
 1720TIP3    H226576   3.623   1.592  12.645  1.1502  1.3333 -0.5456
 1721TIP3   OH226577   4.334   2.003   1.226 -0.3156 -0.0857 -0.1867
 1721TIP3    H126578   4.371   2.020   1.313 -1.8984  0.6105  0.4003
 1721TIP3    H226579   4.380   1.926   1.194 -0.4326 -1.0153  1.7469
 1722TIP3   OH226580   4.319   4.718  12.320  0.5866 -0.2134 -0.6821
 1722TIP3    H126581   4.269   4.663  12.380  0.1457  1.2336  0.3462
 1722TIP3    H226582   4.361   4.657  12.260  0.4944 -1.6788  0.6817
 1723TIP3   OH226583   6.533   4.839  10.371 -0.5004 -0.2636 -0.4719
 1723TIP3    H126584   6.479   4.764  10.345 -0.7644 -0.8128  1.4731
 1723TIP3    H226585   6.476   4.915  10.356 -0.7367 -0.5669 -1.1667
 1724TIP3   OH226586   0.155   1.270   5.016 -0.2207  0.5483 -0.0835
 1724TIP3    H126587   0.121   1.234   5.098 -0.6094  0.3286 -0.3431
 1724TIP3    H226588   0.091   1.336   4.991  1.9850  3.8654  2.0728
 1725TIP3   OH226589   6.129   2.866   2.181 -0.0964  0.0817  0.1770
 1725TIP3    H126590   6.175   2.949   2.176 -0.0404  0.0126 -0.6967
 1725TIP3    H226591   6.039   2.889   2.204  0.1756  0.2820  1.0818
 1726TIP3   OH226592   2.172   2.382   4.660 -0.2690  0.2818 -0.5256
 1726TIP3    H126593   2.202   2.296   4.631 -1.4662 -0.6627  0.9134
 1726TIP3    H226594   2.242   2.414   4.717 -0.0128  0.0729 -0.7223
 1727TIP3   OH226595   0.549   1.351  15.247  0.2137  0.2263 -0.4507
 1727TIP3    H126596   0.518   1.399  15.324 -0.4372 -0.0374 -0.5447
 1727TIP3    H226597   0.567   1.419  15.182  1.8441  0.5526  0.2855
 1728TIP3   OH226598   1.933   1.124   2.097 -0.0552 -0.2797 -0.2154
 1728TIP3    H126599   1.930   1.063   2.023 -1.2667 -0.1994 -0.2551
 1728TIP3    H226600   1.886   1.201   2.065  0.7659  0.3640  0.1134
 1729TIP3   OH226601   5.266   3.571  15.376 -0.6029 -0.1116 -0.3932
 1729TIP3    H126602   5.234   3.590  15.288 -1.6120  0.6438  0.1133
 1729TIP3    H226603   5.273   3.656  15.418 -2.2191 -0.5934  0.9343
 1730TIP3   OH226604   4.914   2.933  15.717 -0.5520  0.7732  0.3316
 1730TIP3    H126605   4.897   2.984  15.796 -0.3900 -0.3264  1.1104
 1730TIP3    H226606   5.010   2.926  15.714 -0.5876 -0.9530  1.2732
 1731TIP3   OH226607   2.497   0.494   5.337  0.0372  0.1894 -0.5576
 1731TIP3    H126608   2.403   0.511   5.348  0.1122  0.0354  0.3909
 1731TIP3    H226609   2.501   0.437   5.260 -0.4044  2.3993 -2.3226
 1732TIP3   OH226610   5.286   6.567   2.795 -0.0597  0.0483  0.9548
 1732TIP3    H126611   5.215   6.585   2.733 -0.7738  1.7286  2.2050
 1732TIP3    H226612   5.365   6.564   2.740 -0.5011  2.7124  0.0362
 1733TIP3   OH226613   6.619   4.174  12.157  0.5200 -0.1622  0.4957
 1733TIP3    H126614   6.671   4.215  12.225  0.8003 -1.4943  1.1218
 1733TIP3    H226615   6.531   4.209  12.168  0.6513 -0.0872  1.3071
 1734TIP3   OH226616   6.412   0.429   3.623  0.1240 -0.0084  0.7510
 1734TIP3    H126617   6.364   0.347   3.636 -1.5966  0.2492 -2.7771
 1734TIP3    H226618   6.476   0.409   3.554 -0.9644  1.7036 -0.8770
 1735TIP3   OH226619   0.382   2.584   0.944 -0.1480 -0.1056  0.2192
 1735TIP3    H126620   0.401   2.658   0.885 -0.6498 -0.4449 -0.3841
 1735TIP3    H226621   0.355   2.514   0.885 -1.6194 -0.1515  0.9118
 1736TIP3   OH226622   3.948   1.924   5.568 -0.4491  0.1270 -0.2373
 1736TIP3    H126623   3.987   1.879   5.643  0.7513 -0.6141 -1.2701
 1736TIP3    H226624   4.008   1.995   5.548  0.2183 -0.7858 -1.5997
 1737TIP3   OH226625   3.690   3.662   1.106 -0.2073 -0.0156  0.1092
 1737TIP3    H126626   3.769   3.612   1.083 -1.2958 -0.5683 -2.7831
 1737TIP3    H226627   3.724   3.741   1.147  1.8420 -0.3992 -0.7209
 1738TIP3   OH226628   4.660   5.140  15.616  0.3782  0.2641  0.4752
 1738TIP3    H126629   4.751   5.146  15.586  1.3546  0.3578  3.1726
 1738TIP3    H226630   4.644   5.046  15.628  0.4974  0.3089  1.0125
 1739TIP3   OH226631   0.351   1.694   5.194  0.5698  0.0540  0.7395
 1739TIP3    H126632   0.411   1.679   5.121  0.0927  0.4578  0.2566
 1739TIP3    H226633   0.305   1.610   5.205  0.5131  0.0486  0.4593
 1740TIP3   OH226634   3.529   2.413  16.078  0.1672 -0.4000 -0.2129
 1740TIP3    H126635   3.588   2.423  16.003  0.8105 -0.2136  0.3094
 1740TIP3    H226636   3.551   2.486  16.136 -0.6954 -0.2348 -0.0824
 1741TIP3   OH226637   0.410   4.648  15.034 -0.5797 -0.2805 -0.5422
 1741TIP3    H126638   0.402   4.553  15.043 -1.5404 -0.0119  2.9416
 1741TIP3    H226639   0.504   4.664  15.039 -0.3655 -1.0273 -1.6559
 1742TIP3   OH226640   6.523   0.347  13.815  0.0662  0.2785 -0.1026
 1742TIP3    H126641   6.552   0.420  13.759 -1.2668  0.8825 -0.0405
 1742TIP3    H226642   6.505   0.276  13.754  0.4406  0.3057 -0.2522
 1743TIP3   OH226643   3.321   4.470  14.589 -0.4210  0.3054 -0.1781
 1743TIP3    H126644   3.412   4.466  14.619 -0.5467  1.1445  0.3549
 1743TIP3    H226645   3.269   4.471  14.669 -0.7551  2.7265 -0.3392
 1744TIP3   OH226646   4.191   5.417   1.548  0.3643 -0.1993  0.0517
 1744TIP3    H126647   4.181   5.341   1.605  0.2753  0.8904  1.5374
 1744TIP3    H226648   4.102   5.435   1.516  0.3221 -0.4597  0.0158
 1745TIP3   OH226649   0.055   2.632   0.179 -0.2537  0.3522  0.4989
 1745TIP3    H126650  -0.006   2.565   0.146  0.3766  1.1485 -2.6196
 1745TIP3    H226651   0.032   2.711   0.130  3.7591  0.4711 -1.6211
 1746TIP3   OH226652   5.005   6.597   2.642  0.1355 -0.1189 -0.4099
 1746TIP3    H126653   4.950   6.520   2.651  0.2924 -0.1505  0.3554
 1746TIP3    H226654   5.020   6.605   2.547  0.7989 -1.5053 -0.4539
 1747TIP3   OH226655   5.486   6.438  16.066 -1.1275 -0.3851 -0.1005
 1747TIP3    H126656   5.464   6.348  16.092  1.5498 -0.9256  0.6561
 1747TIP3    H226657   5.543   6.470  16.136  0.4572  0.7678 -1.8041
 1748TIP3   OH226658   6.085   1.441  15.569 -0.4003 -0.1067 -0.6802
 1748TIP3    H126659   6.112   1.524  15.609 -0.0101 -0.4154 -0.2893
 1748TIP3    H226660   6.138   1.435  15.489 -1.5526  0.7600 -1.5468
 1749TIP3   OH226661   5.012   1.374  11.173  1.1399  0.7876 -0.1113
 1749TIP3    H126662   5.016   1.463  11.208 -0.7477  1.1781 -0.7457
 1749TIP3    H226663   5.085   1.369  11.111  0.4823  2.3832 -1.0679
 1750TIP3   OH226664   2.112   4.761  12.046 -0.2405  0.3311  0.1823
 1750TIP3    H126665   2.066   4.806  11.976 -1.4710 -2.0412 -0.6743
 1750TIP3    H226666   2.052   4.766  12.121 -0.2513  0.3625  0.1716
 1751TIP3   OH226667   2.939   2.680  16.706 -0.7918  0.2322 -0.2571
 1751TIP3    H126668   2.976   2.725  16.782 -0.3900  1.0445 -0.9174
 1751TIP3    H226669   2.994   2.603  16.695  0.1661  0.9548 -0.6843
 1752TIP3   OH226670   2.624   1.293  15.468  0.3397  0.3004  0.5910
 1752TIP3    H126671   2.674   1.369  15.498  1.2371 -0.1337  0.2397
 1752TIP3    H226672   2.678   1.255  15.399  0.0040 -0.7875  0.9166
 1753TIP3   OH226673   5.389   0.452   4.984 -0.4502  0.6575  0.1308
 1753TIP3    H126674   5.376   0.388   5.054 -1.5792 -0.9154 -1.4136
 1753TIP3    H226675   5.300   0.469   4.952 -0.0019  1.7852 -0.5570
 1754TIP3   OH226676   2.235   3.635   0.011  0.2587 -0.5273 -0.9130
 1754TIP3    H126677   2.290   3.564   0.044  2.1792  1.9081  1.6003
 1754TIP3    H226678   2.296   3.693  -0.034 -0.7630  0.8257 -0.6038
 1755TIP3   OH226679   2.778   3.690   4.777  0.2870 -0.5470 -0.3386
 1755TIP3    H126680   2.873   3.689   4.763  0.0081 -2.1066 -2.9437
 1755TIP3    H226681   2.751   3.777   4.747  0.9000  0.0739  0.8398
 1756TIP3   OH226682   5.721   5.617  12.535  0.5183  0.8765  0.0142
 1756TIP3    H126683   5.718   5.569  12.618 -0.1701  1.0492  0.1008
 1756TIP3    H226684   5.813   5.614  12.508  0.5653 -0.1231  0.2379
 1757TIP3   OH226685   5.174   4.342   4.898  0.2472  0.0498  0.0724
 1757TIP3    H126686   5.262   4.321   4.930  0.2969  0.5443  0.2674
 1757TIP3    H226687   5.131   4.383   4.973 -0.1625 -0.2236 -0.0120
 1758TIP3   OH226688   5.474   2.245   2.027 -0.5990 -0.0989  0.1489
 1758TIP3    H126689   5.445   2.336   2.028 -0.1231  0.0600 -0.2272
 1758TIP3    H226690   5.556   2.246   1.979 -1.0182 -0.8488 -0.6224
 1759TIP3   OH226691   5.886   3.303  15.173 -0.0299  0.5699 -0.4925
 1759TIP3    H126692   5.940   3.286  15.096  1.8314  0.1626  0.8455
 1759TIP3    H226693   5.862   3.215  15.205 -2.0655  0.7383 -1.4067
 1760TIP3   OH226694   1.061   1.756   1.209  0.1881  0.2191 -0.0260
 1760TIP3    H126695   1.136   1.763   1.150  0.0097 -1.4386 -0.5106
 1760TIP3    H226696   0.988   1.730   1.153  0.1412 -1.9875  0.9342
 1761TIP3   OH226697   0.024   3.815  10.552 -0.6512  0.3547 -0.3339
 1761TIP3    H126698   0.103   3.818  10.498 -0.1036  0.7204  0.4698
 1761TIP3    H226699  -0.045   3.846  10.494 -0.0109  1.1153 -0.7126
 1762TIP3   OH226700   0.947   4.086  14.959 -0.7981  0.1897  0.1433
 1762TIP3    H126701   1.009   4.013  14.963 -1.0393  0.0116  0.7625
 1762TIP3    H226702   0.863   4.047  14.983 -0.8918  0.7100  0.6808
 1763TIP3   OH226703   6.113   1.652   0.204  0.3261 -0.1100  0.3940
 1763TIP3    H126704   6.178   1.614   0.262  1.3450  2.3369  0.9981
 1763TIP3    H226705   6.124   1.747   0.215 -2.2530  0.4078 -0.7026
 1764TIP3   OH226706   6.273   1.060   0.846 -0.0533 -0.6576  0.3313
 1764TIP3    H126707   6.189   1.036   0.883 -0.4804 -1.8419 -1.2858
 1764TIP3    H226708   6.334   0.994   0.880  0.0111 -0.4392  0.6453
 1765TIP3   OH226709   4.142   1.122   0.412  0.2619 -0.3462  0.8724
 1765TIP3    H126710   4.226   1.113   0.457 -0.0071  1.0437  1.7239
 1765TIP3    H226711   4.103   1.201   0.450 -0.2031  0.6258 -1.4861
 1766TIP3   OH226712   4.718   0.237   6.035  0.8979 -0.1789 -0.2373
 1766TIP3    H126713   4.670   0.204   6.110 -0.3131  0.6568 -0.6209
 1766TIP3    H226714   4.807   0.204   6.047  0.7558  0.0195  1.6030
 1767TIP3   OH226715   4.526   3.622  12.861 -0.0857  0.6774 -0.1512
 1767TIP3    H126716   4.473   3.699  12.840 -1.1241  0.4317  1.4608
 1767TIP3    H226717   4.467   3.564  12.908  0.0823 -2.0398 -2.9933
 1768TIP3   OH226718   2.989   6.065   5.413  0.2920 -0.3816  0.3990
 1768TIP3    H126719   3.004   6.085   5.506 -1.6855  1.0823  0.4805
 1768TIP3    H226720   2.967   6.149   5.374 -0.4053 -1.2105 -1.0643
 1769TIP3   OH226721   4.758   6.739   1.975 -0.3169  0.2538 -0.0395
 1769TIP3    H126722   4.848   6.749   2.006 -0.4710 -0.1521  0.5554
 1769TIP3    H226723   4.708   6.804   2.024 -0.1974  1.1651 -1.0846
 1770TIP3   OH226724   5.583   3.218   5.131 -0.3769 -0.0134  0.6033
 1770TIP3    H126725   5.614   3.258   5.050 -0.7204  0.6653  0.7984
 1770TIP3    H226726   5.499   3.177   5.107 -0.5498  0.3122  0.6428
 1771TIP3   OH226727   5.586   4.278   2.572 -0.2129 -0.4493  0.4774
 1771TIP3    H126728   5.629   4.311   2.651 -0.5028 -0.6440  0.7209
 1771TIP3    H226729   5.523   4.214   2.605 -0.9740  0.1262  0.1589
 1772TIP3   OH226730   4.124   6.111   6.084 -0.1685 -0.4649  0.8190
 1772TIP3    H126731   4.147   6.144   6.171 -1.2515 -1.1202  1.3787
 1772TIP3    H226732   4.204   6.069   6.052  1.2934  2.6229  0.0480
 1773TIP3   OH226733   5.379   4.960  17.091  0.5679 -0.1537 -0.1159
 1773TIP3    H126734   5.466   4.994  17.111  0.2351  0.2178  0.7408
 1773TIP3    H226735   5.391   4.910  17.010  1.4624  0.3492 -0.3058
 1774TIP3   OH226736   3.019   1.613   0.180  0.4150  0.0717  1.0534
 1774TIP3    H126737   3.069   1.594   0.100 -1.5189 -1.8404  0.1742
 1774TIP3    H226738   3.081   1.597   0.251  2.0196  1.2273 -0.0031
 1775TIP3   OH226739   4.992   5.174  12.016  1.0816 -0.2501 -0.1085
 1775TIP3    H126740   5.073   5.215  12.047  0.9223  0.0431 -0.0719
 1775TIP3    H226741   4.985   5.093  12.066  0.9854  0.0704  0.4062
 1776TIP3   OH226742   1.382   1.289   3.061 -0.2759  0.1250  0.1665
 1776TIP3    H126743   1.359   1.229   2.990 -0.4959  0.9226 -0.4672
 1776TIP3    H226744   1.449   1.244   3.111 -1.5198 -1.2757  0.6224
 1777TIP3   OH226745   4.032   4.562  15.712  0.2686  0.1273 -0.8122
 1777TIP3    H126746   3.950   4.610  15.721  0.9848  1.4248 -1.0106
 1777TIP3    H226747   4.091   4.603  15.775  1.3178  0.4720 -1.9843
 1778TIP3   OH226748   1.306   2.904   6.795 -0.0164  0.1617  0.0458
 1778TIP3    H126749   1.355   2.840   6.846 -1.5399  0.5501  2.1180
 1778TIP3    H226750   1.346   2.901   6.708  0.9962 -2.4283  0.5039
 1779TIP3   OH226751   2.943   2.391   2.917  0.0887 -0.1937  0.4909
 1779TIP3    H126752   2.868   2.372   2.861  0.5127 -4.0259  0.9527
 1779TIP3    H226753   2.908   2.386   3.006  0.6731 -1.0305  0.6823
 1780TIP3   OH226754   3.427   3.817   2.348 -0.2761  0.2928 -0.0847
 1780TIP3    H126755   3.362   3.842   2.283 -0.2953 -0.8943 -0.5425
 1780TIP3    H226756   3.500   3.878   2.333 -1.2949  1.7015  0.5118
 1781TIP3   OH226757   1.591   3.657  15.056 -0.5087 -0.4392  0.1175
 1781TIP3    H126758   1.502   3.628  15.039 -1.1475  0.6158  1.5127
 1781TIP3    H226759   1.595   3.745  15.019  0.2788 -0.8267 -0.7848
 1782TIP3   OH226760   3.224   2.747   4.136  0.6850  0.1588  0.6887
 1782TIP3    H126761   3.206   2.765   4.228 -1.6713 -0.8582  0.5160
 1782TIP3    H226762   3.137   2.739   4.096  1.6273 -0.7219 -1.3535
 1783TIP3   OH226763   1.455   5.680   2.509 -0.2828  0.1801  0.2941
 1783TIP3    H126764   1.442   5.775   2.515 -0.0684  0.1300  2.2677
 1783TIP3    H226765   1.397   5.652   2.438 -1.1021  1.6594  0.3455
 1784TIP3   OH226766   3.782   2.308  17.056  0.5973  0.1238 -0.2603
 1784TIP3    H126767   3.773   2.386  17.112 -0.3505  0.1693 -0.4656
 1784TIP3    H226768   3.773   2.235  17.117  2.0322  0.1435  0.0228
 1785TIP3   OH226769   4.576   3.531  14.875 -0.4678  0.2399 -0.0795
 1785TIP3    H126770   4.638   3.483  14.819 -0.6968  1.8524 -1.8124
 1785TIP3    H226771   4.592   3.623  14.854 -1.2063  0.8566  1.8986
 1786TIP3   OH226772   6.103   6.110  16.040 -0.3085 -0.1458 -0.4233
 1786TIP3    H126773   6.128   6.021  16.063 -1.6945 -0.4082  0.1476
 1786TIP3    H226774   6.175   6.164  16.074 -0.0606 -0.9346  0.3558
 1787TIP3   OH226775   1.006   2.795  10.857  0.0736  0.8114  0.7939
 1787TIP3    H126776   0.966   2.837  10.933 -2.6628  0.5348 -0.3769
 1787TIP3    H226777   0.993   2.701  10.871 -0.6463  0.7658 -0.0767
 1788TIP3   OH226778   6.249   0.161  13.864 -0.1246 -0.6227  0.0931
 1788TIP3    H126779   6.258   0.253  13.890 -1.6630 -0.0850 -1.1514
 1788TIP3    H226780   6.294   0.155  13.780 -3.5066  0.0986 -1.9647
 1789TIP3   OH226781   6.223   3.903   5.721  0.1377 -0.2508  0.3128
 1789TIP3    H126782   6.286   3.854   5.668 -0.5713 -1.3174  0.4216
 1789TIP3    H226783   6.256   3.896   5.811 -0.4849 -1.4558  0.4804
 1790TIP3   OH226784   1.753   1.573  13.338 -0.0487  0.5636  0.1573
 1790TIP3    H126785   1.703   1.505  13.294 -0.1438  1.3742 -1.0412
 1790TIP3    H226786   1.838   1.533  13.357 -0.1625  0.0604 -0.3794
 1791TIP3   OH226787   2.333   2.837  16.919  0.0632 -0.1175 -0.6068
 1791TIP3    H126788   2.340   2.930  16.940  0.5698 -0.4318  0.6912
 1791TIP3    H226789   2.292   2.798  16.996 -0.9291 -0.8607 -1.4804
 1792TIP3   OH226790   2.108   1.986   3.882  0.2979 -0.5433 -0.6439
 1792TIP3    H126791   2.187   1.951   3.924 -1.3444 -2.5337  0.9696
 1792TIP3    H226792   2.137   2.069   3.844  2.5234  0.2146  2.3254
 1793TIP3   OH226793   2.731   2.348   0.320  0.1580  0.1409 -0.6959
 1793TIP3    H126794   2.772   2.435   0.322  0.0286  0.2656 -2.1564
 1793TIP3    H226795   2.716   2.326   0.412  1.8517  0.8752 -0.2099
 1794TIP3   OH226796   3.986   1.671  15.135 -0.4285 -0.0558  0.1029
 1794TIP3    H126797   4.014   1.702  15.049 -1.3208  1.6356  0.3705
 1794TIP3    H226798   4.063   1.684  15.191  0.6806 -2.6316 -0.6964
 1795TIP3   OH226799   4.748   5.524   2.168  0.5494 -0.1748 -0.0627
 1795TIP3    H126800   4.731   5.474   2.088  0.3009  0.5864 -0.4971
 1795TIP3    H226801   4.831   5.489   2.202 -0.4294 -2.0503  0.5773
 1796TIP3   OH226802   1.819   1.732  12.722  0.7741  0.0629  0.3364
 1796TIP3    H126803   1.730   1.766  12.716  1.0709  0.7748 -0.1814
 1796TIP3    H226804   1.857   1.776  12.798 -0.3204 -2.7056  2.7052
 1797TIP3   OH226805   1.682   4.293  10.497 -0.1625  0.4137 -0.1274
 1797TIP3    H126806   1.754   4.332  10.448 -0.0652  1.0941  0.5331
 1797TIP3    H226807   1.720   4.272  10.582  0.0581 -2.0865 -0.7830
 1798TIP3   OH226808   1.716   0.054  15.519 -0.4424 -0.2294 -0.1095
 1798TIP3    H126809   1.779   0.098  15.576 -2.2503 -2.4206  4.0304
 1798TIP3    H226810   1.665   0.126  15.480  1.3477  1.4349  0.4570
 1799TIP3   OH226811   2.291   2.685   1.277  0.6579 -0.1715  0.3429
 1799TIP3    H126812   2.279   2.686   1.182  0.9803 -1.1683  0.2786
 1799TIP3    H226813   2.381   2.656   1.290  1.1935  1.6637  0.9337
 1800TIP3   OH226814   5.562   6.292   5.694  0.0227 -0.0815 -0.5308
 1800TIP3    H126815   5.561   6.373   5.745 -0.1733 -0.4378  0.0383
 1800TIP3    H226816   5.653   6.260   5.701  0.0435 -0.0308 -0.5661
 1801TIP3   OH226817   0.155   0.666  12.212 -0.5769  0.4527  0.0767
 1801TIP3    H126818   0.097   0.622  12.149 -0.1868  0.3981 -0.2522
 1801TIP3    H226819   0.219   0.711  12.157  1.4592 -1.8269  0.4187
 1802TIP3   OH226820   4.826   4.122  12.547  0.5147 -0.2020  0.5096
 1802TIP3    H126821   4.763   4.050  12.542  0.9226 -0.6232  1.1426
 1802TIP3    H226822   4.826   4.161  12.460 -0.0304 -0.7000  0.2807
 1803TIP3   OH226823   5.504   3.129  15.275 -0.4906  0.2346  0.1439
 1803TIP3    H126824   5.581   3.076  15.256  0.1710  1.1010  0.3439
 1803TIP3    H226825   5.538   3.203  15.325 -1.4095  0.7827 -0.0253
 1804TIP3   OH226826   6.683   1.344  15.414 -0.1418  0.1117  0.2235
 1804TIP3    H126827   6.775   1.352  15.390 -0.5432  1.3754 -1.0572
 1804TIP3    H226828   6.670   1.251  15.429  0.6715 -0.5544 -2.5737
 1805TIP3   OH226829   6.745   2.294  11.740 -0.0029  0.2923  0.3018
 1805TIP3    H126830   6.795   2.311  11.820  0.9269  1.4149 -0.4955
 1805TIP3    H226831   6.657   2.271  11.772  0.6928 -0.5989  1.6786
 1806TIP3   OH226832   2.681   4.973  13.561 -0.2399  0.4265 -0.1258
 1806TIP3    H126833   2.734   5.036  13.513 -0.2476  0.6701  0.1873
 1806TIP3    H226834   2.593   4.982  13.523  0.0869 -0.5042 -1.1650
 1807TIP3   OH226835   5.299   1.569  15.028  0.5184 -0.4938  0.5732
 1807TIP3    H126836   5.244   1.492  15.011  0.0142 -0.3897  1.6597
 1807TIP3    H226837   5.279   1.629  14.956 -1.4825 -0.0863  1.4031
 1808TIP3   OH226838   6.377   1.716  16.491  0.2717  0.1482 -0.0064
 1808TIP3    H126839   6.411   1.713  16.580 -0.7834 -0.4665  0.3901
 1808TIP3    H226840   6.373   1.625  16.464 -1.8510  0.1053  0.2920
 1809TIP3   OH226841   5.593   3.261   1.940 -0.1566  0.0287  0.5296
 1809TIP3    H126842   5.549   3.319   2.003 -0.6779  0.0910  0.1140
 1809TIP3    H226843   5.618   3.318   1.868 -2.2761 -0.5201 -0.7274
 1810TIP3   OH226844   3.711   6.162   5.186  1.0782 -0.1775  0.1989
 1810TIP3    H126845   3.656   6.123   5.254  2.1205 -3.6989 -0.7703
 1810TIP3    H226846   3.799   6.161   5.223  1.4582 -0.8876 -0.7103
 1811TIP3   OH226847   0.922   3.343   2.871  0.2004  0.2529  0.0335
 1811TIP3    H126848   0.827   3.350   2.883  0.3568  1.1198  0.9926
 1811TIP3    H226849   0.935   3.349   2.776 -0.7790 -1.3473 -0.2390
 1812TIP3   OH226850   4.127   5.461   6.404 -0.1959 -0.4904  0.1579
 1812TIP3    H126851   4.077   5.530   6.360  0.2823 -0.5110 -0.4351
 1812TIP3    H226852   4.196   5.508   6.450 -1.5774 -0.3353  2.1629
 1813TIP3   OH226853   5.310   2.932   5.400  1.3367 -0.0849 -0.5032
 1813TIP3    H126854   5.356   3.016   5.399 -1.5129  1.6809  1.5380
 1813TIP3    H226855   5.311   2.905   5.492 -0.1311 -0.8914 -0.6920
 1814TIP3   OH226856   0.212   1.983  13.354 -0.3553 -0.2044 -0.1023
 1814TIP3    H126857   0.292   1.960  13.306 -1.1453 -1.8160 -0.7226
 1814TIP3    H226858   0.242   2.000  13.444  0.8244  0.4803 -0.5913
 1815TIP3   OH226859   4.146   3.831   3.341 -0.4920 -0.1515 -0.4622
 1815TIP3    H126860   4.205   3.907   3.333 -1.3878  0.4746 -1.3454
 1815TIP3    H226861   4.117   3.834   3.432  0.0988  0.0986 -0.2744
 1816TIP3   OH226862   5.111   4.404   2.367  0.3128 -0.6247 -0.5069
 1816TIP3    H126863   5.205   4.418   2.353  0.2176  1.4816  0.5554
 1816TIP3    H226864   5.079   4.488   2.399 -1.5348 -1.9043  1.2358
 1817TIP3   OH226865   3.498   0.918   6.008 -0.4396 -0.1942 -0.1821
 1817TIP3    H126866   3.486   0.876   6.093  1.4480 -1.8188 -0.6288
 1817TIP3    H226867   3.417   0.898   5.961 -1.0726 -0.1886  0.8701
 1818TIP3   OH226868   6.625   6.451  11.442 -1.1921 -0.1493  0.5499
 1818TIP3    H126869   6.606   6.367  11.484 -0.3928  0.1713  1.5970
 1818TIP3    H226870   6.710   6.438  11.400 -0.2934  0.5628  2.0455
 1819TIP3   OH226871   5.575   3.124  11.943  0.3150 -0.0409  0.7186
 1819TIP3    H126872   5.528   3.059  11.995  1.1547 -0.7896  0.5645
 1819TIP3    H226873   5.529   3.206  11.960 -1.6669 -0.9026 -0.2180
 1820TIP3   OH226874   5.203   4.300   3.912  0.0454  0.1343  0.4266
 1820TIP3    H126875   5.214   4.266   4.001  0.6437  0.3454  0.4366
 1820TIP3    H226876   5.243   4.386   3.914  0.1468  0.1016 -0.0797
 1821TIP3   OH226877   0.030   5.176  16.722 -0.0425 -0.2488 -0.3318
 1821TIP3    H126878   0.060   5.267  16.719  0.7418 -0.4939 -0.2058
 1821TIP3    H226879   0.031   5.148  16.630 -1.8415  0.3423 -0.5682
 1822TIP3   OH226880   5.538   0.702  11.635 -0.3336 -0.3264 -0.0720
 1822TIP3    H126881   5.569   0.792  11.642 -0.8021 -0.1823  0.1805
 1822TIP3    H226882   5.500   0.683  11.721 -0.6378 -0.6157 -0.2690
 1823TIP3   OH226883   2.583   5.192   5.376 -0.1673 -0.5058 -0.2782
 1823TIP3    H126884   2.524   5.150   5.439  1.5248 -0.7844  1.2055
 1823TIP3    H226885   2.569   5.285   5.388 -1.5160 -0.5594 -1.1909
 1824TIP3   OH226886   0.492   4.018   0.826  0.1286 -0.9495  0.2009
 1824TIP3    H126887   0.526   3.997   0.912 -2.0083 -2.3840  0.7783
 1824TIP3    H226888   0.408   4.061   0.843  0.4063  0.2285 -1.1614
 1825TIP3   OH226889   2.300   6.131  11.270  0.2413 -0.2241  0.1528
 1825TIP3    H126890   2.324   6.193  11.201  2.9579 -0.6119  0.6252
 1825TIP3    H226891   2.218   6.165  11.306  1.3973  2.9338  0.1458
 1826TIP3   OH226892   0.244   4.383   0.109 -0.8376  0.3857  0.0447
 1826TIP3    H126893   0.277   4.400   0.021  0.6011 -0.9063  0.2966
 1826TIP3    H226894   0.259   4.464   0.157  1.2105  0.1506 -0.1146
 1827TIP3   OH226895   2.275   2.543   2.595 -0.2332  0.1943 -0.1625
 1827TIP3    H126896   2.303   2.631   2.571  0.3039 -0.0706 -0.5022
 1827TIP3    H226897   2.259   2.548   2.690 -0.7136  0.7864 -0.2671
 1828TIP3   OH226898   3.010   5.519  15.105 -0.1589  0.0035  0.1289
 1828TIP3    H126899   2.984   5.438  15.060  1.4806  0.1346 -1.1441
 1828TIP3    H226900   3.026   5.581  15.035  1.0495  0.6786  0.9697
 1829TIP3   OH226901   0.895   1.090   5.295 -0.0653 -0.2994  0.3789
 1829TIP3    H126902   0.823   1.088   5.359  0.0236  1.1468  0.5694
 1829TIP3    H226903   0.952   1.161   5.326 -0.1301  0.5857 -1.4072
 1830TIP3   OH226904   0.680   6.028  12.699  0.1548 -0.0192 -0.5580
 1830TIP3    H126905   0.592   6.065  12.698  0.1434 -0.0197  0.0098
 1830TIP3    H226906   0.715   6.046  12.612 -0.9101 -1.2350 -1.2667
 1831TIP3   OH226907   3.619   4.125   1.307 -0.1948  0.0235  0.1609
 1831TIP3    H126908   3.648   4.190   1.372  0.0892 -0.6200  0.6963
 1831TIP3    H226909   3.537   4.092   1.342  0.1129 -0.5440  0.3563
 1832TIP3   OH226910   5.381   5.119  16.156 -0.2810  0.0139 -0.1457
 1832TIP3    H126911   5.288   5.131  16.141 -0.4918 -0.7450  0.4693
 1832TIP3    H226912   5.420   5.116  16.068 -1.1235 -1.7412 -0.5009
 1833TIP3   OH226913   5.378   5.393  13.945  0.3950  0.1335  0.2473
 1833TIP3    H126914   5.336   5.376  14.030  0.1341  0.0626  0.1079
 1833TIP3    H226915   5.366   5.487  13.931  2.5279  0.6410  1.3857
 1834TIP3   OH226916   4.651   1.977  15.170  0.3525  0.3137 -0.5069
 1834TIP3    H126917   4.725   2.037  15.159  0.5678 -0.0998 -1.3999
 1834TIP3    H226918   4.686   1.905  15.221  0.1609  0.8160  0.3540
 1835TIP3   OH226919   4.149   4.553   3.166 -0.5385  0.6780  0.4949
 1835TIP3    H126920   4.228   4.509   3.134  0.3546  2.0833  0.7205
 1835TIP3    H226921   4.078   4.491   3.147  0.4498 -0.1066 -0.7949
 1836TIP3   OH226922   2.634   4.078  15.688 -0.1353  0.1346 -0.2807
 1836TIP3    H126923   2.675   4.026  15.618  1.1765  0.4652  0.2047
 1836TIP3    H226924   2.550   4.105  15.652  1.0409  1.4298 -2.3180
 1837TIP3   OH226925   0.984   4.047   6.040 -0.0940 -0.1898  0.6447
 1837TIP3    H126926   0.917   4.108   6.070 -0.6870 -0.6916  0.3712
 1837TIP3    H226927   1.060   4.064   6.095 -0.4401  0.4107  0.9342
 1838TIP3   OH226928   1.768   1.157   1.079  0.0223 -0.7590  0.2567
 1838TIP3    H126929   1.830   1.213   1.032  0.2373 -2.3647 -1.5025
 1838TIP3    H226930   1.682   1.190   1.053  0.1516 -1.0110 -0.5322
 1839TIP3   OH226931   6.634   3.340  16.299 -0.1173  0.3616 -0.2262
 1839TIP3    H126932   6.555   3.380  16.261  0.5513  0.2287 -1.8638
 1839TIP3    H226933   6.694   3.331  16.224  0.0307 -3.0883  0.1485
 1840TIP3   OH226934   3.499   6.141  15.314  0.1770 -0.1000  0.0351
 1840TIP3    H126935   3.463   6.054  15.298 -0.3424  0.2968 -1.0238
 1840TIP3    H226936   3.549   6.161  15.235 -0.0804  0.7409  0.0800
 1841TIP3   OH226937   4.687   0.912   0.624 -0.2999  0.1122 -0.1636
 1841TIP3    H126938   4.727   0.825   0.619 -1.6901 -0.5014 -1.1440
 1841TIP3    H226939   4.698   0.949   0.537 -1.3979  0.1313 -0.3063
 1842TIP3   OH226940   0.982   1.462   3.655  0.1892 -0.1621  0.1696
 1842TIP3    H126941   0.935   1.447   3.573  1.3114 -0.1741 -0.4858
 1842TIP3    H226942   0.940   1.539   3.692  0.3733  0.5064 -0.9586
 1843TIP3   OH226943   1.722   2.444   6.394 -0.1364  0.1960  0.0785
 1843TIP3    H126944   1.628   2.424   6.388 -0.2112  0.1983  1.1246
 1843TIP3    H226945   1.765   2.358   6.393  0.0944  0.2022 -3.2633
 1844TIP3   OH226946   4.971   4.131  13.183  0.1936  0.0227 -0.1598
 1844TIP3    H126947   4.987   4.043  13.150 -1.1248  0.5118 -2.2866
 1844TIP3    H226948   4.988   4.125  13.277 -1.4840 -2.9541  0.0689
 1845TIP3   OH226949   2.317   1.962   4.064  0.6531 -0.3237  0.3127
 1845TIP3    H126950   2.392   1.961   4.006 -0.3380 -0.0596 -1.0156
 1845TIP3    H226951   2.352   1.990   4.149  1.9864  0.0802 -0.3519
 1846TIP3   OH226952   1.577   4.530  15.590 -0.1944 -0.2407  0.2587
 1846TIP3    H126953   1.605   4.621  15.601 -1.5746 -0.0555  2.9304
 1846TIP3    H226954   1.482   4.536  15.580 -1.1728 -1.4541  5.6803
 1847TIP3   OH226955   4.609   0.337   2.168  0.0371  0.1821 -0.1811
 1847TIP3    H126956   4.647   0.255   2.138  2.0604  1.4594 -1.3346
 1847TIP3    H226957   4.613   0.332   2.263  0.1043 -1.0662 -0.2372
 1848TIP3   OH226958   5.135   6.308   5.158  0.6014 -0.0050  0.0304
 1848TIP3    H126959   5.128   6.332   5.251 -0.4745 -0.1740  0.0075
 1848TIP3    H226960   5.172   6.220   5.159 -0.3772 -0.4252  0.3586
 1849TIP3   OH226961   1.454   6.427  13.351 -0.0006  0.3030 -0.8455
 1849TIP3    H126962   1.543   6.443  13.321  0.1892 -0.5283 -0.7406
 1849TIP3    H226963   1.459   6.438  13.446 -0.5474  2.6804 -1.0247
 1850TIP3   OH226964   5.536   3.836  14.477  0.1757 -0.4554  0.0190
 1850TIP3    H126965   5.461   3.895  14.475 -0.0373 -0.6485  1.3632
 1850TIP3    H226966   5.503   3.756  14.518  1.1014 -0.5429  0.6279
 1851TIP3   OH226967   3.865   0.359  14.476  0.3895  0.3112  0.1883
 1851TIP3    H126968   3.942   0.342  14.421 -0.7426 -0.6507 -1.1816
 1851TIP3    H226969   3.812   0.420  14.424  0.0924  0.7629  1.0074
 1852TIP3   OH226970   2.202   4.252   3.605 -0.7412  0.7978 -0.1893
 1852TIP3    H126971   2.148   4.320   3.565 -1.6423  1.1727  1.5555
 1852TIP3    H226972   2.205   4.181   3.540  0.5012  2.5644 -2.1932
 1853TIP3   OH226973   0.373   5.451  11.997  0.2131 -0.1874 -0.2520
 1853TIP3    H126974   0.408   5.444  12.086  0.2704  0.5454 -0.2104
 1853TIP3    H226975   0.423   5.386  11.946 -1.2606 -2.1470  0.6633
 1854TIP3   OH226976   2.468   1.435   3.064  0.3098 -0.9197 -0.0970
 1854TIP3    H126977   2.538   1.371   3.056  2.0946  0.9198 -0.0100
 1854TIP3    H226978   2.482   1.496   2.992 -1.3277 -0.5923 -0.1797
 1855TIP3   OH226979   5.408   3.662  15.080 -0.9883 -0.1737  0.2812
 1855TIP3    H126980   5.429   3.569  15.084  0.1643 -0.0526 -1.8410
 1855TIP3    H226981   5.481   3.705  15.124 -1.8666 -0.2542  1.9041
 1856TIP3   OH226982   6.303   3.453   5.772 -0.1296  0.0333  0.3648
 1856TIP3    H126983   6.313   3.461   5.867  0.9941  0.2233  0.2547
 1856TIP3    H226984   6.356   3.376   5.750  0.6158  0.7027 -0.2354
 1857TIP3   OH226985   3.109   6.504  12.234 -0.4109 -0.9434 -0.3475
 1857TIP3    H126986   3.062   6.566  12.290 -0.0499 -1.4834  0.5610
 1857TIP3    H226987   3.049   6.430  12.226 -0.1914 -1.1425 -0.1409
 1858TIP3   OH226988   3.744   5.044   5.211 -0.1994 -0.2691  0.2068
 1858TIP3    H126989   3.684   5.116   5.190  0.0044 -0.0505  0.3667
 1858TIP3    H226990   3.727   5.025   5.303 -0.3717 -0.5400  0.1198
 1859TIP3   OH226991   4.130   1.214   6.183  0.2941  0.0230 -0.2702
 1859TIP3    H126992   4.080   1.293   6.203  2.8665  1.5250  0.8048
 1859TIP3    H226993   4.122   1.160   6.262  2.0746  1.2826  0.8459
 1860TIP3   OH226994   4.436   3.018   0.747 -0.0194  0.5224 -0.3339
 1860TIP3    H126995   4.524   2.997   0.716 -0.2718 -1.7787  0.3356
 1860TIP3    H226996   4.448   3.034   0.841 -0.3877 -0.3319 -0.1402
 1861TIP3   OH226997   0.172   1.369  14.920 -0.2076 -0.2156  0.5364
 1861TIP3    H126998   0.237   1.437  14.937 -0.1268 -0.4837  1.3147
 1861TIP3    H226999   0.168   1.318  15.000  0.8377 -2.0775 -0.5415
 1862TIP3   OH227000   3.639   3.546  11.226 -0.5069 -0.3158 -0.1447
 1862TIP3    H127001   3.633   3.462  11.180 -2.5807  0.5606 -1.6441
 1862TIP3    H227002   3.717   3.588  11.190  0.1502 -1.2879  0.1108
 1863TIP3   OH227003   2.178   4.632  11.300 -0.1395  0.4728 -0.2525
 1863TIP3    H127004   2.260   4.663  11.262  0.4348  0.2676  0.7889
 1863TIP3    H227005   2.149   4.562  11.242  1.0543 -0.2741  0.0208
 1864TIP3   OH227006   6.066   1.799  16.865  0.2996 -0.2086  0.0247
 1864TIP3    H127007   6.127   1.794  16.939 -1.3744  1.6966  1.6529
 1864TIP3    H227008   6.105   1.864  16.806  0.5484 -0.0275  0.3833
 1865TIP3   OH227009   4.589   4.033  14.449  0.2577  0.1587 -0.4608
 1865TIP3    H127010   4.675   3.995  14.430  0.3369  0.5407 -0.8697
 1865TIP3    H227011   4.574   4.013  14.542  1.4631  1.4128  0.0233
 1866TIP3   OH227012   2.557   1.462   2.520 -0.2872 -0.6213 -0.2437
 1866TIP3    H127013   2.466   1.439   2.500 -0.3572 -0.4347 -0.1424
 1866TIP3    H227014   2.574   1.419   2.604 -0.5044 -0.0906  0.0794
 1867TIP3   OH227015   1.422   2.102   3.104 -0.3630 -0.0607  0.1391
 1867TIP3    H127016   1.393   2.013   3.121 -0.5618 -0.0667 -0.2161
 1867TIP3    H227017   1.512   2.093   3.074 -1.1652 -0.4076 -2.4472
 1868TIP3   OH227018   5.524   6.705  11.597  0.5510 -0.6735  0.1925
 1868TIP3    H127019   5.441   6.724  11.553  0.1268 -2.5097  0.1468
 1868TIP3    H227020   5.557   6.792  11.623 -0.8474  0.1729 -0.7108
 1869TIP3   OH227021   4.434   6.714   5.225  0.0902 -0.0198 -0.5833
 1869TIP3    H127022   4.518   6.729   5.183 -0.1662  0.4155 -0.9482
 1869TIP3    H227023   4.381   6.669   5.159  0.0290 -0.2771 -0.3626
 1870TIP3   OH227024   2.984   0.216   2.935 -0.2256 -0.0272 -0.2050
 1870TIP3    H127025   3.050   0.204   3.003 -0.1839  1.1687 -0.0142
 1870TIP3    H227026   3.023   0.280   2.875 -1.9434  2.3154  0.9928
 1871TIP3   OH227027   5.247   1.033  16.714 -0.5456 -0.3255  0.2928
 1871TIP3    H127028   5.201   1.116  16.705 -0.1462  0.1160  1.9686
 1871TIP3    H227029   5.178   0.967  16.716 -1.0809  0.2407  1.7746
 1872TIP3   OH227030   5.699   5.111   5.350 -0.4513 -0.5199  0.1528
 1872TIP3    H127031   5.774   5.136   5.404 -0.3007  1.4243 -0.8675
 1872TIP3    H227032   5.650   5.049   5.404  0.6164 -0.0076  1.7864
 1873TIP3   OH227033   4.344   2.497  15.949  0.5997 -0.0051  0.2244
 1873TIP3    H127034   4.422   2.454  15.914 -1.0123 -1.4125 -1.8852
 1873TIP3    H227035   4.295   2.427  15.991 -0.1285  0.6109  0.4224
 1874TIP3   OH227036   0.555   3.585  15.382  0.6584 -0.0205 -0.0151
 1874TIP3    H127037   0.544   3.492  15.403  0.1178  0.3880  1.6712
 1874TIP3    H227038   0.490   3.602  15.314  0.1167 -0.6851  0.3204
 1875TIP3   OH227039   1.837   1.706   0.627  0.5773  0.3255  0.1226
 1875TIP3    H127040   1.899   1.735   0.560  0.9525  1.7566  1.0412
 1875TIP3    H227041   1.845   1.771   0.697 -3.5115  1.8836 -0.5675
 1876TIP3   OH227042   1.592   5.639  15.272 -0.0075 -0.1964  0.1638
 1876TIP3    H127043   1.646   5.560  15.266  0.1432 -0.0217 -1.1514
 1876TIP3    H227044   1.551   5.634  15.358  1.8478 -0.4984  1.0797
 1877TIP3   OH227045   4.025   1.492   2.836 -0.4293 -0.0847 -0.3977
 1877TIP3    H127046   4.086   1.532   2.898 -0.1234 -1.6890  0.3940
 1877TIP3    H227047   4.079   1.432   2.785 -1.1263 -0.5996 -0.5409
 1878TIP3   OH227048   0.347   4.175   3.427  0.2329 -0.0646 -0.0012
 1878TIP3    H127049   0.375   4.096   3.381 -2.6066 -0.7607 -0.7146
 1878TIP3    H227050   0.354   4.152   3.520 -0.2110 -1.0447 -0.1984
 1879TIP3   OH227051   4.109   1.971  12.214 -0.0687 -0.3636  0.8578
 1879TIP3    H127052   4.196   2.001  12.188 -0.6228  1.2473  0.7371
 1879TIP3    H227053   4.114   1.960  12.309 -0.2045  1.4580  1.0958
 1880TIP3   OH227054   0.523   0.955  16.402  0.3089  0.3823  0.3092
 1880TIP3    H127055   0.450   0.894  16.400 -0.1430  0.9247  0.1184
 1880TIP3    H227056   0.486   1.036  16.436  0.4152  1.1961 -1.4281
 1881TIP3   OH227057   6.165   0.407  12.154 -0.1514 -0.3159 -0.0044
 1881TIP3    H127058   6.178   0.318  12.122 -2.6433 -0.4952 -0.7688
 1881TIP3    H227059   6.073   0.426  12.136 -0.2320  1.6846  1.9735
 1882TIP3   OH227060   5.489   4.879  12.754 -0.0780  0.6078  0.2497
 1882TIP3    H127061   5.411   4.826  12.765 -0.0679  0.6878  0.7616
 1882TIP3    H227062   5.524   4.889  12.843  0.7635  0.1936 -0.0163
 1883TIP3   OH227063   5.899   2.120  16.201  0.3574 -0.2759 -0.2142
 1883TIP3    H127064   5.880   2.163  16.285 -1.1110  0.2705 -0.7880
 1883TIP3    H227065   5.826   2.145  16.145  1.0970 -0.9888 -1.5380
 1884TIP3   OH227066   2.221   4.203  11.028 -0.5793  0.3800  0.1618
 1884TIP3    H127067   2.285   4.261  10.985 -0.5581  0.9101  0.8931
 1884TIP3    H227068   2.147   4.201  10.968  0.5835 -1.2913 -1.3563
 1885TIP3   OH227069   4.787   4.968  13.188 -0.2277  0.2983 -0.5350
 1885TIP3    H127070   4.824   4.880  13.194 -1.0059  0.0611  1.5126
 1885TIP3    H227071   4.773   4.995  13.279 -0.7874  2.2187 -1.1337
 1886TIP3   OH227072   4.931   2.452   2.308 -0.1913  0.5734  0.0496
 1886TIP3    H127073   5.002   2.393   2.282 -0.5854  0.0287  0.1881
 1886TIP3    H227074   4.974   2.536   2.322  0.4389  0.2360  0.2024
 1887TIP3   OH227075   1.077   4.296   4.472 -0.7649  0.0669 -0.6553
 1887TIP3    H127076   1.155   4.345   4.495 -2.2054  1.9880  0.4148
 1887TIP3    H227077   1.071   4.303   4.377 -0.2448  0.8751 -0.6338
 1888TIP3   OH227078   5.486   1.781  14.515  0.1502 -0.4111  0.4879
 1888TIP3    H127079   5.550   1.803  14.583 -0.6272 -0.7021  1.3321
 1888TIP3    H227080   5.451   1.865  14.486  1.3745 -0.2040 -0.4506
 1889TIP3   OH227081   1.137   6.375  15.751  0.5489 -0.6668 -0.1861
 1889TIP3    H127082   1.054   6.359  15.705  1.4229  0.2825 -2.2501
 1889TIP3    H227083   1.113   6.375  15.843 -1.5385 -1.5729 -0.6486
 1890TIP3   OH227084   4.859   0.059  16.820  0.9576  0.2686  0.3273
 1890TIP3    H127085   4.825   0.066  16.731  0.7443 -0.7221  0.3198
 1890TIP3    H227086   4.883   0.148  16.843  0.9614  0.5488 -0.6984
 1891TIP3   OH227087   1.472   1.318  13.943 -0.1679  0.0146 -0.0595
 1891TIP3    H127088   1.430   1.234  13.925  1.2469 -0.5597 -0.8524
 1891TIP3    H227089   1.468   1.327  14.038  0.7886 -1.5871  0.1733
 1892TIP3   OH227090   3.776   1.207   3.319 -0.4308  0.3136 -0.1027
 1892TIP3    H127091   3.741   1.282   3.270 -1.9176  0.8857  1.6939
 1892TIP3    H227092   3.701   1.149   3.330  0.7009 -1.5134 -1.4628
 1893TIP3   OH227093   3.562   0.414   5.022  0.2308  0.0705 -0.3251
 1893TIP3    H127094   3.536   0.423   5.113  0.0600  0.8515 -0.4422
 1893TIP3    H227095   3.510   0.341   4.989  0.7229 -0.5891  0.3534
 1894TIP3   OH227096   2.897   3.400  15.829  0.4816 -0.3168 -0.9989
 1894TIP3    H127097   2.981   3.361  15.807  1.0270  1.4032 -2.2198
 1894TIP3    H227098   2.858   3.423  15.745 -0.1406  1.0320 -0.3802
 1895TIP3   OH227099   1.463   6.246  15.140 -0.4077  0.0942  0.3722
 1895TIP3    H127100   1.370   6.234  15.161 -0.6029  1.8004  0.6013
 1895TIP3    H227101   1.494   6.158  15.117 -2.3189 -0.3483 -0.7153
 1896TIP3   OH227102   3.390   5.606  15.494 -0.9017  0.3812 -0.3954
 1896TIP3    H127103   3.379   5.701  15.493 -1.7240  0.3074  0.5242
 1896TIP3    H227104   3.306   5.572  15.463 -0.4215 -0.0447 -1.2604
 1897TIP3   OH227105   2.869   4.225  16.049 -0.2710 -0.2994  0.3585
 1897TIP3    H127106   2.932   4.277  16.098 -1.6019  1.3379  0.4310
 1897TIP3    H227107   2.786   4.240  16.093 -0.7163 -2.7219  0.5199
 1898TIP3   OH227108   4.607   6.062   5.664  0.2443 -1.0172  0.1796
 1898TIP3    H127109   4.658   6.097   5.591 -0.6995  2.2023  0.8883
 1898TIP3    H227110   4.604   6.134   5.728 -1.0866 -2.8085  2.2848
 1899TIP3   OH227111   5.684   1.930   3.390 -0.5216  0.0792 -0.2669
 1899TIP3    H127112   5.732   1.965   3.464 -3.0072  2.7482  0.2866
 1899TIP3    H227113   5.749   1.883   3.338  1.5120 -0.9702  2.9939
 1900TIP3   OH227114   5.631   5.338  11.130  0.1040 -0.8061  0.3810
 1900TIP3    H127115   5.567   5.372  11.068  0.4539  1.0992  0.9871
 1900TIP3    H227116   5.674   5.267  11.083  0.2708  0.4789 -1.5629
 1901TIP3   OH227117   1.778   1.454   5.380 -0.8420 -0.0815 -0.3421
 1901TIP3    H127118   1.741   1.372   5.346  0.2897 -0.9325  0.3953
 1901TIP3    H227119   1.838   1.484   5.311 -0.2030 -0.6346 -0.0369
 1902TIP3   OH227120   0.521   5.086  11.647 -0.3082  0.2331 -0.2078
 1902TIP3    H127121   0.429   5.107  11.633 -0.0597 -0.0215 -2.9143
 1902TIP3    H227122   0.533   5.001  11.604  1.3050  0.6097 -0.5906
 1903TIP3   OH227123   4.569   1.318   6.019 -0.1174 -0.1980 -0.0483
 1903TIP3    H127124   4.591   1.316   6.112  1.3830  0.0466 -0.3821
 1903TIP3    H227125   4.646   1.354   5.976 -0.6108 -0.7312 -1.4526
 1904TIP3   OH227126   1.891   4.348  13.581  0.8439  0.1976  0.0206
 1904TIP3    H127127   1.805   4.372  13.546  0.0303 -1.6376  0.6640
 1904TIP3    H227128   1.925   4.429  13.619 -0.1471  1.1869 -1.1310
 1905TIP3   OH227129   0.314   6.608   0.099 -0.0251  0.4659 -0.0072
 1905TIP3    H127130   0.344   6.674   0.036  1.6889  0.7654  1.0497
 1905TIP3    H227131   0.395   6.578   0.141 -1.2377  2.2287  3.9697
 1906TIP3   OH227132   5.161   0.180   4.634  0.3156  0.1294  0.1459
 1906TIP3    H127133   5.231   0.227   4.589 -1.1298  0.4414 -1.8894
 1906TIP3    H227134   5.095   0.164   4.567 -0.1113 -3.2015  1.1623
 1907TIP3   OH227135   1.634   2.782  15.767  0.0403  0.2424 -0.1761
 1907TIP3    H127136   1.696   2.733  15.713 -0.5350  0.6460 -1.2409
 1907TIP3    H227137   1.551   2.735  15.756  0.1328 -0.3041  1.2426
 1908TIP3   OH227138   6.206   0.234   1.805 -0.0607  0.3426  0.0465
 1908TIP3    H127139   6.116   0.220   1.833 -0.4531  2.4648  0.0691
 1908TIP3    H227140   6.248   0.277   1.879  0.8419 -0.1620 -0.1552
 1909TIP3   OH227141   3.082   4.501   4.514 -0.4969  0.0879 -0.2739
 1909TIP3    H127142   3.141   4.480   4.441 -4.3991 -2.2861 -3.2490
 1909TIP3    H227143   3.046   4.586   4.491 -1.4960 -0.5221 -1.0907
 1910TIP3   OH227144   1.307   5.041   4.764 -0.8332 -0.3239  0.0408
 1910TIP3    H127145   1.254   5.072   4.691 -1.2210 -0.4818  0.2535
 1910TIP3    H227146   1.387   5.008   4.723 -0.9065 -0.1110 -0.2830
 1911TIP3   OH227147   6.452   2.979  11.885 -0.1622 -0.3941  0.2342
 1911TIP3    H127148   6.476   2.981  11.977  0.8600 -1.2966  0.0177
 1911TIP3    H227149   6.481   3.064  11.850  0.0255 -0.3012  0.6146
 1912TIP3   OH227150   5.224   5.457   1.149  0.5853  0.5866  0.1841
 1912TIP3    H127151   5.211   5.550   1.163  0.3862  1.5335 -4.6351
 1912TIP3    H227152   5.141   5.416   1.175  0.5452  1.7233  1.9766
 1913TIP3   OH227153   0.356   1.695  11.024 -0.0725  0.0473  0.6383
 1913TIP3    H127154   0.267   1.662  11.037 -0.3804  1.1846  1.5101
 1913TIP3    H227155   0.347   1.790  11.021  0.7428  0.1478 -2.1927
 1914TIP3   OH227156   5.793   3.315   2.761  0.4087 -1.0677  0.1252
 1914TIP3    H127157   5.825   3.390   2.812 -1.4213 -0.8415  1.0588
 1914TIP3    H227158   5.752   3.354   2.684  0.3039 -1.1784  0.1244
 1915TIP3   OH227159   2.307   2.360   5.081  0.0507 -0.0110  0.4282
 1915TIP3    H127160   2.331   2.268   5.096 -1.1376 -0.6299 -1.1952
 1915TIP3    H227161   2.322   2.403   5.166 -0.3469 -1.9112  1.5121
 1916TIP3   OH227162   6.331   6.562  13.114  0.1339 -0.0307  0.0281
 1916TIP3    H127163   6.243   6.529  13.131  0.5355 -1.5907 -0.7150
 1916TIP3    H227164   6.322   6.657  13.111 -1.6048 -0.1906 -0.4748
 1917TIP3   OH227165   3.727   5.198  16.147 -0.3269 -0.1054  0.1252
 1917TIP3    H127166   3.801   5.170  16.094  0.0628 -0.1658  0.6970
 1917TIP3    H227167   3.761   5.202  16.237 -0.3812  2.0422  0.1152
 1918TIP3   OH227168   3.454   1.975  12.727 -0.2246  0.6735  0.2361
 1918TIP3    H127169   3.366   1.956  12.761  0.1877 -0.0087  0.9590
 1918TIP3    H227170   3.501   2.012  12.803  0.1328  0.9816 -0.1312
 1919TIP3   OH227171   2.549   6.754  16.815  0.1111  0.0793  0.2520
 1919TIP3    H127172   2.497   6.796  16.883 -0.6278 -0.3781 -0.0175
 1919TIP3    H227173   2.561   6.664  16.846  0.3844  0.0683  0.1148
 1920TIP3   OH227174   0.004   6.437   0.555 -0.1356  0.2685  0.0452
 1920TIP3    H127175  -0.003   6.477   0.468  0.9277  0.8030  0.1856
 1920TIP3    H227176  -0.054   6.361   0.552  0.7516 -0.3874 -1.5182
 1921TIP3   OH227177   5.213   1.723   4.659  0.4189  0.1063 -0.0639
 1921TIP3    H127178   5.212   1.644   4.713  3.0085  0.4674  0.6253
 1921TIP3    H227179   5.185   1.793   4.718  2.5893  0.3862  0.7423
 1922TIP3   OH227180   5.949   2.356   1.327 -0.3289  0.2086 -0.3750
 1922TIP3    H127181   5.862   2.321   1.309 -0.1248  0.3604 -1.8387
 1922TIP3    H227182   5.989   2.293   1.387 -1.1947 -0.2265 -0.2514
 1923TIP3   OH227183   5.728   1.363   4.744 -0.2072  0.5391  0.0558
 1923TIP3    H127184   5.699   1.296   4.806 -1.0602  0.3061 -0.5751
 1923TIP3    H227185   5.659   1.430   4.748 -0.0056  0.7656 -0.2607
 1924TIP3   OH227186   0.127   2.807   5.811 -0.6620  0.2575 -0.6221
 1924TIP3    H127187   0.154   2.898   5.823  0.4481 -0.0922 -0.3206
 1924TIP3    H227188   0.146   2.765   5.894  2.1571 -1.0149 -1.7923
 1925TIP3   OH227189   6.606   5.203  14.657  0.6366 -0.0920 -0.2091
 1925TIP3    H127190   6.535   5.215  14.594  1.1747  0.1829 -0.7722
 1925TIP3    H227191   6.620   5.291  14.694 -0.4673 -0.4550  1.1870
 1926TIP3   OH227192   5.799   5.471   0.522  0.3980  0.0474  0.0336
 1926TIP3    H127193   5.731   5.432   0.577  0.2898 -1.2404 -0.9493
 1926TIP3    H227194   5.818   5.555   0.563 -0.4525 -0.3837  1.3919
 1927TIP3   OH227195   6.415   5.228  15.407  0.1050  0.1299  0.4345
 1927TIP3    H127196   6.347   5.184  15.459 -0.5309  0.2160 -0.2963
 1927TIP3    H227197   6.391   5.321  15.411 -0.6749  0.0219 -0.9889
 1928TIP3   OH227198   5.177   5.956   5.428  0.0550  0.5824 -0.1565
 1928TIP3    H127199   5.119   5.962   5.504 -0.4413  1.0753 -0.5630
 1928TIP3    H227200   5.231   5.879   5.445 -1.5585 -0.6419 -0.3322
 1929TIP3   OH227201   1.436   3.051   4.099  0.4692 -0.2267 -0.5931
 1929TIP3    H127202   1.364   3.022   4.043  0.5403  0.1624 -0.8857
 1929TIP3    H227203   1.515   3.019   4.055  0.4651 -0.9455 -0.1003
 1930TIP3   OH227204   1.164   6.705   2.128  0.8517  0.3329  0.1745
 1930TIP3    H127205   1.093   6.722   2.066 -1.0336 -1.1408  1.7921
 1930TIP3    H227206   1.174   6.786   2.177  0.8721  0.8203 -0.6353
 1931TIP3   OH227207   0.794   3.001   5.541 -0.2073  0.0085  0.2363
 1931TIP3    H127208   0.769   3.083   5.584  1.2401  0.5023  0.2012
 1931TIP3    H227209   0.773   3.015   5.448 -2.8831 -0.8784  0.6212
 1932TIP3   OH227210   1.850   3.709  16.005  0.8156  0.3535 -0.8600
 1932TIP3    H127211   1.897   3.792  16.000 -1.0224  1.4732 -0.7813
 1932TIP3    H227212   1.785   3.714  15.935  1.0320 -1.2836 -1.2187
 1933TIP3   OH227213   2.702   0.836   4.751 -0.0484  0.3110  0.2051
 1933TIP3    H127214   2.711   0.741   4.743  0.1084  0.4015 -0.8192
 1933TIP3    H227215   2.704   0.852   4.845 -0.8236 -0.7711  0.4303
 1934TIP3   OH227216   0.880   0.539   3.313  0.7744  0.3999 -0.1190
 1934TIP3    H127217   0.801   0.568   3.358  0.2504  0.1047 -0.8348
 1934TIP3    H227218   0.915   0.470   3.369  0.2830  0.2237 -0.0250
 1935TIP3   OH227219   3.371   1.154   0.740  0.3356  0.2288  0.3080
 1935TIP3    H127220   3.334   1.228   0.692  0.4625  1.0499  1.4254
 1935TIP3    H227221   3.314   1.144   0.817  0.2672 -0.8996  0.1324
 1936TIP3   OH227222   5.138   2.690  14.019 -0.0456  0.7455 -0.1186
 1936TIP3    H127223   5.203   2.709  13.951 -0.9575  1.7011 -0.7419
 1936TIP3    H227224   5.071   2.639  13.975  0.3876 -0.5059  0.5998
 1937TIP3   OH227225   3.266   0.349   3.512 -0.3758  1.0813 -0.2762
 1937TIP3    H127226   3.316   0.281   3.467 -0.2561  0.1325  1.2274
 1937TIP3    H227227   3.199   0.375   3.449 -0.5614 -0.5822 -0.8207
 1938TIP3   OH227228   6.251   6.601   1.810 -0.4376  0.2764  0.0283
 1938TIP3    H127229   6.231   6.609   1.903  0.9155 -0.5379  0.4124
 1938TIP3    H227230   6.230   6.687   1.773  0.1135  0.9833  1.3059
 1939TIP3   OH227231   2.236   5.981  14.890 -0.4887  0.7376 -0.2461
 1939TIP3    H127232   2.322   6.018  14.870 -0.6695  0.7094 -1.1226
 1939TIP3    H227233   2.236   5.896  14.846 -1.0143  0.7897 -0.3522
 1940TIP3   OH227234   1.097   2.539   5.084 -0.1815 -0.1107  0.1105
 1940TIP3    H127235   1.037   2.471   5.052 -0.1842  0.4146 -1.0516
 1940TIP3    H227236   1.039   2.608   5.116 -0.2300  0.4657 -1.1598
 1941TIP3   OH227237   1.300   4.269   5.483  0.3633 -0.9161 -0.0925
 1941TIP3    H127238   1.360   4.244   5.413  0.2436 -0.5979 -0.3096
 1941TIP3    H227239   1.264   4.185   5.515 -0.1172 -1.0261 -0.8879
 1942TIP3   OH227240   3.618   0.217   3.930  0.0010  0.3695  0.3774
 1942TIP3    H127241   3.619   0.201   4.025 -0.5580  0.8625  0.4759
 1942TIP3    H227242   3.567   0.298   3.920 -0.7925 -0.2077 -0.4143
 1943TIP3   OH227243   5.285   3.439   5.578 -0.4385 -0.3861  0.3090
 1943TIP3    H127244   5.373   3.428   5.613  0.2948 -0.7530 -1.5612
 1943TIP3    H227245   5.286   3.524   5.535 -0.7303 -0.7382 -0.4169
 1944TIP3   OH227246   1.524   3.236  13.205  0.7254  0.5989  0.5205
 1944TIP3    H127247   1.611   3.198  13.221  0.5699 -0.0579 -0.1262
 1944TIP3    H227248   1.538   3.330  13.203  1.1319  0.6097  2.1615
 1945TIP3   OH227249   0.843   4.983  16.100 -0.3203 -0.2123 -0.4317
 1945TIP3    H127250   0.938   4.993  16.102 -0.3779  0.2601  0.2796
 1945TIP3    H227251   0.815   4.999  16.190 -0.9556 -1.5967 -0.3549
 1946TIP3   OH227252   4.518   5.022  11.360 -0.0207 -0.2849  0.6647
 1946TIP3    H127253   4.462   5.023  11.282  0.0691 -2.1990  0.5472
 1946TIP3    H227254   4.456   5.020  11.433 -0.0989  1.0914  0.6710
 1947TIP3   OH227255   5.749   2.359  13.636  0.1358  0.3063  0.0652
 1947TIP3    H127256   5.679   2.421  13.657 -0.5162 -0.1693 -0.6481
 1947TIP3    H227257   5.828   2.412  13.635 -0.3155  0.9987  0.1581
 1948TIP3   OH227258   5.121   6.395   0.574 -0.0490 -0.9125 -0.1864
 1948TIP3    H127259   5.213   6.410   0.552 -0.1005  0.3617  0.3717
 1948TIP3    H227260   5.122   6.323   0.637  0.5566 -0.9658 -0.2560
 1949TIP3   OH227261   5.988   2.987   3.115 -0.3899  0.1890  0.1099
 1949TIP3    H127262   6.055   3.046   3.150  0.0814 -0.7790  0.9112
 1949TIP3    H227263   6.010   2.978   3.022 -0.1194  0.8035  0.1094
 1950TIP3   OH227264   4.113   0.314   1.699  0.2730 -0.0540 -0.2254
 1950TIP3    H127265   4.103   0.238   1.756  0.8067 -0.3107 -0.4610
 1950TIP3    H227266   4.142   0.277   1.616  0.6082  0.4172 -0.3197
 1951TIP3   OH227267   2.332   2.867   0.429 -0.3501 -0.2676 -0.4502
 1951TIP3    H127268   2.336   2.949   0.477  0.2083  0.9630 -2.4555
 1951TIP3    H227269   2.294   2.892   0.344 -0.3782 -2.1333 -1.0230
 1952TIP3   OH227270   2.217   0.017  12.645  0.6318  0.2530 -0.7072
 1952TIP3    H127271   2.162   0.072  12.589 -0.4941  0.3181  0.4218
 1952TIP3    H227272   2.204  -0.072  12.612  1.5111  0.5061 -1.7715
 1953TIP3   OH227273   5.498   0.475  13.006 -0.2334  0.1780 -0.2901
 1953TIP3    H127274   5.424   0.510  13.055  0.7302  1.8281  0.0638
 1953TIP3    H227275   5.542   0.416  13.067 -0.8973 -0.3526 -0.3087
 1954TIP3   OH227276   5.733   5.503  11.533 -0.2173 -0.7828 -0.6073
 1954TIP3    H127277   5.737   5.539  11.445 -0.0835 -1.2565 -0.7992
 1954TIP3    H227278   5.817   5.526  11.573  0.3455 -1.8626 -1.1253
 1955TIP3   OH227279   6.135   1.323   1.554 -0.1055 -0.2972  0.2964
 1955TIP3    H127280   6.124   1.229   1.571 -1.9543  0.0024  0.9867
 1955TIP3    H227281   6.123   1.332   1.459 -1.1083 -0.6334  0.3806
 1956TIP3   OH227282   0.768   2.164  15.028  0.4197 -0.0728 -0.8264
 1956TIP3    H127283   0.789   2.253  15.001 -1.4957  0.2914 -1.2340
 1956TIP3    H227284   0.688   2.172  15.079  0.6781 -1.4771 -0.1409
 1957TIP3   OH227285   6.173   2.041  16.230 -0.2572 -0.1019  0.0371
 1957TIP3    H127286   6.108   2.107  16.209  1.0115  1.2813  0.3309
 1957TIP3    H227287   6.171   1.981  16.156 -2.5985 -0.7342  0.5228
 1958TIP3   OH227288   3.044   4.519  15.377 -0.3413  0.4757  0.0794
 1958TIP3    H127289   3.083   4.580  15.439 -0.4346  0.5017  0.1122
 1958TIP3    H227290   2.950   4.525  15.393 -0.7253  3.0728 -2.3533
 1959TIP3   OH227291   2.371   0.244  13.978 -0.1705  0.2129  0.0386
 1959TIP3    H127292   2.365   0.300  14.055 -0.2156  1.6880 -1.0005
 1959TIP3    H227293   2.437   0.286  13.922 -0.3776 -0.6328 -0.8805
 1960TIP3   OH227294   4.066   4.629  12.198  0.0345  0.0951  0.0810
 1960TIP3    H127295   4.161   4.640  12.201  0.0926  0.0643  4.3603
 1960TIP3    H227296   4.036   4.657  12.285 -3.4742 -3.0306  0.1219
 1961TIP3   OH227297   5.202   4.869   2.871  0.5704 -0.0458 -0.1862
 1961TIP3    H127298   5.230   4.873   2.780  0.0629  0.9789 -0.3188
 1961TIP3    H227299   5.186   4.961   2.895  0.6947 -0.3002  0.9273
 1962TIP3   OH227300   6.520   3.554  14.466  0.0005 -0.5624 -0.3932
 1962TIP3    H127301   6.521   3.649  14.479  1.9853 -0.6108  0.0574
 1962TIP3    H227302   6.517   3.518  14.554 -1.2212 -0.9626 -0.5695
 1963TIP3   OH227303   4.277   6.499  15.288 -0.7876  0.1280  0.4131
 1963TIP3    H127304   4.194   6.546  15.279 -1.0841 -0.3641  0.5264
 1963TIP3    H227305   4.334   6.536  15.220 -0.8424  1.0069  0.8351
 1964TIP3   OH227306   6.535   5.508   1.730  0.0227 -0.1059  0.3175
 1964TIP3    H127307   6.525   5.474   1.819  1.0539  1.5541  1.1170
 1964TIP3    H227308   6.448   5.497   1.691 -0.6390 -0.2920  1.7479
 1965TIP3   OH227309   0.871   3.298   1.017 -0.3632  0.0527  0.1485
 1965TIP3    H127310   0.865   3.243   0.939 -0.2696 -0.2345  0.3373
 1965TIP3    H227311   0.804   3.263   1.076 -0.4715  0.3034  0.1709
 1966TIP3   OH227312   5.275   3.906  11.859 -0.3079 -0.0002 -0.1339
 1966TIP3    H127313   5.285   3.841  11.789 -0.2196  0.6121 -0.6991
 1966TIP3    H227314   5.301   3.989  11.819 -4.1957  1.1396 -0.6904
 1967TIP3   OH227315   1.470   3.823   2.560 -0.2917 -0.3310 -0.2510
 1967TIP3    H127316   1.394   3.784   2.516  1.2715 -2.0519 -1.6272
 1967TIP3    H227317   1.511   3.877   2.493  1.9880 -2.7858 -1.0255
 1968TIP3   OH227318   3.258   4.449  12.901  0.3089 -0.3370  0.5473
 1968TIP3    H127319   3.246   4.357  12.879  2.2990 -0.2240 -1.4282
 1968TIP3    H227320   3.211   4.497  12.832 -1.1304  0.1619  1.8397
 1969TIP3   OH227321   4.307   5.872   4.278 -0.5974 -0.0747 -0.3029
 1969TIP3    H127322   4.347   5.925   4.209 -0.0021 -0.9187 -0.6261
 1969TIP3    H227323   4.262   5.801   4.231 -0.6217 -0.3630  0.1473
 1970TIP3   OH227324   0.505   6.355   5.958  0.0741 -0.5195  0.3586
 1970TIP3    H127325   0.494   6.316   5.871 -0.5339 -0.8216  0.5638
 1970TIP3    H227326   0.416   6.378   5.984  0.4009  0.8722  0.3058
 1971TIP3   OH227327   4.762   4.251   2.543  0.5620 -0.2250 -0.2315
 1971TIP3    H127328   4.777   4.156   2.540 -0.6347 -0.4327 -0.1072
 1971TIP3    H227329   4.757   4.277   2.451 -0.1465 -0.4689 -0.2676
 1972TIP3   OH227330   1.704   4.551  14.097  0.7084 -0.0704  0.2061
 1972TIP3    H127331   1.670   4.608  14.167 -0.0225 -1.3721  0.9614
 1972TIP3    H227332   1.786   4.592  14.071  0.2045  1.3309  0.7060
 1973TIP3   OH227333   5.349   6.517  13.736 -0.3650  0.1032 -0.0280
 1973TIP3    H127334   5.338   6.429  13.700 -5.3961  1.0092 -1.3788
 1973TIP3    H227335   5.362   6.573  13.660  0.2726  0.8536  0.6083
 1974TIP3   OH227336   0.506   1.257   3.941  0.4779  0.0966 -0.5294
 1974TIP3    H127337   0.482   1.228   4.029  0.5778  0.8437 -0.2556
 1974TIP3    H227338   0.588   1.305   3.952  0.4997  0.1827 -1.0307
 1975TIP3   OH227339   6.701   2.541  14.571  0.1311 -0.0800  0.0433
 1975TIP3    H127340   6.754   2.525  14.650  0.2294  0.0774  0.0085
 1975TIP3    H227341   6.741   2.618  14.530  0.3736 -0.4403 -0.4126
 1976TIP3   OH227342   2.521   3.873   2.471 -0.3827  0.4152 -0.3443
 1976TIP3    H127343   2.441   3.852   2.520 -1.4412  0.5849 -1.9308
 1976TIP3    H227344   2.533   3.967   2.485 -1.1448  0.6277 -1.0269
 1977TIP3   OH227345   3.786   1.261   2.068 -0.0620 -0.3240  0.3914
 1977TIP3    H127346   3.831   1.187   2.108  2.5964  1.4241  0.9316
 1977TIP3    H227347   3.793   1.246   1.974  2.6687  0.3123  0.4136
 1978TIP3   OH227348   1.092   0.223   2.703 -0.0320  0.1260 -0.2144
 1978TIP3    H127349   1.140   0.280   2.643 -0.6088 -0.6691 -1.4786
 1978TIP3    H227350   1.009   0.206   2.659 -1.2660  0.9912  1.6589
 1979TIP3   OH227351   3.236   0.839  16.646 -0.4425  0.0314 -0.7668
 1979TIP3    H127352   3.286   0.844  16.728 -0.9392 -0.8125 -0.4030
 1979TIP3    H227353   3.195   0.753  16.648 -0.7456  0.1453 -1.7473
 1980TIP3   OH227354   2.285   2.186   5.357 -0.0050 -0.4632 -0.3217
 1980TIP3    H127355   2.328   2.123   5.415 -0.4092 -0.4252  0.0274
 1980TIP3    H227356   2.265   2.136   5.278  1.7060 -0.1856 -0.9547
 1981TIP3   OH227357   1.477   4.649   3.077 -0.7799  0.1534  0.2058
 1981TIP3    H127358   1.555   4.598   3.098 -0.7955 -0.6975 -1.5918
 1981TIP3    H227359   1.408   4.611   3.132  0.0849  1.1276  2.0443
 1982TIP3   OH227360   1.564   3.679  17.019  0.4353 -0.0295 -0.5966
 1982TIP3    H127361   1.513   3.748  17.062  0.4743  0.1869 -0.8917
 1982TIP3    H227362   1.644   3.723  16.990  1.5758 -0.7219  1.3366
 1983TIP3   OH227363   1.922   3.120   3.744 -0.0313  0.7020  0.3168
 1983TIP3    H127364   2.010   3.156   3.733  0.4477 -0.9093 -2.0218
 1983TIP3    H227365   1.905   3.125   3.838  3.1458 -0.1799  1.0659
 1984TIP3   OH227366   3.599   0.850  11.161 -0.7432 -0.1069  0.6728
 1984TIP3    H127367   3.614   0.756  11.154 -2.1372 -0.4042  1.2223
 1984TIP3    H227368   3.683   0.890  11.139 -0.2963 -1.4526 -0.1798
 1985TIP3   OH227369   4.090   1.537  12.926 -0.1316 -1.0007 -0.1652
 1985TIP3    H127370   4.146   1.545  13.003 -0.4315 -0.4930  0.0083
 1985TIP3    H227371   4.032   1.613  12.930  0.5489 -0.3758 -1.4684
 1986TIP3   OH227372   1.554   4.800  16.501  0.4068  0.0018  0.3065
 1986TIP3    H127373   1.646   4.825  16.496  0.6567 -0.2450  2.7099
 1986TIP3    H227374   1.555   4.709  16.529 -0.5238  0.4801  2.0313
 1987TIP3   OH227375   3.294   4.952   5.235 -0.9838  0.4559 -0.5818
 1987TIP3    H127376   3.217   4.956   5.292  0.0835  0.9814  0.8757
 1987TIP3    H227377   3.282   5.024   5.174 -1.4562  0.8034 -0.0911
 1988TIP3   OH227378   0.011   0.692   3.550  0.5990 -0.0244  0.1146
 1988TIP3    H127379  -0.078   0.695   3.586  0.3640  1.2331 -0.4676
 1988TIP3    H227380   0.067   0.675   3.625 -0.1662 -1.2797  0.4233
 1989TIP3   OH227381   4.788   0.200   5.692  0.2147 -0.5150  0.4471
 1989TIP3    H127382   4.791   0.291   5.722  1.3869 -0.1899 -0.5654
 1989TIP3    H227383   4.876   0.165   5.710  0.4646 -0.7652 -1.1303
 1990TIP3   OH227384   0.092   2.001  14.615 -0.2820 -0.4511  0.0432
 1990TIP3    H127385   0.131   1.951  14.687  2.3711  0.8558 -0.3863
 1990TIP3    H227386   0.105   2.093  14.640  2.1315  0.0893 -2.7174
 1991TIP3   OH227387   6.195   5.053  15.511 -0.4809 -0.4057 -0.0950
 1991TIP3    H127388   6.231   4.979  15.560  0.4516  0.3850  0.4484
 1991TIP3    H227389   6.128   5.091  15.568  0.4868  0.4117  0.5447
 1992TIP3   OH227390   4.793   4.186   4.097  0.4556  0.2403  0.1590
 1992TIP3    H127391   4.857   4.219   4.034 -0.1917  0.8286 -0.2143
 1992TIP3    H227392   4.749   4.114   4.051 -0.4014  1.0322 -0.2951
 1993TIP3   OH227393   3.371   3.031   0.444  0.5041  0.2161 -0.3115
 1993TIP3    H127394   3.452   3.035   0.395  0.0163  1.2516 -1.0857
 1993TIP3    H227395   3.389   3.081   0.524  0.4948  0.8964 -0.7214
 1994TIP3   OH227396   3.709   0.693   3.772  0.5392  0.0722  0.4497
 1994TIP3    H127397   3.763   0.695   3.693  0.7328 -0.9348  0.5480
 1994TIP3    H227398   3.624   0.727   3.743  0.2603 -1.3578 -0.4743
 1995TIP3   OH227399   3.432   1.511  13.310 -0.0927  0.8187 -0.7508
 1995TIP3    H127400   3.496   1.440  13.321 -2.4226 -1.0965  1.5271
 1995TIP3    H227401   3.461   1.579  13.370 -0.0239  0.0713  0.0811
 1996TIP3   OH227402   0.621   4.073  14.745 -0.9556  0.3976 -0.4475
 1996TIP3    H127403   0.678   4.049  14.672 -1.2520 -1.0236 -0.2477
 1996TIP3    H227404   0.656   4.024  14.820 -0.6839  1.7928  0.3811
 1997TIP3   OH227405   2.552   6.776  15.347 -0.6693 -0.0790  0.1750
 1997TIP3    H127406   2.467   6.805  15.381 -0.2409  1.3359  0.1040
 1997TIP3    H227407   2.568   6.833  15.273  1.0212  0.6810  1.0831
 1998TIP3   OH227408   1.007   3.043   3.219 -0.0996 -0.3800  0.2700
 1998TIP3    H127409   1.093   3.071   3.250  0.1051  0.0618 -0.6677
 1998TIP3    H227410   1.011   3.055   3.124 -1.1909 -0.3701  0.2199
 1999TIP3   OH227411   0.703   3.500   5.746 -0.2680  0.0812 -0.4558
 1999TIP3    H127412   0.757   3.573   5.717 -2.3293  2.4050  1.0941
 1999TIP3    H227413   0.614   3.536   5.749 -1.4932 -2.6955 -0.1602
 2000TIP3   OH227414   6.279   5.943   2.352  0.1385  0.0457  0.5841
 2000TIP3    H127415   6.306   5.851   2.351 -0.9981 -0.3950  2.9763
 2000TIP3    H227416   6.324   5.982   2.277  0.3459 -2.5207 -0.7388
 2001TIP3   OH227417   0.881   6.469   1.544 -0.0482  0.1018 -0.6188
 2001TIP3    H127418   0.921   6.496   1.626 -0.8253  0.7678 -0.4402
 2001TIP3    H227419   0.951   6.477   1.479  0.1436  1.1564 -0.3012
 2002TIP3   OH227420   2.002   1.026  15.858  1.0678  0.1798  0.3681
 2002TIP3    H127421   1.956   1.107  15.879  1.3164 -0.0103  1.6750
 2002TIP3    H227422   1.935   0.958  15.861  0.4357  0.5079 -2.5929
 2003TIP3   OH227423   0.067   0.692   0.600 -0.4964 -0.0736  0.1070
 2003TIP3    H127424  -0.004   0.689   0.665 -0.1540  1.0549  0.5541
 2003TIP3    H227425   0.036   0.752   0.533  0.0778  0.5081  0.3590
 2004TIP3   OH227426   5.379   0.534  12.755  0.1021  0.6038 -0.3069
 2004TIP3    H127427   5.334   0.493  12.682  1.4125 -1.3415 -0.1092
 2004TIP3    H227428   5.392   0.463  12.818 -0.3819  2.0688  1.5407
 2005TIP3   OH227429   3.965   6.083  13.980  0.7079 -0.0985  0.0066
 2005TIP3    H127430   3.976   6.162  13.927  0.7019  0.2382  0.4986
 2005TIP3    H227431   4.054   6.058  14.004  0.7155 -0.2980 -0.2321
 2006TIP3   OH227432   0.696   3.978  16.141 -0.5364  0.0695 -0.1781
 2006TIP3    H127433   0.788   3.973  16.166 -0.7867 -0.5725  0.6157
 2006TIP3    H227434   0.699   4.015  16.052  0.4485  0.5684  0.0393
 2007TIP3   OH227435   4.816   4.310  14.459  0.0957  0.3967 -0.6341
 2007TIP3    H127436   4.757   4.375  14.421  2.3063  2.2045 -1.1997
 2007TIP3    H227437   4.771   4.227  14.448 -2.7314  1.7339 -0.1931
 2008TIP3   OH227438   0.263   4.406   0.495  0.0819 -0.0653  0.1930
 2008TIP3    H127439   0.323   4.332   0.500 -0.4109 -0.5405 -0.6151
 2008TIP3    H227440   0.318   4.484   0.507  1.1310 -0.3950 -1.9429
 2009TIP3   OH227441   0.964   3.368  15.036  0.0886  1.1844 -0.3175
 2009TIP3    H127442   1.055   3.337  15.028 -0.1225 -0.0563  1.4745
 2009TIP3    H227443   0.925   3.310  15.101 -2.4441  0.7315 -2.0920
 2010TIP3   OH227444   1.920   6.026  11.007 -0.2920 -0.1805 -0.4244
 2010TIP3    H127445   2.008   6.037  10.970  0.1969  0.8030  0.9612
 2010TIP3    H227446   1.885   6.115  11.012 -1.2990 -0.5424 -0.7525
 2011TIP3   OH227447   4.559   3.959   3.438 -0.0801 -0.2255 -0.1916
 2011TIP3    H127448   4.649   3.957   3.473 -0.3497  1.4096  0.7465
 2011TIP3    H227449   4.505   3.975   3.516 -1.2203 -1.4086 -0.7193
 2012TIP3   OH227450   0.668   0.349  15.341  0.4600  0.2120 -0.0144
 2012TIP3    H127451   0.677   0.306  15.256  0.2975  0.4865 -0.1720
 2012TIP3    H227452   0.743   0.319  15.391 -0.4268 -1.4600  0.3978
 2013TIP3   OH227453   0.556   2.822  14.042  0.7632  0.3385 -0.3666
 2013TIP3    H127454   0.614   2.893  14.070  0.8365 -1.2441  4.4661
 2013TIP3    H227455   0.469   2.863  14.041  0.9354  0.8571  1.3144
 2014TIP3   OH227456   2.594   5.945   1.579  1.0485  0.4426 -0.0148
 2014TIP3    H127457   2.527   5.933   1.512  0.5953 -0.8280  0.6570
 2014TIP3    H227458   2.675   5.914   1.537  0.9880  0.7172 -0.3478
 2015TIP3   OH227459   3.091   3.026  16.690  0.3277 -0.3449  0.2822
 2015TIP3    H127460   3.092   2.978  16.607  0.3878  1.2091 -0.6640
 2015TIP3    H227461   3.158   2.983  16.743  2.2816  0.2741 -1.5057
 2016TIP3   OH227462   4.961   5.393  14.239 -0.4157  0.0732 -0.2326
 2016TIP3    H127463   4.905   5.382  14.163  0.8898 -1.8434 -1.0142
 2016TIP3    H227464   5.039   5.437  14.205  0.4606 -1.3906 -0.1960
 2017TIP3   OH227465   5.904   4.196  15.557  0.0712  0.2111  0.4188
 2017TIP3    H127466   5.866   4.238  15.480  0.4806 -1.0198 -0.5026
 2017TIP3    H227467   5.923   4.267  15.618 -0.2032  1.2153 -0.6519
 2018TIP3   OH227468   3.408   1.453  12.359 -0.2376 -0.2884 -0.5866
 2018TIP3    H127469   3.405   1.449  12.455 -1.5783 -1.7120 -0.6426
 2018TIP3    H227470   3.493   1.415  12.336  0.0059 -0.1331  0.0313
 2019TIP3   OH227471   4.533   4.962   4.533 -0.7598  0.2701 -0.0920
 2019TIP3    H127472   4.529   4.927   4.622  1.5216  1.9086  0.7523
 2019TIP3    H227473   4.575   4.893   4.482  0.2278  0.2683  0.6925
 2020TIP3   OH227474   2.471   6.444  11.844  0.2246 -0.0070 -0.3410
 2020TIP3    H127475   2.469   6.394  11.926 -0.1587  0.0073 -0.3388
 2020TIP3    H227476   2.564   6.454  11.824  0.3905  1.4048  0.9522
 2021TIP3   OH227477   5.636   5.430   2.933 -0.4990  0.0990  0.6808
 2021TIP3    H127478   5.574   5.503   2.938 -0.1661  0.3421  1.4824
 2021TIP3    H227479   5.584   5.353   2.955 -0.9161  0.0332 -0.4339
 2022TIP3   OH227480   1.592   0.949   0.821 -0.0078 -0.0330 -0.5016
 2022TIP3    H127481   1.531   0.885   0.857 -1.1211  1.5544  0.5780
 2022TIP3    H227482   1.678   0.919   0.850 -0.6276 -0.3404  1.1107
 2023TIP3   OH227483   2.743   2.750   2.591  0.0833  0.0138  0.4947
 2023TIP3    H127484   2.658   2.793   2.594 -0.2562 -0.3152 -2.0469
 2023TIP3    H227485   2.732   2.670   2.642 -0.6680  0.6894  1.4119
 2024TIP3   OH227486   3.183   4.436  10.992 -0.7914 -0.3645 -0.2056
 2024TIP3    H127487   3.145   4.516  10.956  0.0574 -0.1811 -0.7273
 2024TIP3    H227488   3.276   4.442  10.970 -0.6488 -1.3051  0.1016
 2025TIP3   OH227489   0.756   2.209  16.813  0.5019 -0.1067 -0.1062
 2025TIP3    H127490   0.727   2.300  16.808  0.7252 -0.0523 -0.4292
 2025TIP3    H227491   0.751   2.188  16.907 -0.5542 -0.0984 -0.1498
 2026TIP3   OH227492   6.065   5.347   1.528 -0.2031 -0.2715  0.1861
 2026TIP3    H127493   6.041   5.276   1.587  0.7918 -0.8642 -0.1087
 2026TIP3    H227494   6.025   5.425   1.567 -1.2242 -0.9706  0.5609
 2027TIP3   OH227495   5.921   3.677   2.463 -0.5020  0.0863 -0.7540
 2027TIP3    H127496   5.846   3.660   2.520 -0.6485  0.0029 -0.9718
 2027TIP3    H227497   5.986   3.613   2.489 -0.5659  0.0534 -0.6741
 2028TIP3   OH227498   2.074   2.918  13.706 -0.4058 -0.2696 -0.7113
 2028TIP3    H127499   2.160   2.892  13.740  0.5091  0.5770 -2.2797
 2028TIP3    H227500   2.018   2.920  13.783  0.7672 -1.6670  0.2269
 2029TIP3   OH227501   4.675   6.677   4.079  0.1450 -0.0804 -0.0867
 2029TIP3    H127502   4.655   6.709   4.167  1.2473 -1.6966  0.7932
 2029TIP3    H227503   4.676   6.757   4.025 -1.4564  0.8430  1.1434
 2030TIP3   OH227504   2.858   6.620  15.173 -0.2985  0.3662 -0.0688
 2030TIP3    H127505   2.827   6.547  15.227 -0.2554  3.1384  4.1331
 2030TIP3    H227506   2.952   6.622  15.187 -0.0290  0.2420 -1.6449
 2031TIP3   OH227507   6.255   2.579  13.588  0.1434 -0.0059 -0.2039
 2031TIP3    H127508   6.314   2.644  13.550  0.4761 -0.2467 -0.1024
 2031TIP3    H227509   6.311   2.526  13.644 -0.4067  0.5825  0.9380
 2032TIP3   OH227510   1.874   0.552   2.412  0.2335 -0.2311 -1.4362
 2032TIP3    H127511   1.805   0.571   2.476  2.6455 -0.1963  1.3626
 2032TIP3    H227512   1.843   0.593   2.331 -2.2644  1.1849  0.0843
 2033TIP3   OH227513   1.253   1.725   1.680  0.3137 -0.3228  0.5811
 2033TIP3    H127514   1.344   1.742   1.656  0.3578 -0.7145  0.4595
 2033TIP3    H227515   1.219   1.671   1.608 -0.4208  0.9607 -0.0699
 2034TIP3   OH227516   2.946   0.803   0.783  0.0446  0.5247 -0.5426
 2034TIP3    H127517   2.870   0.746   0.771  0.3965  0.0786 -0.6925
 2034TIP3    H227518   3.018   0.756   0.742  0.0745  1.7468 -1.9444
 2035TIP3   OH227519   6.504   3.478   3.481 -1.1298  0.5440 -0.3049
 2035TIP3    H127520   6.577   3.485   3.419 -1.6810 -0.1081 -1.0539
 2035TIP3    H227521   6.495   3.383   3.495 -0.3985  0.7154  1.5311
 2036TIP3   OH227522   6.088   4.017  13.691 -0.6290  0.5834 -0.1750
 2036TIP3    H127523   6.167   3.963  13.678 -0.0887  1.3610 -0.1628
 2036TIP3    H227524   6.051   3.985  13.773  0.6539  1.3899  0.7639
 2037TIP3   OH227525   6.213   6.722   1.477 -0.0854  0.0023  0.1164
 2037TIP3    H127526   6.143   6.657   1.472 -0.7097  0.6110  0.7864
 2037TIP3    H227527   6.294   6.670   1.480 -0.6463 -0.8716  2.9206
 2038TIP3   OH227528   4.314   5.212  12.524 -0.0066  0.3474 -0.1540
 2038TIP3    H127529   4.259   5.219  12.446  1.1718  2.1445 -0.9148
 2038TIP3    H227530   4.397   5.178  12.491  0.5320  1.2020  0.2660
 2039TIP3   OH227531   4.553   2.327   1.144  0.2698 -0.3798 -0.8252
 2039TIP3    H127532   4.457   2.325   1.144  0.1371  2.0270 -2.4543
 2039TIP3    H227533   4.578   2.235   1.133 -1.8406 -1.0472 -0.6224
 2040TIP3   OH227534   5.533   2.928   2.149 -0.5460  0.4247  0.1132
 2040TIP3    H127535   5.474   3.002   2.159 -2.3191 -0.8969 -0.1954
 2040TIP3    H227536   5.610   2.964   2.103 -0.8357  2.2912  1.0310
 2041TIP3   OH227537   5.010   6.209   2.770 -0.2095  0.3911 -0.0591
 2041TIP3    H127538   4.978   6.275   2.708  1.4222  1.2373 -0.0471
 2041TIP3    H227539   5.090   6.176   2.730  0.8734  0.9380  1.5848
 2042TIP3   OH227540   3.370   4.916   3.921  0.2507  0.1698 -0.3009
 2042TIP3    H127541   3.433   4.877   3.860  0.1367  0.9740 -0.9492
 2042TIP3    H227542   3.411   4.998   3.948  0.0592  0.0722  0.3089
 2043TIP3   OH227543   4.920   1.558  14.473 -0.5924  0.5893  0.5488
 2043TIP3    H127544   4.982   1.525  14.538 -0.5451 -0.0541  0.1861
 2043TIP3    H227545   4.883   1.637  14.513 -0.0331  0.6080  1.0471
 2044TIP3   OH227546   6.394   2.377  13.727  0.6063  0.0345  0.0767
 2044TIP3    H127547   6.395   2.297  13.676 -0.0763 -0.0887  0.2500
 2044TIP3    H227548   6.363   2.351  13.813  2.6217  0.0672  0.8771
 2045TIP3   OH227549   4.056   1.017  16.479  0.6579 -0.1658 -0.0978
 2045TIP3    H127550   4.057   0.921  16.479 -0.3196 -0.1876  0.4723
 2045TIP3    H227551   4.034   1.041  16.389  1.0443 -0.4664 -0.2740
 2046TIP3   OH227552   5.241   4.864  11.662 -0.5836 -0.2341 -0.0262
 2046TIP3    H127553   5.174   4.889  11.725  0.2540 -0.1121  0.8345
 2046TIP3    H227554   5.253   4.942  11.608 -0.7530 -0.0792  0.1574
 2047TIP3   OH227555   6.212   1.217   5.751  0.2829 -0.5316  0.5842
 2047TIP3    H127556   6.273   1.274   5.799  0.9267 -1.4912  0.9460
 2047TIP3    H227557   6.243   1.129   5.770  0.3263 -0.9569 -1.3255
 2048TIP3   OH227558   3.959   5.387   5.219  0.2220  0.2605 -0.7297
 2048TIP3    H127559   3.891   5.424   5.276  1.2813  1.6321 -0.2909
 2048TIP3    H227560   3.970   5.453   5.150  1.7361  0.5187 -0.2735
 2049TIP3   OH227561   1.898   0.537  16.431 -0.8545 -0.5367 -0.4634
 2049TIP3    H127562   1.857   0.525  16.345  1.6457  0.2488 -1.8510
 2049TIP3    H227563   1.866   0.622  16.461 -0.6122 -0.1338 -1.3165
 2050TIP3   OH227564   4.515   5.001  11.758 -0.8127 -0.0291  0.3646
 2050TIP3    H127565   4.504   4.909  11.734 -0.7804 -0.2196  1.0627
 2050TIP3    H227566   4.477   5.008  11.846 -0.9224  0.6508  0.2738
 2051TIP3   OH227567   2.134   3.946  10.892 -0.4193  0.4878  0.5203
 2051TIP3    H127568   2.172   3.934  10.979  0.2177  1.7515  0.4433
 2051TIP3    H227569   2.070   4.017  10.903 -0.5320  0.4681  0.0214
 2052TIP3   OH227570   2.653   5.930   3.531 -0.2889 -0.4772 -0.1856
 2052TIP3    H127571   2.668   5.836   3.541 -0.2018 -0.4734 -0.2792
 2052TIP3    H227572   2.716   5.971   3.590 -0.5541 -0.4855  0.1077
 2053TIP3   OH227573   1.419   0.051   4.308  0.1431 -0.0461 -0.0308
 2053TIP3    H127574   1.434   0.102   4.228 -0.4768  1.2450  0.6503
 2053TIP3    H227575   1.492   0.075   4.365  0.2021 -0.4181  0.0481
 2054TIP3   OH227576   1.820   3.532  13.879  0.1215  0.4450 -0.1957
 2054TIP3    H127577   1.835   3.582  13.798 -1.2040  0.8571 -0.2127
 2054TIP3    H227578   1.792   3.598  13.942 -3.8720 -0.4206 -0.8027
 2055TIP3   OH227579   3.341   5.986  15.955  0.1316  0.4694 -0.3130
 2055TIP3    H127580   3.260   6.000  16.004 -1.2237  1.0778 -2.5836
 2055TIP3    H227581   3.347   5.891  15.944  0.8953  0.2421  1.6099
 2056TIP3   OH227582   3.248   4.847  13.973 -0.2444 -0.1765  0.3655
 2056TIP3    H127583   3.216   4.807  14.054 -0.2023  0.0765  0.5078
 2056TIP3    H227584   3.174   4.839  13.913 -0.5005  0.1996  0.6238
 2057TIP3   OH227585   2.304   4.102   4.076  0.5745 -0.0879  0.0186
 2057TIP3    H127586   2.273   4.040   4.143  0.1375  0.5373  0.4058
 2057TIP3    H227587   2.224   4.128   4.030  0.9866 -1.3581 -1.5093
 2058TIP3   OH227588   0.145   6.809   3.593 -0.2425  0.1967 -0.0636
 2058TIP3    H127589   0.150   6.753   3.671 -1.1168  0.6645  0.3530
 2058TIP3    H227590   0.232   6.847   3.585 -0.7323  2.0783  2.2057
 2059TIP3   OH227591   0.069   2.446  14.199 -0.1156 -0.0487 -0.5237
 2059TIP3    H127592   0.029   2.366  14.165  1.0948 -0.4790 -0.9796
 2059TIP3    H227593   0.157   2.420  14.225  0.3931  1.1945 -0.9314
 2060TIP3   OH227594   0.357   2.002   0.336 -0.4543  0.3636  0.6689
 2060TIP3    H127595   0.411   2.004   0.257 -0.1743 -1.6877  0.7600
 2060TIP3    H227596   0.351   2.094   0.362  0.6490  0.9448 -0.9121
 2061TIP3   OH227597   4.164   5.536   4.187  1.1490 -0.0409  0.6546
 2061TIP3    H127598   4.162   5.440   4.192  0.5694  0.0323  3.6614
 2061TIP3    H227599   4.097   5.558   4.122  0.3544 -1.6475  0.8815
 2062TIP3   OH227600   5.415   3.282  15.969 -0.6707  0.4486 -0.1648
 2062TIP3    H127601   5.348   3.346  15.944 -0.5463  0.2675 -0.9859
 2062TIP3    H227602   5.366   3.202  15.988 -0.7819  0.6386  0.3633
 2063TIP3   OH227603   1.898   4.242   0.789 -0.2319 -0.4655 -0.2406
 2063TIP3    H127604   1.857   4.156   0.791 -3.5040  0.9025 -1.7868
 2063TIP3    H227605   1.868   4.286   0.868 -1.2332  0.2867 -1.0060
 2064TIP3   OH227606   1.035   3.082   2.670  0.2706  0.6191 -0.7931
 2064TIP3    H127607   0.946   3.077   2.634  0.4049 -1.1921 -0.9811
 2064TIP3    H227608   1.090   3.108   2.596 -0.0137  1.0668 -0.8466
 2065TIP3   OH227609   0.938   6.061  11.218 -0.0257  0.2218  0.0568
 2065TIP3    H127610   0.881   6.078  11.143  0.4762  0.5232 -0.2530
 2065TIP3    H227611   0.902   5.980  11.256  0.1907 -0.3818 -0.9699
 2066TIP3   OH227612   4.768   1.678  16.439 -0.5266  0.1484  0.4533
 2066TIP3    H127613   4.803   1.603  16.390  1.7973  0.9286  0.8093
 2066TIP3    H227614   4.722   1.638  16.514 -1.6851 -0.9564 -0.7952
 2067TIP3   OH227615   2.813   4.077  12.077 -0.2945 -0.1337 -0.0812
 2067TIP3    H127616   2.776   4.146  12.131  1.9341 -0.4884  2.0854
 2067TIP3    H227617   2.829   4.005  12.137  1.5266 -0.8743 -1.3491
 2068TIP3   OH227618   1.863   0.963   0.917  0.2427  0.7439  0.1828
 2068TIP3    H127619   1.957   0.960   0.935 -0.2170 -1.1716  2.8336
 2068TIP3    H227620   1.827   1.017   0.987 -0.8966 -0.8622  0.8933
 2069TIP3   OH227621   5.852   0.110  14.985 -0.0067 -0.2426  0.0147
 2069TIP3    H127622   5.874   0.157  14.904  0.3268  0.1842  0.3449
 2069TIP3    H227623   5.931   0.062  15.008 -0.6303 -1.7395 -0.8175
 2070TIP3   OH227624   2.984   6.188  11.554  0.4245 -0.4645  0.5418
 2070TIP3    H127625   3.031   6.148  11.481  0.2975 -1.5007  0.9978
 2070TIP3    H227626   3.029   6.270  11.570 -0.1999  0.3035 -1.3695
 2071TIP3   OH227627   0.704   0.518   1.758 -0.0777  0.2144 -0.1447
 2071TIP3    H127628   0.698   0.548   1.848  1.4607 -0.8970  0.3706
 2071TIP3    H227629   0.649   0.440   1.754  0.5905 -0.2801  0.1040
 2072TIP3   OH227630   2.106   5.062  16.104  0.2915 -0.0672 -0.4930
 2072TIP3    H127631   2.151   5.065  16.019 -1.1800  0.9155 -1.2723
 2072TIP3    H227632   2.104   5.152  16.134 -0.7278 -0.1631 -0.2433
 2073TIP3   OH227633   6.683   4.668   0.922  0.4395 -0.4095 -0.1940
 2073TIP3    H127634   6.751   4.734   0.936  0.7490 -0.7015 -0.3035
 2073TIP3    H227635   6.723   4.605   0.862 -0.1370 -0.2757 -0.7300
 2074TIP3   OH227636   4.632   6.727  16.094  0.6461  0.5441  0.0350
 2074TIP3    H127637   4.669   6.681  16.019 -0.7195 -1.1849  0.3719
 2074TIP3    H227638   4.677   6.690  16.170 -0.6970 -0.5538  0.3329
 2075TIP3   OH227639   1.097   1.122   2.888 -0.1658 -0.3755  0.3481
 2075TIP3    H127640   1.067   1.105   2.799 -3.0855  0.5483  1.0395
 2075TIP3    H227641   1.155   1.198   2.880 -0.0416 -0.5705 -0.7931
 2076TIP3   OH227642   2.879   5.363  14.329  0.1075  0.1850  0.3924
 2076TIP3    H127643   2.900   5.273  14.354 -0.9455 -0.2165 -0.1243
 2076TIP3    H227644   2.816   5.393  14.394 -1.5746 -0.3879 -0.9159
 2077TIP3   OH227645   0.805   5.366  10.944 -0.3212 -0.1945 -0.0975
 2077TIP3    H127646   0.884   5.370  10.997 -1.3447 -1.0237  1.5801
 2077TIP3    H227647   0.831   5.402  10.859  1.2627  1.6318  1.0770
 2078TIP3   OH227648   3.561   5.302  10.696 -0.5166 -0.6239  0.2142
 2078TIP3    H127649   3.501   5.252  10.752 -1.0329 -0.1393  0.1112
 2078TIP3    H227650   3.503   5.357  10.643 -0.0619 -1.3630 -1.0919
 2079TIP3   OH227651   5.507   0.892  15.014  0.7580  0.1058 -0.2981
 2079TIP3    H127652   5.584   0.851  14.974 -0.5887 -0.5512 -2.3985
 2079TIP3    H227653   5.439   0.826  15.008 -0.5277  1.4035 -0.4539
 2080TIP3   OH227654   6.142   1.999   2.469  0.2040  0.1094 -0.0866
 2080TIP3    H127655   6.058   2.028   2.505 -0.3028 -0.7288 -0.5694
 2080TIP3    H227656   6.177   1.939   2.535 -0.2591 -0.6588 -0.5338
 2081TIP3   OH227657   6.643   4.366   0.056 -0.2346 -0.0639  0.3468
 2081TIP3    H127658   6.584   4.291   0.051 -1.6675  0.9580  1.0954
 2081TIP3    H227659   6.720   4.332   0.102  0.6011 -1.8697 -2.1837
 2082TIP3   OH227660   3.848   0.841   6.628 -0.0899  0.0125 -0.6433
 2082TIP3    H127661   3.849   0.842   6.532  1.6111  0.8568 -0.6478
 2082TIP3    H227662   3.914   0.906   6.654  0.0658 -0.7798  1.1049
 2083TIP3   OH227663   2.251   6.510  12.748  0.1678 -0.4535  0.1216
 2083TIP3    H127664   2.303   6.432  12.728  0.6159  0.2772 -1.7988
 2083TIP3    H227665   2.304   6.583  12.718 -0.8422  0.5037  0.5827
 2084TIP3   OH227666   2.390   2.853  10.934  0.0592 -0.2596  0.1859
 2084TIP3    H127667   2.409   2.783  10.872 -0.5716  0.1725 -0.5125
 2084TIP3    H227668   2.300   2.879  10.913 -0.3953 -0.5120  1.6797
 2085TIP3   OH227669   5.752   6.728  12.851  0.2610 -0.8623 -0.0686
 2085TIP3    H127670   5.707   6.697  12.929 -0.9362 -1.2019 -0.8569
 2085TIP3    H227671   5.727   6.666  12.782  0.5683 -0.0871 -0.9104
 2086TIP3   OH227672   2.266   2.127   5.773 -0.0900 -0.1625 -0.2087
 2086TIP3    H127673   2.179   2.147   5.738 -0.5819 -0.2243  0.9325
 2086TIP3    H227674   2.254   2.128   5.868  0.7950 -1.7878 -0.0477
 2087TIP3   OH227675   6.759   1.849  15.743  0.4224  0.2916 -0.1948
 2087TIP3    H127676   6.758   1.941  15.771 -1.2868 -0.4449  2.5513
 2087TIP3    H227677   6.832   1.811  15.792 -1.3313 -0.5685  1.9467
 2088TIP3   OH227678   2.517   1.800   4.446  0.7847  0.5112 -0.0618
 2088TIP3    H127679   2.588   1.838   4.498  1.0812 -0.8861  0.5827
 2088TIP3    H227680   2.482   1.730   4.500 -1.7015  1.6962  0.0254
 2089TIP3   OH227681   2.941   1.843   2.628  0.0169 -0.4294 -0.0570
 2089TIP3    H127682   2.887   1.765   2.617  0.4274 -1.0751  2.1324
 2089TIP3    H227683   3.029   1.810   2.646 -0.1940  0.3843  3.0327
 2090TIP3   OH227684   5.599   4.934   0.250 -0.1779 -0.3660  0.0415
 2090TIP3    H127685   5.602   4.896   0.162 -0.8204 -2.5048  0.8792
 2090TIP3    H227686   5.690   4.931   0.280  0.2949  1.7227 -1.0376
 2091TIP3   OH227687   0.012   5.689   5.913 -0.6347 -0.2012 -0.2763
 2091TIP3    H127688   0.049   5.737   5.987  0.6796  0.9481 -1.6319
 2091TIP3    H227689   0.087   5.648   5.871 -1.1227  0.5156 -1.9201
 2092TIP3   OH227690   3.874   0.287  16.624  0.0138 -0.0993  0.8415
 2092TIP3    H127691   3.843   0.311  16.711  0.3266 -0.3694  1.0296
 2092TIP3    H227692   3.799   0.245  16.582  0.1977 -0.9972  1.3899
 2093TIP3   OH227693   0.300   6.352  11.065 -0.1085 -0.1796 -0.4776
 2093TIP3    H127694   0.287   6.257  11.064  2.0736 -0.5318  0.2212
 2093TIP3    H227695   0.287   6.378  10.973 -0.7958 -1.1112 -0.6688
 2094TIP3   OH227696   6.814   2.652  13.372  0.3146  0.4689  0.1101
 2094TIP3    H127697   6.825   2.720  13.439  0.5253  1.6918 -1.1254
 2094TIP3    H227698   6.724   2.621  13.383  0.7071 -0.2025  1.7087
 2095TIP3   OH227699   4.877   0.929  14.678 -0.5331  0.5220 -0.4445
 2095TIP3    H127700   4.807   0.886  14.629  1.1708 -2.9735 -0.1099
 2095TIP3    H227701   4.920   0.987  14.615 -1.1833 -0.4344 -1.8131
 2096TIP3   OH227702   3.277   1.552   0.297 -0.1909  0.0473 -0.3313
 2096TIP3    H127703   3.279   1.491   0.223 -0.2962  0.8889 -1.0450
 2096TIP3    H227704   3.360   1.598   0.292  0.0198 -0.2366  0.3922
 2097TIP3   OH227705   6.225   3.671   1.934 -0.3976 -0.6802  0.3822
 2097TIP3    H127706   6.280   3.676   2.012  0.0590 -1.8715  0.1520
 2097TIP3    H227707   6.249   3.588   1.893 -1.3999 -0.5725 -0.4552
 2098TIP3   OH227708   1.314   6.390  12.382  0.1409 -0.6429 -0.0314
 2098TIP3    H127709   1.334   6.483  12.396  0.2180 -0.8289  1.1397
 2098TIP3    H227710   1.396   6.353  12.349  0.2281 -0.3878 -0.1079
 2099TIP3   OH227711   4.639   3.449   5.192 -0.6398 -0.2671 -0.3590
 2099TIP3    H127712   4.671   3.539   5.201 -1.5412 -0.0213  0.5315
 2099TIP3    H227713   4.682   3.416   5.113  1.8572  0.0002  0.7863
 2100TIP3   OH227714   5.641   4.905  13.373  0.0536  0.2764  0.5771
 2100TIP3    H127715   5.703   4.837  13.397 -0.4345 -0.2294  0.4305
 2100TIP3    H227716   5.604   4.875  13.290  0.5163  1.1872  0.0299
 2101TIP3   OH227717   1.658   0.184  16.445 -0.1700 -0.3246 -0.4432
 2101TIP3    H127718   1.722   0.160  16.379 -0.3821 -1.1730 -0.3473
 2101TIP3    H227719   1.706   0.181  16.528  0.2543  1.3325 -0.5933
 2102TIP3   OH227720   2.343   4.385   1.378 -0.4344 -0.0148  0.5322
 2102TIP3    H127721   2.399   4.353   1.307 -2.2801 -2.0129 -0.1110
 2102TIP3    H227722   2.284   4.447   1.336  0.5102  1.2279  0.9903
 2103TIP3   OH227723   3.361   3.276   5.246  0.3835  0.0067 -0.6038
 2103TIP3    H127724   3.269   3.254   5.232 -0.0048  0.6548  0.8253
 2103TIP3    H227725   3.388   3.320   5.165 -0.2760 -1.0530 -1.4149
 2104TIP3   OH227726   5.420   5.114   6.114  0.8125  0.4180 -0.3663
 2104TIP3    H127727   5.347   5.062   6.147  0.5176  2.1513  2.0176
 2104TIP3    H227728   5.497   5.060   6.131  0.6540  1.0718  3.2996
 2105TIP3   OH227729   5.967   6.715  15.904  0.0753 -0.0356 -0.2117
 2105TIP3    H127730   6.056   6.737  15.875  0.4465 -0.4329  0.5765
 2105TIP3    H227731   5.968   6.733  15.998 -0.5090 -0.5688 -0.1006
 2106TIP3   OH227732   0.738   4.686   1.113 -0.3765  1.3202 -0.9520
 2106TIP3    H127733   0.815   4.634   1.093 -0.1947  1.3636 -0.3894
 2106TIP3    H227734   0.670   4.652   1.054 -0.3022  0.3357 -0.4961
 2107TIP3   OH227735   1.810   1.541   4.940  0.0588  0.2133  0.0960
 2107TIP3    H127736   1.752   1.483   4.891  0.5803 -1.9677  1.8943
 2107TIP3    H227737   1.751   1.597   4.991 -0.4652 -0.4434  0.2209
 2108TIP3   OH227738   1.792   4.665  11.964 -0.1186 -0.0428 -0.5455
 2108TIP3    H127739   1.770   4.718  11.888 -0.4825 -2.0380 -1.9155
 2108TIP3    H227740   1.820   4.581  11.927  2.3745 -0.1994  1.4367
 2109TIP3   OH227741   1.775   1.124  15.966  0.2265  0.2650  0.5046
 2109TIP3    H127742   1.686   1.160  15.964 -0.3144 -1.0705 -1.1063
 2109TIP3    H227743   1.763   1.030  15.952  1.9654  0.2329 -1.0229
 2110TIP3   OH227744   5.784   0.715  10.597  0.0502 -0.1030  0.6461
 2110TIP3    H127745   5.729   0.636  10.598 -0.1369  0.0071 -0.0785
 2110TIP3    H227746   5.861   0.689  10.545 -0.5041  0.4905 -0.5217
 2111TIP3   OH227747   3.131   1.934  13.343  0.7322  0.1722 -0.1451
 2111TIP3    H127748   3.176   1.878  13.280  1.4853  0.1761  0.3699
 2111TIP3    H227749   3.173   2.019  13.333  0.7872  0.1965  0.2951
 2112TIP3   OH227750   0.363   5.514  16.349 -0.2744 -0.0746 -0.6819
 2112TIP3    H127751   0.454   5.506  16.376 -0.5654 -0.2795  0.2639
 2112TIP3    H227752   0.313   5.470  16.418 -1.4942  4.0932  1.4102
 2113TIP3   OH227753   2.987   1.549  16.728  0.4378 -0.1734  0.2428
 2113TIP3    H127754   2.916   1.523  16.668  0.9840  0.6025 -0.7778
 2113TIP3    H227755   2.965   1.507  16.811 -0.3857 -1.2335 -0.4830
 2114TIP3   OH227756   2.491   0.014  11.763 -0.2060  0.3818 -0.4326
 2114TIP3    H127757   2.540   0.093  11.782 -1.7887  1.3764 -0.3204
 2114TIP3    H227758   2.516  -0.047  11.832  0.8856  0.8253 -0.4147
 2115TIP3   OH227759   0.097   1.133   5.232 -0.2681  0.6426  0.3266
 2115TIP3    H127760   0.158   1.158   5.301  1.0727  0.9757 -0.9307
 2115TIP3    H227761   0.122   1.043   5.209 -0.1741  0.8206 -0.2806
 2116TIP3   OH227762   5.332   1.982  11.371  0.4482  0.5423  0.3128
 2116TIP3    H127763   5.276   1.934  11.432 -1.2371  1.4070 -0.4900
 2116TIP3    H227764   5.294   2.070  11.367  0.7968  0.6503 -1.6239
 2117TIP3   OH227765   0.422   1.136   5.173 -0.2582  0.0998  0.3505
 2117TIP3    H127766   0.388   1.225   5.173 -0.0257  0.3009  3.3122
 2117TIP3    H227767   0.392   1.099   5.256  2.2731 -1.4884  0.6703
 2118TIP3   OH227768   3.725   4.319  15.360  0.1814 -0.1015 -0.1578
 2118TIP3    H127769   3.789   4.248  15.361  0.0177 -0.2725 -1.0724
 2118TIP3    H227770   3.743   4.368  15.440 -0.2736 -1.6651  0.9557
 2119TIP3   OH227771   1.804   0.973  12.227  0.1975 -0.3843 -0.2141
 2119TIP3    H127772   1.798   0.885  12.191  2.8010 -1.0223  0.6833
 2119TIP3    H227773   1.859   0.964  12.305 -1.9097  1.5996  1.6670
 2120TIP3   OH227774   5.988   1.934  12.931 -0.1518 -0.2423  0.2216
 2120TIP3    H127775   6.013   2.026  12.932  1.2178 -0.6102  1.2517
 2120TIP3    H227776   6.028   1.899  12.851  2.4773 -0.7306  1.6365
 2121TIP3   OH227777   5.075   3.992  12.455  0.3076 -0.2473 -0.5074
 2121TIP3    H127778   5.058   4.008  12.548  2.2908  1.2134 -0.3337
 2121TIP3    H227779   5.154   4.043  12.436 -0.1884 -0.3084 -3.0643
 2122TIP3   OH227780   0.542   2.046  14.215  0.6559 -0.3175 -0.2492
 2122TIP3    H127781   0.595   2.116  14.176  1.0556 -1.5620 -2.0758
 2122TIP3    H227782   0.582   2.030  14.300  1.0491  1.1088 -0.1356
 2123TIP3   OH227783   6.211   4.383  14.241 -0.1109 -0.1702  0.0534
 2123TIP3    H127784   6.159   4.421  14.170  0.8668  2.0677  0.4633
 2123TIP3    H227785   6.230   4.456  14.299  0.9444 -1.5347  1.5092
 2124TIP3   OH227786   2.153   1.502  15.681  0.2187  0.7552 -0.2248
 2124TIP3    H127787   2.173   1.529  15.771  1.1993  2.2078 -0.8551
 2124TIP3    H227788   2.237   1.505  15.635 -0.5847  2.1131 -1.7072
 2125TIP3   OH227789   2.873   3.875   3.615  0.2136 -0.6134  0.3632
 2125TIP3    H127790   2.916   3.922   3.543  0.8630  0.6382  1.5359
 2125TIP3    H227791   2.828   3.802   3.572 -1.8098  1.6748 -1.6768
 2126TIP3   OH227792   1.467   3.762   5.962  0.6177  0.1693  0.4760
 2126TIP3    H127793   1.561   3.771   5.975  0.6595  1.4975 -0.5323
 2126TIP3    H227794   1.434   3.852   5.958 -0.4785 -0.2451 -0.6145
 2127TIP3   OH227795   1.097   0.567  12.000  0.2632  0.3067  0.6370
 2127TIP3    H127796   1.172   0.604  11.954  0.2096  0.1804  0.4482
 2127TIP3    H227797   1.026   0.566  11.936 -0.0462  0.8828  0.9565
 2128TIP3   OH227798   4.637   4.562   3.582  0.1628 -0.7850 -0.2014
 2128TIP3    H127799   4.549   4.524   3.576  0.3040 -1.5853  2.0246
 2128TIP3    H227800   4.621   4.655   3.602 -0.2400 -1.2196  1.7041
 2129TIP3   OH227801   6.309   0.463   5.681 -0.1724  0.3453 -0.0462
 2129TIP3    H127802   6.267   0.379   5.662  1.2700 -0.5308  0.4652
 2129TIP3    H227803   6.262   0.527   5.628  0.1687 -1.1429 -2.2393
 2130TIP3   OH227804   5.884   5.258   4.393 -0.2504  0.1164  0.0111
 2130TIP3    H127805   5.946   5.185   4.392  0.8133  0.9853  0.2021
 2130TIP3    H227806   5.816   5.233   4.330 -0.2386 -1.2962  0.5272
 2131TIP3   OH227807   5.552   3.689  16.112 -0.1713  0.2113 -0.2441
 2131TIP3    H127808   5.558   3.594  16.126 -1.4842  0.2737  0.9668
 2131TIP3    H227809   5.596   3.727  16.188  1.7005  0.6274 -1.4585
 2132TIP3   OH227810   3.110   0.071  13.866  0.3696 -0.2272 -0.2945
 2132TIP3    H127811   3.130   0.144  13.808 -0.2853 -0.1957 -0.4912
 2132TIP3    H227812   3.195   0.042  13.899  0.7861 -0.4539 -1.5116
 2133TIP3   OH227813   3.790   0.621   2.759 -0.2493  0.2556 -0.0709
 2133TIP3    H127814   3.770   0.669   2.840  0.4800  0.0011  0.2716
 2133TIP3    H227815   3.841   0.546   2.788 -0.0262  0.1333 -0.7680
 2134TIP3   OH227816   5.106   5.602  14.076  0.5419 -0.3570  0.0124
 2134TIP3    H127817   5.113   5.662  14.151  2.3437 -1.5829  0.8861
 2134TIP3    H227818   5.126   5.657  14.000  1.5013  0.3160  0.7292
 2135TIP3   OH227819   2.409   5.034  16.798  0.0206 -0.1335 -0.0028
 2135TIP3    H127820   2.415   4.975  16.723 -0.1113  0.4405 -0.4695
 2135TIP3    H227821   2.315   5.046  16.811  0.0339  1.2112 -0.9117
 2136TIP3   OH227822   4.623   6.089   0.711 -0.1249  0.0924 -0.0744
 2136TIP3    H127823   4.596   6.050   0.793 -0.5996 -0.5947 -0.5463
 2136TIP3    H227824   4.711   6.122   0.727 -0.5870  0.8412  0.9899
 2137TIP3   OH227825   1.595   0.310  16.180  0.0663 -0.0194 -0.4351
 2137TIP3    H127826   1.631   0.398  16.189  0.6192 -0.2380 -0.4925
 2137TIP3    H227827   1.659   0.253  16.223 -0.5903 -0.3327  0.1543
 2138TIP3   OH227828   5.867   5.866   4.578 -0.3604  0.1164  0.0467
 2138TIP3    H127829   5.949   5.851   4.532 -0.4787 -0.3025 -0.0368
 2138TIP3    H227830   5.893   5.894   4.666 -0.1331  0.4556 -0.1258
 2139TIP3   OH227831   4.266   2.377   4.607 -0.0304  0.2013  0.4643
 2139TIP3    H127832   4.327   2.447   4.582 -0.4202  0.7590  1.0658
 2139TIP3    H227833   4.194   2.422   4.650  0.6133 -0.7193  2.6384
 2140TIP3   OH227834   1.097   5.340   4.277 -0.0291 -0.4729 -0.3648
 2140TIP3    H127835   1.014   5.369   4.238 -0.0990  0.8047  0.6528
 2140TIP3    H227836   1.164   5.381   4.222 -0.0915 -0.5524 -0.5017
 2141TIP3   OH227837   3.968   3.641   6.316  0.2175  0.2669 -0.6481
 2141TIP3    H127838   3.909   3.714   6.334 -1.0316 -1.1027  1.1919
 2141TIP3    H227839   4.013   3.625   6.399 -1.1277 -2.3634 -0.3398
 2142TIP3   OH227840   3.268   3.207  12.557 -1.2223 -1.0577 -0.4290
 2142TIP3    H127841   3.332   3.143  12.526 -1.5305 -0.9458 -1.3326
 2142TIP3    H227842   3.216   3.228  12.479 -0.6173  0.8941 -0.3684
 2143TIP3   OH227843   5.177   1.697   0.111 -0.6118  0.0788 -0.4852
 2143TIP3    H127844   5.257   1.675   0.064  0.2916  1.1609  0.4897
 2143TIP3    H227845   5.142   1.773   0.064  0.4767  1.3778  0.7436
 2144TIP3   OH227846   1.283   6.786  12.084  0.3709  0.4980 -0.5721
 2144TIP3    H127847   1.292   6.751  11.995  0.0384 -1.1593  0.0075
 2144TIP3    H227848   1.198   6.829  12.084 -0.3975 -0.9322 -0.6377
 2145TIP3   OH227849   4.044   1.138   5.380 -0.2218  0.1715 -0.1040
 2145TIP3    H127850   4.041   1.114   5.473 -1.2347  0.2592 -0.1053
 2145TIP3    H227851   4.129   1.181   5.369  0.5730 -1.1720  0.4417
 2146TIP3   OH227852   5.134   3.024  11.156  0.4128  0.4223 -0.3503
 2146TIP3    H127853   5.095   2.937  11.151 -0.4190  0.8641 -2.3978
 2146TIP3    H227854   5.070   3.076  11.203  1.1333 -0.1391  1.3309
 2147TIP3   OH227855   0.700   6.021   6.038 -0.7566  0.5478 -0.1882
 2147TIP3    H127856   0.760   5.970   6.093 -0.8528  0.3196 -0.2942
 2147TIP3    H227857   0.755   6.053   5.967 -1.2780 -1.9968 -1.8672
 2148TIP3   OH227858   6.619   3.608  15.678 -0.2144 -0.4111  0.3980
 2148TIP3    H127859   6.680   3.538  15.704 -1.2259 -1.4046  0.1988
 2148TIP3    H227860   6.552   3.607  15.746 -1.0876 -0.7396 -0.4444
 2149TIP3   OH227861   4.133   2.573   1.054 -0.4495  0.1649 -0.3769
 2149TIP3    H127862   4.222   2.569   1.089 -1.1245  1.6888  1.7254
 2149TIP3    H227863   4.099   2.484   1.065  0.7704 -0.4212 -1.1603
 2150TIP3   OH227864   2.050   3.670  10.838 -0.3031  0.1122  0.0712
 2150TIP3    H127865   2.120   3.735  10.839  0.7225 -0.9682  0.2478
 2150TIP3    H227866   1.988   3.703  10.773  0.4076  1.0395 -0.1531
 2151TIP3   OH227867   2.678   6.276  16.776  0.2653  0.3834 -0.0442
 2151TIP3    H127868   2.769   6.247  16.770  0.2222 -0.2093  1.5700
 2151TIP3    H227869   2.627   6.206  16.736  0.2879 -1.1118  2.3515
 2152TIP3   OH227870   2.942   4.307  17.077  0.2320 -0.2151 -0.1291
 2152TIP3    H127871   3.005   4.283  17.009  0.4442  0.0241 -0.0218
 2152TIP3    H227872   2.944   4.403  17.078  0.5198 -0.2251  0.4811
 2153TIP3   OH227873   2.365   5.518  15.036 -0.2269  0.5352 -0.2792
 2153TIP3    H127874   2.392   5.579  14.967  1.1758 -1.4984 -1.6608
 2153TIP3    H227875   2.444   5.468  15.057 -1.2342 -0.6044  0.9986
 2154TIP3   OH227876   0.516   2.130  15.124  0.1017 -0.0427  0.1862
 2154TIP3    H127877   0.452   2.093  15.064 -1.2320  2.6553 -0.2120
 2154TIP3    H227878   0.513   2.073  15.201 -1.9310 -0.6563 -0.2991
 2155TIP3   OH227879   5.005   1.444   1.411  0.2345  0.3480 -0.0097
 2155TIP3    H127880   5.082   1.432   1.356  1.0928  0.3150  1.1601
 2155TIP3    H227881   5.040   1.467   1.497 -1.0233 -0.5436  0.7838
 2156TIP3   OH227882   5.929   2.346  11.954  0.4109  0.1341 -0.7352
 2156TIP3    H127883   5.894   2.417  12.008  0.2251 -0.2718 -0.3128
 2156TIP3    H227884   5.855   2.321  11.898  1.1361  1.8760 -2.6339
 2157TIP3   OH227885   3.966   3.960   1.540  0.1684  0.1202  0.2202
 2157TIP3    H127886   4.060   3.973   1.547  0.4269 -1.8760  1.1010
 2157TIP3    H227887   3.929   4.002   1.618  0.5666 -0.8680  0.9608
 2158TIP3   OH227888   0.498   4.660  12.489  0.6806 -0.0275  0.2545
 2158TIP3    H127889   0.485   4.698  12.402 -0.5134  0.5182  0.6584
 2158TIP3    H227890   0.414   4.622  12.512  1.9559 -3.5986 -0.3975
 2159TIP3   OH227891   2.748   5.485   5.942  0.3075  0.1895 -0.0300
 2159TIP3    H127892   2.785   5.544   6.008  1.6982 -0.0075 -0.5988
 2159TIP3    H227893   2.822   5.462   5.886 -0.7414  0.0018 -1.4038
 2160TIP3   OH227894   4.244   5.922  14.928  0.1224 -0.2263  0.3257
 2160TIP3    H127895   4.278   5.891  15.012 -0.1367  0.1631  0.5782
 2160TIP3    H227896   4.289   6.005  14.912  0.1141 -0.2605  0.1146
 2161TIP3   OH227897   0.726   4.608   0.393 -0.0965 -0.1032 -0.0733
 2161TIP3    H127898   0.649   4.629   0.341 -1.1871 -2.9174  0.2224
 2161TIP3    H227899   0.694   4.549   0.462  1.8681  0.8902  1.8130
 2162TIP3   OH227900   2.223   5.196  15.350 -0.0694  0.6170  0.1877
 2162TIP3    H127901   2.128   5.197  15.336 -0.0934 -0.5212  0.2385
 2162TIP3    H227902   2.251   5.285  15.326 -0.8482  0.3643 -1.8744
 2163TIP3   OH227903   2.242   2.219  14.601 -0.7405  0.7505  0.1743
 2163TIP3    H127904   2.252   2.308  14.635 -0.9176  0.9102 -0.1911
 2163TIP3    H227905   2.282   2.163  14.668  1.6992  1.2702 -0.7668
 2164TIP3   OH227906   6.572   4.894   2.023  0.2855 -0.0657 -0.0346
 2164TIP3    H127907   6.666   4.903   2.009  1.0361 -1.9884  2.7992
 2164TIP3    H227908   6.564   4.826   2.090 -3.1447  0.0197 -0.1656
 2165TIP3   OH227909   1.730   1.686   4.673 -0.4099  0.0600  0.2357
 2165TIP3    H127910   1.680   1.753   4.626 -1.7866 -0.0608  1.4607
 2165TIP3    H227911   1.712   1.703   4.765  2.5501  0.5553  0.8282
 2166TIP3   OH227912   5.398   2.136  13.479  0.1070 -0.2471  0.0600
 2166TIP3    H127913   5.440   2.209  13.434  0.5951 -0.4450  0.1831
 2166TIP3    H227914   5.381   2.071  13.410  0.9572 -0.5976  0.1705
 2167TIP3   OH227915   5.546   0.399   4.458  0.2859 -0.6953 -0.0543
 2167TIP3    H127916   5.530   0.416   4.550 -0.0620 -0.3516 -0.1772
 2167TIP3    H227917   5.526   0.482   4.414 -1.0547 -1.2976 -0.6199
 2168TIP3   OH227918   2.552   0.194  15.520  0.1394  0.1251  0.3125
 2168TIP3    H127919   2.634   0.164  15.557 -0.3130 -0.3991  0.9133
 2168TIP3    H227920   2.494   0.118  15.524 -0.2531  0.3739 -0.4627
 2169TIP3   OH227921   3.789   5.019  14.933  0.5344  0.3543  0.2116
 2169TIP3    H127922   3.752   4.959  14.869  1.2234  1.1731 -0.9825
 2169TIP3    H227923   3.792   5.104  14.889  2.4616  0.6337  0.7555
 2170TIP3   OH227924   2.969   5.467   4.450  0.9419  0.2827 -0.5694
 2170TIP3    H127925   2.920   5.548   4.465  0.2635  0.2263 -2.2758
 2170TIP3    H227926   2.907   5.409   4.407  1.8661 -0.6053 -0.7419
 2171TIP3   OH227927   2.034   5.240   3.203 -0.3560 -0.0161  0.7808
 2171TIP3    H127928   2.115   5.216   3.247 -0.5812 -0.6848  0.8435
 2171TIP3    H227929   2.056   5.320   3.155  0.4523 -0.3988  0.4864
 2172TIP3   OH227930   1.189   2.670   2.258 -0.1252 -0.0623  0.0985
 2172TIP3    H127931   1.214   2.653   2.167  1.7913 -1.6515  0.8657
 2172TIP3    H227932   1.116   2.609   2.274  0.2661 -0.5831 -0.0672
 2173TIP3   OH227933   4.814   6.177   4.927  0.5941  0.1462 -0.3226
 2173TIP3    H127934   4.882   6.198   4.863  0.8348  0.4848  0.0411
 2173TIP3    H227935   4.837   6.090   4.959  0.9183  0.3024 -0.1260
 2174TIP3   OH227936   2.247   3.246  16.159  0.1467 -0.3411 -0.0886
 2174TIP3    H127937   2.151   3.243  16.162 -0.0274  2.4829  0.0556
 2174TIP3    H227938   2.275   3.163  16.196 -2.2454 -0.7940  0.9042
 2175TIP3   OH227939   3.370   1.437  12.640  0.4946  0.2456 -0.2343
 2175TIP3    H127940   3.332   1.436  12.728 -0.4991 -0.2345 -0.6540
 2175TIP3    H227941   3.393   1.528  12.625 -0.4694  0.5566  0.0657
 2176TIP3   OH227942   1.592   1.651  16.749 -0.3373 -0.0784  0.5158
 2176TIP3    H127943   1.591   1.570  16.698 -1.8656  0.5789 -0.5730
 2176TIP3    H227944   1.555   1.626  16.833  0.7687 -0.8432  0.8049
 2177TIP3   OH227945   1.305   5.707  11.590  0.0655  0.0612  0.1325
 2177TIP3    H127946   1.374   5.733  11.529  0.0747 -0.5021 -0.1066
 2177TIP3    H227947   1.225   5.746  11.553  0.0583 -0.3404 -0.2902
 2178TIP3   OH227948   0.971   4.193  14.689 -0.0108  0.1506 -0.1802
 2178TIP3    H127949   1.054   4.153  14.661 -2.0612 -2.2447 -3.6496
 2178TIP3    H227950   0.956   4.157  14.777  0.9781 -2.3413 -0.9293
 2179TIP3   OH227951   5.045   6.586   3.133  0.3386  0.0403 -0.2709
 2179TIP3    H127952   5.072   6.676   3.112 -0.7131  0.4475  0.0156
 2179TIP3    H227953   4.992   6.560   3.058  0.6326 -0.3441 -0.3475
 2180TIP3   OH227954   0.327   0.818   1.783  0.2983  0.3146 -0.1572
 2180TIP3    H127955   0.360   0.747   1.727  1.0497  0.7872 -0.3331
 2180TIP3    H227956   0.306   0.889   1.721 -0.7397  0.1523 -0.0145
 2181TIP3   OH227957   4.355   0.956  15.324 -0.0441 -0.1790 -0.1592
 2181TIP3    H127958   4.368   0.862  15.320  0.5231 -0.0609 -1.8583
 2181TIP3    H227959   4.413   0.991  15.256  0.2904  1.4582  0.9074
 2182TIP3   OH227960   4.338   0.497  12.251  0.4069 -0.4257 -0.0955
 2182TIP3    H127961   4.289   0.576  12.276  0.6783 -1.0531  2.7701
 2182TIP3    H227962   4.384   0.522  12.171 -1.8117  1.3262 -0.9352
 2183TIP3   OH227963   3.211   0.141  15.693  0.0933  0.2990  0.3068
 2183TIP3    H127964   3.138   0.203  15.695 -1.7212 -1.7251  0.6221
 2183TIP3    H227965   3.201   0.095  15.609  0.6094 -0.4230  0.6289
 2184TIP3   OH227966   3.039   0.859  13.227 -0.3912  0.4282 -0.4855
 2184TIP3    H127967   2.993   0.941  13.246 -0.8954  0.2464 -0.9190
 2184TIP3    H227968   2.986   0.815  13.161 -0.1135 -0.2420 -0.2786
 2185TIP3   OH227969   0.307   0.321   1.131  0.0827  0.2377  0.1217
 2185TIP3    H127970   0.278   0.248   1.186 -1.1358 -0.5251 -1.4242
 2185TIP3    H227971   0.261   0.397   1.165 -1.2146 -0.3557 -0.2337
 2186TIP3   OH227972   2.555   4.449   2.266  0.0116 -0.2214 -0.2846
 2186TIP3    H127973   2.589   4.483   2.349 -0.1547  1.2717 -0.7826
 2186TIP3    H227974   2.633   4.437   2.212  0.1486 -1.5159  0.1879
 2187TIP3   OH227975   3.670   2.786   0.196 -0.1619  0.1371  0.0568
 2187TIP3    H127976   3.718   2.752   0.272  1.6112 -0.3698 -1.2135
 2187TIP3    H227977   3.611   2.716   0.171  0.5102 -0.4063 -0.0528
 2188TIP3   OH227978   4.700   0.729  12.767  0.4818 -0.5223  0.1206
 2188TIP3    H127979   4.638   0.656  12.764 -0.6416  0.4328 -0.7110
 2188TIP3    H227980   4.771   0.704  12.708 -1.7448  0.6023 -3.3680
 2189TIP3   OH227981   5.891   3.111   0.696 -0.1417  0.2644 -0.3500
 2189TIP3    H127982   5.892   3.187   0.638 -0.4453 -0.7040 -1.7036
 2189TIP3    H227983   5.826   3.052   0.656 -0.2645 -0.4943  0.9293
 2190TIP3   OH227984   3.446   0.283  14.536 -0.2338 -0.1129 -0.5604
 2190TIP3    H127985   3.385   0.356  14.536 -0.3448 -0.1238  1.9157
 2190TIP3    H227986   3.456   0.260  14.443  0.0605  3.1737 -1.4715
 2191TIP3   OH227987   2.660   6.127  11.233 -0.2110  0.8022  0.0312
 2191TIP3    H127988   2.583   6.179  11.212 -0.6898  0.3397  0.6018
 2191TIP3    H227989   2.668   6.133  11.328 -0.1827 -0.0200  0.0888
 2192TIP3   OH227990   5.290   2.818   5.021  0.1323 -0.3419 -0.6667
 2192TIP3    H127991   5.336   2.802   5.103  1.2539 -3.4042 -1.7549
 2192TIP3    H227992   5.209   2.767   5.028 -0.3040  0.2793 -1.0430
 2193TIP3   OH227993   5.818   2.413   5.974  0.2564 -0.1919  0.4011
 2193TIP3    H127994   5.791   2.503   5.995 -0.2532 -0.5103  1.1373
 2193TIP3    H227995   5.830   2.414   5.879 -2.2907  0.0200  0.0009
 2194TIP3   OH227996   2.991   3.260  12.948 -0.6601  0.3646 -0.5734
 2194TIP3    H127997   3.079   3.281  12.977 -0.8751  1.6441 -0.7867
 2194TIP3    H227998   2.984   3.300  12.861 -1.7979  1.2722 -0.1073
 2195TIP3   OH227999   1.446   3.366   6.691  0.2007  0.4137  0.1770
 2195TIP3    H128000   1.425   3.439   6.749  0.6196  0.3127  0.4559
 2195TIP3    H228001   1.487   3.407   6.615  0.8112  0.4402  0.5118
 2196TIP3   OH228002   4.544   2.439   0.167  0.0870  0.0923  0.1798
 2196TIP3    H128003   4.459   2.421   0.207  0.2641 -0.3301  0.3649
 2196TIP3    H228004   4.524   2.447   0.073 -0.2835  0.8289  0.3106
 2197TIP3   OH228005   3.124   5.370   4.767 -0.2543 -0.4823 -0.1936
 2197TIP3    H128006   3.047   5.420   4.742 -0.8368 -1.2757 -0.0169
 2197TIP3    H228007   3.097   5.279   4.762  1.1292 -0.8679 -1.6809
 2198TIP3   OH228008   0.557   1.683   1.655  0.5739  0.2130  0.2345
 2198TIP3    H128009   0.599   1.657   1.737  1.6088  0.2289 -0.2704
 2198TIP3    H228010   0.464   1.672   1.671  0.7916 -0.2549  1.2521
 2199TIP3   OH228011   2.927   1.993   2.027 -0.3900  0.1394 -0.1186
 2199TIP3    H128012   2.958   1.905   2.051  3.2195  1.0599 -0.7961
 2199TIP3    H228013   2.895   1.983   1.937 -2.3648 -0.8738  0.6331
 2200TIP3   OH228014   2.580   5.132   3.639  0.0568  0.5742  0.1659
 2200TIP3    H128015   2.518   5.071   3.598  1.9949 -0.1509 -1.9353
 2200TIP3    H228016   2.570   5.213   3.589 -0.4644  1.0406  1.0211
 2201TIP3   OH228017   3.597   1.007  11.791 -0.5069 -0.3823 -0.0286
 2201TIP3    H128018   3.561   0.918  11.796 -0.3066 -0.4576  0.1116
 2201TIP3    H228019   3.583   1.044  11.878  0.3093 -0.6346  0.2213
 2202TIP3   OH228020   2.522   4.773  13.735  0.0747  0.6370  0.5529
 2202TIP3    H128021   2.579   4.835  13.689 -0.2619  0.8672  0.4440
 2202TIP3    H228022   2.491   4.714  13.667 -0.4114  0.9679  0.4844
 2203TIP3   OH228023   6.809   4.776   4.892 -0.1188 -0.1117  0.0636
 2203TIP3    H128024   6.759   4.816   4.964 -0.1587  0.1272 -0.0971
 2203TIP3    H228025   6.888   4.829   4.886  1.0185 -1.5521  1.4968
 2204TIP3   OH228026   4.278   3.645   0.953  0.1158 -0.2386 -0.5493
 2204TIP3    H128027   4.237   3.560   0.972 -1.2256  0.4993  0.0187
 2204TIP3    H228028   4.236   3.675   0.873  1.0024 -0.3584 -1.0691
 2205TIP3   OH228029   5.345   2.394  15.642 -0.1313 -0.2248  0.2353
 2205TIP3    H128030   5.362   2.480  15.603  0.7531 -0.6919 -0.4226
 2205TIP3    H228031   5.399   2.333  15.592 -2.0673 -1.4495 -0.4619
 2206TIP3   OH228032   3.317   6.296   1.784  0.1448  0.0934  0.0373
 2206TIP3    H128033   3.270   6.223   1.744  0.7917  0.8134 -2.2051
 2206TIP3    H228034   3.273   6.310   1.867 -0.8030 -2.0127 -0.0417
 2207TIP3   OH228035   1.890   2.796  14.666 -0.2960 -0.3050  0.1971
 2207TIP3    H128036   1.832   2.773  14.593 -1.8616 -0.3765  1.4222
 2207TIP3    H228037   1.956   2.726  14.667 -1.4487 -1.4231  0.1046
 2208TIP3   OH228038   6.383   6.117  15.604 -0.2740 -0.0278  0.9405
 2208TIP3    H128039   6.437   6.042  15.629 -0.9827 -0.3293  1.6024
 2208TIP3    H228040   6.351   6.152  15.686  0.6978  1.5235  0.6965
 2209TIP3   OH228041   5.493   0.253  16.335 -0.6365  0.2918  0.3234
 2209TIP3    H128042   5.527   0.303  16.260 -2.2006  0.7232 -0.1508
 2209TIP3    H228043   5.565   0.250  16.397 -0.1274  2.1933 -0.1091
 2210TIP3   OH228044   3.814   5.561  13.656  0.3996 -0.2554  0.3332
 2210TIP3    H128045   3.761   5.540  13.579 -0.4287 -0.0409  0.8332
 2210TIP3    H228046   3.838   5.653  13.644 -0.3550 -0.0077  0.6889
 2211TIP3   OH228047   1.485   6.318  12.657  0.0978  0.2429 -0.9231
 2211TIP3    H128048   1.493   6.280  12.569  0.7188  0.8431 -1.1449
 2211TIP3    H228049   1.435   6.398  12.644  0.4145  0.4690 -0.7814
 2212TIP3   OH228050   3.687   4.103   1.666 -0.4117  0.1390  0.5819
 2212TIP3    H128051   3.652   4.152   1.592 -1.2998 -0.1580  0.7864
 2212TIP3    H228052   3.772   4.142   1.684 -2.0685  3.3452  2.3370
 2213TIP3   OH228053   1.716   0.428   3.118  0.1309  0.1617 -0.0554
 2213TIP3    H128054   1.741   0.495   3.054  0.4582 -0.4745 -0.5977
 2213TIP3    H228055   1.675   0.359   3.067 -0.1662 -0.0786  0.4960
 2214TIP3   OH228056   2.158   5.075   3.506  0.4514  0.1383 -0.1798
 2214TIP3    H128057   2.086   5.012   3.510  0.0291  0.4475 -1.8580
 2214TIP3    H228058   2.145   5.131   3.583 -0.5467 -0.4062  0.0639
 2215TIP3   OH228059   1.388   1.929  11.852 -0.2005  0.2059 -0.0343
 2215TIP3    H128060   1.402   2.020  11.879  0.4608 -0.1379  0.8100
 2215TIP3    H228061   1.294   1.921  11.841 -0.2742  0.9580 -0.0035
 2216TIP3   OH228062   3.608   3.249  12.971  0.1928  0.0364  0.2661
 2216TIP3    H128063   3.623   3.336  13.008  1.4699  0.6439 -1.5618
 2216TIP3    H228064   3.538   3.262  12.906  0.2167 -0.3516  0.1557
 2217TIP3   OH228065   5.245   2.842   1.902  0.1822 -0.4927 -0.1903
 2217TIP3    H128066   5.204   2.915   1.855  0.1171  0.5001  1.3450
 2217TIP3    H228067   5.277   2.784   1.833 -0.7924  0.4092 -1.4413
 2218TIP3   OH228068   0.838   5.089  12.497  0.4578 -0.1167  0.2691
 2218TIP3    H128069   0.855   5.072  12.589 -0.1390  0.1235  0.4300
 2218TIP3    H228070   0.900   5.033  12.450  0.7251 -0.2817  0.8122
 2219TIP3   OH228071   3.229   2.931   2.980  0.3034 -0.2584  0.1106
 2219TIP3    H128072   3.204   2.861   2.921 -1.1134  0.3476 -0.0371
 2219TIP3    H228073   3.255   3.003   2.922  0.4368 -0.1901  0.2525
 2220TIP3   OH228074   3.735   0.419   0.616  0.3130 -0.5118 -0.5811
 2220TIP3    H128075   3.688   0.401   0.535 -1.2336  0.7964 -0.0358
 2220TIP3    H228076   3.674   0.394   0.685  0.2540  1.5117  0.1602
 2221TIP3   OH228077   0.212   4.482  10.844 -0.4535  0.2119  0.1657
 2221TIP3    H128078   0.146   4.413  10.846  0.7726 -1.0429 -0.3462
 2221TIP3    H228079   0.246   4.479  10.754 -0.0181  1.1212  0.2943
 2222TIP3   OH228080   4.991   3.778  12.669  0.0565  0.2481 -0.4127
 2222TIP3    H128081   5.066   3.789  12.728  0.4995  0.2115 -0.9519
 2222TIP3    H228082   4.985   3.684  12.655  0.9565  0.3462 -1.6573
 2223TIP3   OH228083   1.295   2.914   3.195 -0.2738 -0.3354 -0.2688
 2223TIP3    H128084   1.310   2.824   3.224  0.8812 -0.0592  0.0139
 2223TIP3    H228085   1.291   2.908   3.099  1.9474 -0.4119 -0.4025
 2224TIP3   OH228086   3.603   6.338  16.370 -0.3535  0.2168  0.0839
 2224TIP3    H128087   3.544   6.399  16.326 -0.7234  0.4953  0.9401
 2224TIP3    H228088   3.686   6.346  16.323 -0.0679  2.1991  0.8157
 2225TIP3   OH228089   0.036   1.898   4.292 -0.6878 -0.6577  0.3159
 2225TIP3    H128090   0.056   1.804   4.286  0.3258 -0.7055  3.0405
 2225TIP3    H228091   0.120   1.939   4.313 -1.4509  0.5967  1.0442
 2226TIP3   OH228092   0.716   1.436   5.263  0.1085 -0.2209  0.4989
 2226TIP3    H128093   0.797   1.477   5.233 -0.0291  2.1272  2.9982
 2226TIP3    H228094   0.666   1.421   5.183  2.1748  0.0794 -0.9245
 2227TIP3   OH228095   2.175   5.907   6.540 -0.2192 -0.2604  0.0420
 2227TIP3    H128096   2.193   5.952   6.457 -1.0863  0.1919  0.0815
 2227TIP3    H228097   2.239   5.837   6.544 -0.7972 -0.9160 -1.4931
 2228TIP3   OH228098   3.399   3.782   3.862  0.2167  0.0118 -0.1900
 2228TIP3    H128099   3.482   3.734   3.860 -0.2491 -1.1757 -5.4521
 2228TIP3    H228100   3.425   3.874   3.860  1.2500 -0.1905  1.4567
 2229TIP3   OH228101   4.323   1.946  14.148 -0.1814 -0.5672 -0.2107
 2229TIP3    H128102   4.329   1.966  14.241  1.3959  1.9952 -0.7753
 2229TIP3    H228103   4.253   2.003  14.116  1.2584  0.8236 -1.0430
 2230TIP3   OH228104   4.713   2.124   3.643  0.5305  0.0260 -0.2195
 2230TIP3    H128105   4.625   2.086   3.641 -0.2271  1.6684 -2.7817
 2230TIP3    H228106   4.740   2.125   3.551  3.6637 -1.2638  0.5621
 2231TIP3   OH228107   0.395   3.402   2.191  0.2040 -0.4777  0.5944
 2231TIP3    H128108   0.483   3.395   2.155 -0.0921 -0.3619 -0.1660
 2231TIP3    H228109   0.403   3.470   2.259  0.3099  0.9131 -0.7630
 2232TIP3   OH228110   6.170   5.913  13.977  0.3345  0.0102  0.2579
 2232TIP3    H128111   6.257   5.909  14.017  1.2205  0.3111 -1.5488
 2232TIP3    H228112   6.155   5.826  13.940 -0.9378 -0.5990  2.0644
 2233TIP3   OH228113   4.604   3.874  16.564 -0.2036 -0.3506 -0.2490
 2233TIP3    H128114   4.521   3.904  16.601 -0.6067 -0.7675 -0.7987
 2233TIP3    H228115   4.580   3.802  16.505  0.6083 -0.8625  0.0260
 2234TIP3   OH228116   4.659   2.684   3.986  0.1058 -0.5665 -0.1551
 2234TIP3    H128117   4.622   2.597   4.004 -0.0116 -0.6530 -0.8175
 2234TIP3    H228118   4.625   2.707   3.900 -1.8422  1.1920  0.9929
 2235TIP3   OH228119   1.899   2.265  13.160  0.2128 -0.4385  0.3490
 2235TIP3    H128120   1.950   2.189  13.133  1.9228  0.6237  0.4418
 2235TIP3    H228121   1.811   2.230  13.175  1.0787 -2.5242  1.0215
 2236TIP3   OH228122   4.081   4.846  14.137  0.1788 -0.2575 -0.3442
 2236TIP3    H128123   3.997   4.853  14.090  0.0352 -0.2714 -0.0904
 2236TIP3    H228124   4.095   4.933  14.173 -0.7592 -0.7819  1.3661
 2237TIP3   OH228125   4.506   1.627   0.850 -0.1501 -0.3910  0.1977
 2237TIP3    H128126   4.574   1.641   0.785  0.0186 -1.3159  0.1731
 2237TIP3    H228127   4.551   1.627   0.934 -0.0545 -1.3685  0.1570
 2238TIP3   OH228128   5.570   3.033   5.618 -0.6324  0.2596  0.1894
 2238TIP3    H128129   5.576   3.128   5.611 -1.3029  0.3180  0.3785
 2238TIP3    H228130   5.479   3.016   5.642 -0.6397 -0.4530 -0.2976
 2239TIP3   OH228131   5.083   0.558  16.588 -0.3318  0.3198  0.3177
 2239TIP3    H128132   5.113   0.468  16.575 -1.6686 -0.1862  0.5444
 2239TIP3    H228133   5.150   0.599  16.643  1.9102  0.4342 -2.3177
 2240TIP3   OH228134   1.870   2.999  17.027  0.2818 -0.0030 -0.0200
 2240TIP3    H128135   1.785   2.956  17.026  0.4992 -0.4335 -0.5926
 2240TIP3    H228136   1.886   3.019  17.119 -0.1803 -0.4288  0.1560
 2241TIP3   OH228137   3.277   5.842   4.645  0.2740  0.2886  0.1922
 2241TIP3    H128138   3.274   5.924   4.595  0.1831  1.8926  2.6217
 2241TIP3    H228139   3.370   5.831   4.666  0.2303 -0.0022  0.2378
 2242TIP3   OH228140   4.841   0.488  12.949 -0.4565 -0.5486  0.2834
 2242TIP3    H128141   4.909   0.554  12.935  0.8499 -1.5183  1.7463
 2242TIP3    H228142   4.861   0.419  12.886  0.3635 -1.1343  1.1551
 2243TIP3   OH228143   1.060   6.507  14.824  0.8879 -0.1209  0.0314
 2243TIP3    H128144   1.045   6.570  14.753  1.9971 -0.2570 -0.3440
 2243TIP3    H228145   1.147   6.528  14.857  0.6379 -0.4706  0.9383
 2244TIP3   OH228146   6.752   4.147   5.364  0.7443  0.4012 -0.1318
 2244TIP3    H128147   6.840   4.181   5.375  1.8505 -2.5111  0.9250
 2244TIP3    H228148   6.696   4.212   5.406  2.3933  2.0589 -0.3534
 2245TIP3   OH228149   5.645   5.222   0.981 -0.0081 -0.8318 -0.4941
 2245TIP3    H128150   5.588   5.238   1.056  0.0914  1.1030 -0.7931
 2245TIP3    H228151   5.729   5.262   1.004  0.6940 -2.0181 -0.8271
 2246TIP3   OH228152   6.399   1.339   1.741 -0.0188  0.4400 -0.2619
 2246TIP3    H128153   6.388   1.244   1.739 -0.4250  0.4940 -0.5989
 2246TIP3    H228154   6.414   1.360   1.833  0.9841 -0.0517 -0.3024
 2247TIP3   OH228155   4.702   0.342  13.668 -0.2527 -0.2226 -0.3879
 2247TIP3    H128156   4.614   0.322  13.700 -0.5680  1.3653 -0.1611
 2247TIP3    H228157   4.757   0.271  13.701 -1.1998 -0.4732  0.7070
 2248TIP3   OH228158   6.147   6.244  17.040  0.1410 -0.3269  0.2339
 2248TIP3    H128159   6.074   6.183  17.048  1.1520 -1.7704 -1.1554
 2248TIP3    H228160   6.221   6.199  17.079  0.5801  0.6345  0.5438
 2249TIP3   OH228161   6.509   0.927  12.699  0.1137  0.8505 -0.4344
 2249TIP3    H128162   6.418   0.906  12.718  0.0925  1.0456 -0.3112
 2249TIP3    H228163   6.559   0.856  12.739  0.0306  0.8934 -0.2539
 2250TIP3   OH228164   1.054   6.637  12.828  0.3216 -0.2889 -0.1624
 2250TIP3    H128165   1.128   6.641  12.889  0.1198  0.8186  0.0349
 2250TIP3    H228166   1.041   6.543  12.813  1.2636 -0.5316  0.4050
 2251TIP3   OH228167   2.855   3.496   6.120 -0.0885  0.2179  0.2281
 2251TIP3    H128168   2.834   3.434   6.190 -0.2089  0.1582  0.1392
 2251TIP3    H228169   2.943   3.528   6.142  0.0673 -0.1532  0.1560
 2252TIP3   OH228170   4.865   4.543   5.283  0.4150  0.3506  0.1786
 2252TIP3    H128171   4.847   4.514   5.373 -0.7537 -2.9778 -0.9788
 2252TIP3    H228172   4.809   4.620   5.272 -2.5035 -1.4569  1.1889
 2253TIP3   OH228173   6.053   3.213  12.291 -0.7165 -0.3496  0.8317
 2253TIP3    H128174   6.046   3.174  12.204  0.1603 -0.0119  0.5963
 2253TIP3    H228175   6.147   3.226  12.304 -0.9071  0.5909  1.3826
 2254TIP3   OH228176   4.004   1.862   2.096 -0.1855  0.2368 -0.5366
 2254TIP3    H128177   3.948   1.788   2.075 -1.0907  1.0014 -0.9109
 2254TIP3    H228178   4.045   1.839   2.179  0.1528 -1.0038 -1.0297
 2255TIP3   OH228179   5.361   1.946  12.377 -0.3969  0.2472  0.1725
 2255TIP3    H128180   5.315   1.985  12.302  2.9833  0.9696 -1.7781
 2255TIP3    H228181   5.324   1.858  12.385 -2.3738  0.9166 -0.8928
 2256TIP3   OH228182   0.201   5.030   4.344 -0.5414 -0.3593 -0.0387
 2256TIP3    H128183   0.184   5.116   4.382  0.9859  0.6249 -1.4923
 2256TIP3    H228184   0.177   4.968   4.414  1.5829  1.3140  2.3253
 2257TIP3   OH228185   6.187   1.987   4.279  0.6144 -0.0360 -0.1418
 2257TIP3    H128186   6.241   1.909   4.268  1.6214  0.7281 -0.8179
 2257TIP3    H228187   6.149   1.979   4.366  1.3236 -0.8946  0.0967
 2258TIP3   OH228188   2.548   1.653   4.729  0.0448  0.1647  0.4635
 2258TIP3    H128189   2.540   1.568   4.685  0.4539  0.5880 -0.4602
 2258TIP3    H228190   2.471   1.659   4.785 -0.7408 -0.1995 -0.5495
 2259TIP3   OH228191   6.562   5.425   2.654 -0.1834 -0.0843  0.0571
 2259TIP3    H128192   6.624   5.377   2.598  0.0424  1.1914 -0.8211
 2259TIP3    H228193   6.483   5.433   2.601 -0.2388  0.4590  0.2137
 2260TIP3   OH228194   1.987   1.787   3.523  0.3277  0.9819  0.0839
 2260TIP3    H128195   1.894   1.796   3.504  0.0334 -2.3581 -0.7821
 2260TIP3    H228196   1.992   1.714   3.585  2.3923  0.3846 -0.6800
 2261TIP3   OH228197   3.852   3.448   1.090  0.1326  0.8005 -0.0700
 2261TIP3    H128198   3.810   3.448   1.176 -0.1732  0.2138 -0.2174
 2261TIP3    H228199   3.934   3.399   1.104  0.1281  0.7859 -0.0952
 2262TIP3   OH228200   6.038   4.963  12.266 -0.8678 -0.2800  0.1928
 2262TIP3    H128201   6.022   4.921  12.350  0.0750 -1.8446 -0.3496
 2262TIP3    H228202   6.111   5.022  12.281 -0.8123 -0.4301  0.5054
 2263TIP3   OH228203   5.207   1.313   2.353  0.0615  0.1328 -0.1049
 2263TIP3    H128204   5.188   1.298   2.446  0.2765  0.0098 -0.0802
 2263TIP3    H228205   5.295   1.351   2.352 -0.0524  0.3920 -0.2400
 2264TIP3   OH228206   0.070   0.209  14.443  0.3183  0.6829  0.6091
 2264TIP3    H128207   0.115   0.271  14.500 -1.6527  0.4793  2.5040
 2264TIP3    H228208   0.139   0.149  14.414  1.4174  0.7645  2.8293
 2265TIP3   OH228209   3.631   0.467  15.633  0.4677 -0.0039 -0.2593
 2265TIP3    H128210   3.554   0.486  15.686  0.0204 -0.0716 -0.8677
 2265TIP3    H228211   3.662   0.552  15.603  0.9907  0.0692  0.4718
 2266TIP3   OH228212   2.002   3.615   4.101 -0.2530 -0.0645 -0.4172
 2266TIP3    H128213   2.048   3.599   4.018 -1.3675  2.1795 -1.5641
 2266TIP3    H228214   1.909   3.601   4.080 -0.5251  0.2556  0.5265
 2267TIP3   OH228215   6.368   4.118  11.803  0.4215  0.7709  0.5033
 2267TIP3    H128216   6.361   4.133  11.897 -1.1121  0.9992  0.3715
 2267TIP3    H228217   6.396   4.203  11.767  1.1334  0.6478  0.7506
 2268TIP3   OH228218   2.875   3.427   4.039  0.3108  0.6408 -0.2250
 2268TIP3    H128219   2.877   3.472   3.955 -1.1007  0.2939 -0.4711
 2268TIP3    H228220   2.859   3.496   4.103 -1.9339  0.5526 -0.6073
 2269TIP3   OH228221   2.309   4.928  13.872  0.5102  0.2007 -0.7635
 2269TIP3    H128222   2.364   4.879  13.811 -0.5865 -0.5958 -1.1497
 2269TIP3    H228223   2.223   4.931  13.829  0.2249  1.3458 -0.1491
 2270TIP3   OH228224   3.150   5.090  12.003  0.1951 -0.3758 -1.0368
 2270TIP3    H128225   3.207   5.070  12.078  1.8964  1.2542 -1.7997
 2270TIP3    H228226   3.158   5.014  11.946  1.3831 -0.3287 -0.9633
 2271TIP3   OH228227   0.714   2.177   3.113  0.2426 -0.4238 -0.4262
 2271TIP3    H128228   0.751   2.183   3.201  1.4656 -1.3862 -0.8479
 2271TIP3    H228229   0.654   2.251   3.107 -1.8363 -1.7459  2.1230
 2272TIP3   OH228230   0.422   6.032   6.367  0.4373 -0.3584 -0.3409
 2272TIP3    H128231   0.390   6.118   6.395  0.9239  0.2831 -1.6484
 2272TIP3    H228232   0.397   6.027   6.274 -0.9707 -2.3087  0.0877
 2273TIP3   OH228233   4.207   4.692   2.603 -0.0755 -0.4943 -0.8127
 2273TIP3    H128234   4.248   4.676   2.688 -0.9676 -1.2331 -0.5006
 2273TIP3    H228235   4.212   4.787   2.591  0.0077 -0.3756  0.0958
 2274TIP3   OH228236   1.412   2.542   4.293 -0.1374 -0.0169  0.1551
 2274TIP3    H128237   1.343   2.498   4.243  0.3430  1.3155 -1.8041
 2274TIP3    H228238   1.460   2.471   4.336 -1.6329 -1.0877  0.1349
 2275TIP3   OH228239   6.200   5.426   3.906 -0.1337 -0.2398 -0.3344
 2275TIP3    H128240   6.134   5.413   3.837  0.1999  0.0055 -0.7040
 2275TIP3    H228241   6.169   5.504   3.953 -1.5794 -1.6710  1.2362
 2276TIP3   OH228242   5.109   0.380   5.725 -0.0922  0.2292  0.4255
 2276TIP3    H128243   5.195   0.405   5.691 -0.0590 -0.1330  0.2418
 2276TIP3    H228244   5.047   0.416   5.662 -0.0523  0.0147  0.2626
 2277TIP3   OH228245   5.503   5.514   3.910  0.6591  0.6638  0.1577
 2277TIP3    H128246   5.566   5.582   3.887 -0.8868  1.5782 -1.7098
 2277TIP3    H228247   5.519   5.444   3.847 -0.1645  0.9145 -0.3501
 2278TIP3   OH228248   0.850   4.173  10.695 -0.0450  0.2121 -0.1166
 2278TIP3    H128249   0.799   4.210  10.768 -0.8859  1.1810 -1.1660
 2278TIP3    H228250   0.868   4.248  10.638  1.4839 -0.3496 -0.4208
 2279TIP3   OH228251   5.956   2.141  14.126 -0.1223 -0.6017 -0.3762
 2279TIP3    H128252   6.001   2.066  14.089 -0.3517 -1.4204  0.9695
 2279TIP3    H228253   6.004   2.162  14.206 -0.5310  0.1821 -0.3234
 2280TIP3   OH228254   4.157   3.450  10.883 -0.4246 -0.2520  0.3133
 2280TIP3    H128255   4.134   3.543  10.884  0.0513 -0.0791  3.1065
 2280TIP3    H228256   4.074   3.405  10.898 -0.2643 -0.1094  1.6876
 2281TIP3   OH228257   1.554   1.533  12.776 -0.0102 -0.2719  0.3183
 2281TIP3    H128258   1.586   1.554  12.863 -1.3837 -1.9924  1.3070
 2281TIP3    H228259   1.624   1.480  12.737  0.6311  0.5515  0.3316
 2282TIP3   OH228260   6.582   6.163  14.516  0.1719 -0.1895 -0.5319
 2282TIP3    H128261   6.535   6.229  14.464  0.5937  0.2628 -0.3449
 2282TIP3    H228262   6.616   6.102  14.450 -1.3156 -0.9771 -0.6314
 2283TIP3   OH228263   5.458   4.828   3.523 -0.2738  0.3151  0.6205
 2283TIP3    H128264   5.451   4.736   3.496 -0.8904 -0.4047  2.9938
 2283TIP3    H228265   5.497   4.872   3.447 -1.1752 -1.6335 -1.0796
 2284TIP3   OH228266   0.851   2.283  16.509  0.2884 -0.2726 -0.4438
 2284TIP3    H128267   0.883   2.373  16.517 -1.3805  0.2382  1.3714
 2284TIP3    H228268   0.842   2.254  16.600  1.8073 -2.6971 -0.9977
 2285TIP3   OH228269   1.889   5.739   4.384  0.3121 -0.0804 -0.0495
 2285TIP3    H128270   1.883   5.818   4.438  2.0536 -0.9954  1.5690
 2285TIP3    H228271   1.935   5.675   4.438  0.0312 -1.8492 -1.7627
 2286TIP3   OH228272   6.433   4.347   2.561 -0.5179  0.1528 -0.0269
 2286TIP3    H128273   6.340   4.362   2.543 -0.3315 -0.1113 -1.3493
 2286TIP3    H228274   6.451   4.260   2.526  0.5097  0.7384 -1.0676
 2287TIP3   OH228275   0.394   2.157  12.710  0.3622 -0.0858 -0.5853
 2287TIP3    H128276   0.447   2.149  12.630  1.7949  0.9296  0.2190
 2287TIP3    H228277   0.305   2.172  12.678  0.5976 -1.4000 -1.9862
 2288TIP3   OH228278   5.658   3.511   1.261  0.1145 -0.2245  0.2543
 2288TIP3    H128279   5.590   3.544   1.202 -0.0964  1.6055  1.4270
 2288TIP3    H228280   5.679   3.424   1.228 -0.1303  0.6325 -2.3650
 2289TIP3   OH228281   2.739   2.521  15.931  0.1386 -0.1157 -0.2882
 2289TIP3    H128282   2.647   2.532  15.906 -0.1547 -0.6585  0.5058
 2289TIP3    H228283   2.736   2.495  16.023  1.0644 -0.5974 -0.3770
 2290TIP3   OH228284   0.275   1.486  15.823 -0.1528 -0.8405  0.3016
 2290TIP3    H128285   0.288   1.395  15.851  0.6792 -0.7199  0.3133
 2290TIP3    H228286   0.200   1.482  15.763  0.2980 -1.6447 -0.2328
 2291TIP3   OH228287   3.891   0.556   1.205  0.2259  0.3907  0.2832
 2291TIP3    H128288   3.881   0.581   1.113 -1.9746  1.3149  0.6921
 2291TIP3    H228289   3.839   0.621   1.252  0.6703 -0.5338  2.1172
 2292TIP3   OH228290   1.942   6.185   6.294  0.0878 -0.4825 -0.1867
 2292TIP3    H128291   1.971   6.207   6.206  0.2349 -1.2814 -0.3444
 2292TIP3    H228292   2.018   6.145   6.336 -0.5477 -1.9790 -0.3853
 2293TIP3   OH228293   6.078   0.855  15.950  0.6065 -0.1345 -0.9426
 2293TIP3    H128294   6.088   0.853  16.046 -0.9779  2.6072 -0.5985
 2293TIP3    H228295   5.996   0.807  15.934  0.4858  0.0356 -0.8379
 2294TIP3   OH228296   3.020   2.113   3.494 -0.5188  0.1417  0.2603
 2294TIP3    H128297   3.003   2.033   3.543  3.1714 -1.5653 -0.9160
 2294TIP3    H228298   2.996   2.093   3.404  0.9818  0.0865 -0.1525
 2295TIP3   OH228299   3.664   1.309  13.257  0.0435 -0.1104 -0.5138
 2295TIP3    H128300   3.725   1.245  13.221 -1.3303 -2.8925  1.7017
 2295TIP3    H228301   3.715   1.354  13.325  0.2567 -0.9258 -0.1181
 2296TIP3   OH228302   4.837   5.891  11.701  0.1339  0.0073  0.0898
 2296TIP3    H128303   4.786   5.892  11.620  1.3541  0.1359 -0.7028
 2296TIP3    H228304   4.926   5.913  11.674  0.2932  1.5614  1.6888
 2297TIP3   OH228305   0.218   3.192   3.779 -0.4182  0.4654  0.0247
 2297TIP3    H128306   0.304   3.150   3.767  0.4020  1.5660  1.6696
 2297TIP3    H228307   0.176   3.142   3.849  0.1727  1.7173  1.3296
 2298TIP3   OH228308   3.722   5.748  11.537  0.2163  0.1963  0.2760
 2298TIP3    H128309   3.806   5.766  11.580 -0.7830  0.0517  2.4094
 2298TIP3    H228310   3.696   5.831  11.499 -0.0509  1.0308  2.1822
 2299TIP3   OH228311   5.824   5.846   2.327 -0.3089 -0.0245  0.0363
 2299TIP3    H128312   5.803   5.822   2.417  1.0875  1.4966  0.8279
 2299TIP3    H228313   5.861   5.934   2.334  1.5952 -0.5976 -1.7928
 2300TIP3   OH228314   3.798   5.173  12.866 -0.1142 -0.1927 -0.2682
 2300TIP3    H128315   3.807   5.142  12.775  1.8675  0.9560 -0.5346
 2300TIP3    H228316   3.882   5.152  12.906  0.5515  2.7910  0.1302
 2301TIP3   OH228317   1.529   0.168  15.263 -0.1512  0.3852 -0.5479
 2301TIP3    H128318   1.526   0.231  15.336 -0.5345 -0.5793  0.2969
 2301TIP3    H228319   1.577   0.214  15.194  1.3884  0.8728  0.7734
 2302TIP3   OH228320   4.374   3.530   5.158  0.2639 -0.3074  0.1517
 2302TIP3    H128321   4.338   3.441   5.151  0.9396 -0.6250  0.6555
 2302TIP3    H228322   4.462   3.523   5.121 -0.1260  0.4491 -0.9903
 2303TIP3   OH228323   2.272   0.667  12.003  0.1871 -0.4113  0.6916
 2303TIP3    H128324   2.227   0.733  12.056 -0.2485 -0.7810  0.7937
 2303TIP3    H228325   2.201   0.619  11.959  0.4543 -1.3144  1.2183
 2304TIP3   OH228326   3.634   1.679   3.384  0.0486 -0.2243  0.1095
 2304TIP3    H128327   3.581   1.611   3.426  1.0685  1.1624  4.1106
 2304TIP3    H228328   3.656   1.740   3.455  1.9536  2.5383 -2.5661
 2305TIP3   OH228329   1.450   4.614   2.760  0.3823 -0.4921 -0.2379
 2305TIP3    H128330   1.498   4.602   2.678 -0.1345 -1.4014 -0.4207
 2305TIP3    H228331   1.518   4.607   2.828  0.9258  0.9797 -0.5955
 2306TIP3   OH228332   4.731   1.285  11.679 -0.4651 -0.1698 -0.3268
 2306TIP3    H128333   4.726   1.303  11.586 -1.8821  0.5664 -0.1232
 2306TIP3    H228334   4.825   1.284  11.698 -0.1918  1.3128 -1.4485
 2307TIP3   OH228335   5.758   3.403   6.033 -0.3608  0.1734 -0.1375
 2307TIP3    H128336   5.691   3.346   5.996  0.6073 -0.2456 -1.3019
 2307TIP3    H228337   5.779   3.363   6.118  0.5647 -1.4602 -1.0858
 2308TIP3   OH228338   5.956   5.022   2.080 -0.2400 -0.4293 -0.1271
 2308TIP3    H128339   5.872   5.066   2.067  1.3138  2.4468 -1.5639
 2308TIP3    H228340   5.998   5.025   1.995  1.8220 -0.5748  0.8208
 2309TIP3   OH228341   1.487   4.428   1.694  0.8049  0.3801 -0.1170
 2309TIP3    H128342   1.423   4.458   1.630  0.7184 -0.4750 -0.4423
 2309TIP3    H228343   1.484   4.333   1.688  0.9731  0.2938  0.9858
 2310TIP3   OH228344   2.034   6.518   4.859  0.4193  0.1973  0.4592
 2310TIP3    H128345   2.104   6.476   4.909  1.5245  2.2582  0.7191
 2310TIP3    H228346   1.956   6.506   4.913  0.5991 -1.8065  0.3373
 2311TIP3   OH228347   4.452   1.610  13.315 -0.1463 -0.4865  0.0194
 2311TIP3    H128348   4.529   1.646  13.273  0.5201  0.7249  2.1538
 2311TIP3    H228349   4.475   1.519  13.334  0.3348 -0.4332 -0.3155
 2312TIP3   OH228350   0.242   1.016  14.291  0.3787 -0.0475 -0.0456
 2312TIP3    H128351   0.217   1.086  14.231  0.1358  0.4586  0.6416
 2312TIP3    H228352   0.211   1.045  14.376  0.5563 -0.8510  0.2967
 2313TIP3   OH228353   1.594   0.195  11.063 -0.1153  0.4235  0.1385
 2313TIP3    H128354   1.664   0.202  11.128  0.1615  0.2471 -0.1340
 2313TIP3    H228355   1.525   0.146  11.107  0.5601 -0.7881 -0.0806
 2314TIP3   OH228356   3.808   3.659  15.768  0.0471 -0.3417 -0.4309
 2314TIP3    H128357   3.890   3.616  15.745  0.6491  0.6789 -0.2626
 2314TIP3    H228358   3.801   3.650  15.863  1.2604  1.7135 -0.0899
 2315TIP3   OH228359   4.141   2.368  16.214  0.2059 -0.2160  0.4453
 2315TIP3    H128360   4.107   2.311  16.146 -0.5390  1.2535 -0.4805
 2315TIP3    H228361   4.165   2.310  16.286  0.5654 -1.7655 -0.8752
 2316TIP3   OH228362   3.761   3.912   4.033 -0.2233 -0.1992 -0.3605
 2316TIP3    H128363   3.681   3.959   4.059 -0.7726  0.0519 -2.2900
 2316TIP3    H228364   3.820   3.981   4.002 -0.0448 -0.5543 -0.8279
 2317TIP3   OH228365   3.649   5.176  13.645 -0.6482 -0.5654  0.1995
 2317TIP3    H128366   3.675   5.218  13.563  0.5930 -0.9438  0.3739
 2317TIP3    H228367   3.559   5.146  13.630 -0.8761  0.4569 -0.5784
 2318TIP3   OH228368   4.872   0.109   0.686 -0.0947  0.1074 -0.4094
 2318TIP3    H128369   4.967   0.098   0.696 -0.2552 -1.7785 -0.6140
 2318TIP3    H228370   4.837   0.095   0.774 -0.2117  0.2848 -0.4285
 2319TIP3   OH228371   0.064   6.502   0.033  0.0416 -0.3553  0.2150
 2319TIP3    H128372   0.059   6.464   0.121  1.4038  2.2678  1.5246
 2319TIP3    H228373   0.157   6.506   0.013 -0.2560 -2.3141 -2.1186
 2320TIP3   OH228374   4.419   0.214  15.632 -0.4256 -0.0042  0.0047
 2320TIP3    H128375   4.444   0.125  15.610  1.4470  0.0995  1.4722
 2320TIP3    H228376   4.499   0.255  15.663 -1.4749  1.8605  0.4349
 2321TIP3   OH228377   6.341   4.757  10.874 -0.6918 -0.0633  0.2400
 2321TIP3    H128378   6.256   4.773  10.833  0.2729  1.6630 -1.2541
 2321TIP3    H228379   6.344   4.663  10.887 -2.9409 -0.1399  0.6013
 2322TIP3   OH228380   1.254   1.013  12.597 -0.1542  0.0982 -0.5348
 2322TIP3    H128381   1.340   0.974  12.583 -0.3551  0.3324 -2.9154
 2322TIP3    H228382   1.267   1.107  12.582 -0.7670  0.1667 -0.6828
 2323TIP3   OH228383   4.765   6.575  15.313  0.1376  0.3987 -0.1596
 2323TIP3    H128384   4.823   6.572  15.389 -1.3007  0.2366  0.9811
 2323TIP3    H228385   4.822   6.560  15.238  2.3575  4.3674  0.4269
 2324TIP3   OH228386   2.847   2.873  12.921 -0.2058  0.0935  0.5483
 2324TIP3    H128387   2.932   2.869  12.964 -0.3379 -1.2187  0.7189
 2324TIP3    H228388   2.860   2.826  12.838 -0.5748  0.5345  0.2346
 2325TIP3   OH228389   4.840   4.370  11.925 -0.0276 -0.2574  0.5312
 2325TIP3    H128390   4.921   4.410  11.956  0.5100 -0.0497 -1.0286
 2325TIP3    H228391   4.865   4.326  11.844 -1.4712 -0.2216  0.0436
 2326TIP3   OH228392   5.533   1.315   3.138  0.6968  0.0236  0.5134
 2326TIP3    H128393   5.581   1.388   3.176  1.7447 -0.0952 -0.5287
 2326TIP3    H228394   5.520   1.254   3.211  1.7461  0.2609  0.9122
 2327TIP3   OH228395   4.745   6.116   4.517 -0.1271 -0.8462  0.0266
 2327TIP3    H128396   4.665   6.146   4.561 -0.5338 -0.3793 -0.9901
 2327TIP3    H228397   4.811   6.181   4.540  0.5575 -2.3283  2.5679
 2328TIP3   OH228398   4.238   3.308   3.514 -0.5585 -1.0894 -0.2209
 2328TIP3    H128399   4.156   3.259   3.516 -0.4714 -1.2275  0.2219
 2328TIP3    H228400   4.305   3.244   3.539  0.0207 -1.5529 -2.6739
 2329TIP3   OH228401   0.965   1.254  14.555 -0.3092 -0.0435  0.3209
 2329TIP3    H128402   0.991   1.197  14.482  3.0856  2.4593 -0.6870
 2329TIP3    H228403   1.028   1.235  14.624 -1.0926  0.3247  1.1544
 2330TIP3   OH228404   3.880   4.815   3.591 -0.4764 -0.1358  0.6442
 2330TIP3    H128405   3.872   4.728   3.551 -0.6607 -0.0407  0.4702
 2330TIP3    H228406   3.975   4.828   3.601 -0.4823 -0.9637  2.0420
 2331TIP3   OH228407   4.157   4.243  13.580  0.3951  0.0113 -0.2838
 2331TIP3    H128408   4.205   4.311  13.628  0.7247 -0.1493 -0.3822
 2331TIP3    H228409   4.071   4.240  13.622 -0.2567  1.7142 -1.3912
 2332TIP3   OH228410   0.839   6.336   2.180 -1.5078  0.4246 -0.1542
 2332TIP3    H128411   0.926   6.371   2.160 -1.0753 -0.7786 -0.5229
 2332TIP3    H228412   0.812   6.381   2.259  0.8277 -1.3267  1.8279
 2333TIP3   OH228413   4.229   6.036  14.031  0.2808  0.1668  0.5290
 2333TIP3    H128414   4.303   5.976  14.044  0.3989 -0.1913 -1.4562
 2333TIP3    H228415   4.270   6.122  14.017  0.2476  0.2254  0.7924
 2334TIP3   OH228416   1.194   2.122  15.867  0.4652  0.2221  0.4824
 2334TIP3    H128417   1.129   2.192  15.871 -0.8145 -0.9140  0.3583
 2334TIP3    H228418   1.235   2.132  15.781  0.1626  0.6852  0.3881
 2335TIP3   OH228419   4.231   3.483  14.888  0.2113 -0.4993 -0.2711
 2335TIP3    H128420   4.200   3.513  14.803 -0.5351 -1.8524 -0.4977
 2335TIP3    H228421   4.325   3.503  14.887  0.1217 -0.0691 -1.2139
 2336TIP3   OH228422   1.380   1.865   2.363 -0.0789 -0.0474  0.4183
 2336TIP3    H128423   1.400   1.931   2.297  0.6564  0.5130  1.1718
 2336TIP3    H228424   1.338   1.914   2.434  0.5954 -0.3500  1.0413
 2337TIP3   OH228425   4.176   2.904   1.942  0.5541  0.3188  0.3230
 2337TIP3    H128426   4.083   2.887   1.930  0.4102  0.4940  1.1114
 2337TIP3    H228427   4.180   2.986   1.993  1.1534  0.6879 -0.2925
 2338TIP3   OH228428   1.803   2.403  12.318  0.1951  0.7875  0.4424
 2338TIP3    H128429   1.869   2.392  12.387  0.8555 -0.8791 -0.3969
 2338TIP3    H228430   1.746   2.473  12.351  2.7495  2.8121  0.8671
 2339TIP3   OH228431   5.866   3.407   3.702  0.0353  0.1705  0.2492
 2339TIP3    H128432   5.952   3.369   3.683  0.3980  1.7513 -1.5684
 2339TIP3    H228433   5.803   3.341   3.673  0.6443 -0.1127 -0.4524
 2340TIP3   OH228434   5.019   2.577  10.614 -0.2689  0.2378  0.3721
 2340TIP3    H128435   5.086   2.618  10.560 -0.1671  0.2438  0.4999
 2340TIP3    H228436   4.981   2.508  10.559  0.6168 -0.5142  0.6769
 2341TIP3   OH228437   4.394   0.922  14.693 -0.3852  0.5117 -0.2119
 2341TIP3    H128438   4.393   0.896  14.601  0.5612 -0.6306  0.0683
 2341TIP3    H228439   4.487   0.931  14.714 -0.5377 -0.2267  0.8796
 2342TIP3   OH228440   0.601   3.731   5.586  0.1355  0.1564 -0.1258
 2342TIP3    H128441   0.682   3.719   5.538  0.1861  0.6199 -0.1628
 2342TIP3    H228442   0.562   3.810   5.548 -0.9411 -0.7431 -0.9551
 2343TIP3   OH228443   5.990   2.199  10.753 -0.0129  0.0937 -0.7568
 2343TIP3    H128444   5.934   2.260  10.802  0.2974 -0.0519 -0.2107
 2343TIP3    H228445   6.079   2.228  10.773  0.1768 -1.1993  0.4122
 2344TIP3   OH228446   5.246   2.380  13.233  1.2513  0.5568  0.1555
 2344TIP3    H128447   5.258   2.446  13.302  1.6018  0.0003  0.6386
 2344TIP3    H228448   5.161   2.340  13.253  1.1529  0.6955  0.0108
 2345TIP3   OH228449   1.118   0.646   3.215  0.6478 -0.0674 -0.1310
 2345TIP3    H128450   1.049   0.600   3.264  1.1961 -0.1118  0.6224
 2345TIP3    H228451   1.118   0.604   3.129 -0.2610 -0.0683 -0.1354
 2346TIP3   OH228452   3.218   3.810  14.823  0.3810  0.5517 -0.1791
 2346TIP3    H128453   3.254   3.898  14.840 -0.6320  0.8691  0.3721
 2346TIP3    H228454   3.283   3.769  14.765  2.1837  0.7092  1.6233
 2347TIP3   OH228455   1.335   5.169  16.834 -0.1166 -0.4001  0.1375
 2347TIP3    H128456   1.261   5.227  16.819  1.7344  1.7621 -1.2653
 2347TIP3    H228457   1.332   5.106  16.762 -0.5363 -0.3049  0.0694
 2348TIP3   OH228458   6.075   5.886  15.158 -0.0020 -0.2540 -0.1608
 2348TIP3    H128459   6.150   5.880  15.100  1.3540  1.2445  1.3184
 2348TIP3    H228460   6.048   5.978  15.155  0.1242 -0.1180  1.5332
 2349TIP3   OH228461   2.229   0.110  10.505  0.3229 -0.2186  0.2228
 2349TIP3    H128462   2.228   0.097  10.410 -1.2639 -1.1313  0.3221
 2349TIP3    H228463   2.165   0.179  10.520  1.1671  0.4899  0.5686
 2350TIP3   OH228464   0.184   1.803  11.952 -0.5634 -0.3421 -0.1432
 2350TIP3    H128465   0.187   1.878  12.011 -1.1980 -0.6474  0.2848
 2350TIP3    H228466   0.264   1.754  11.972 -0.0445  0.3176 -0.5701
 2351TIP3   OH228467   5.969   6.658   5.925 -0.0400  0.1760  0.4008
 2351TIP3    H128468   6.004   6.685   6.010  1.3683 -1.5243  0.4073
 2351TIP3    H228469   5.926   6.575   5.942 -0.6243  0.3031 -0.3870
 2352TIP3   OH228470   4.792   1.443  11.416 -0.0843  0.1713  0.3271
 2352TIP3    H128471   4.795   1.506  11.344  1.9823  0.3558  0.4997
 2352TIP3    H228472   4.825   1.362  11.378 -2.0306 -0.6505  0.2994
 2353TIP3   OH228473   3.697   3.450  11.919  0.0359 -0.0494 -0.2401
 2353TIP3    H128474   3.784   3.416  11.898  0.3916  1.8502 -2.2694
 2353TIP3    H228475   3.695   3.456  12.014  1.4906 -1.6419 -0.0698
 2354TIP3   OH228476   3.609   1.130   6.180  0.0805  0.5881 -0.2039
 2354TIP3    H128477   3.577   1.044   6.154  0.6038 -0.0987  1.3073
 2354TIP3    H228478   3.566   1.191   6.120 -0.4316 -0.6947 -1.1906
 2355TIP3   OH228479   4.139   3.536  16.437 -0.7235  0.7500  0.0212
 2355TIP3    H128480   4.225   3.501  16.414 -0.0885  2.5732 -0.5904
 2355TIP3    H228481   4.077   3.466  16.416  0.5332 -0.2551 -0.4042
 2356TIP3   OH228482   4.234   5.992  14.592  0.3341  0.2739 -0.4419
 2356TIP3    H128483   4.157   6.018  14.643  0.6758 -1.7751  1.2510
 2356TIP3    H228484   4.201   5.927  14.530  0.7676 -1.0833  0.7176
 2357TIP3   OH228485   5.490   4.603  11.663  0.0963 -0.0759  0.1844
 2357TIP3    H128486   5.527   4.641  11.583  0.4403  0.1431  0.4454
 2357TIP3    H228487   5.528   4.516  11.668 -0.1593 -0.2036 -0.0485
 2358TIP3   OH228488   5.712   4.529  15.742 -0.3722  0.6664 -0.0114
 2358TIP3    H128489   5.793   4.479  15.731 -0.9141 -0.2592  0.1212
 2358TIP3    H228490   5.712   4.590  15.669 -0.9180 -1.2548 -1.7157
 2359TIP3   OH228491   2.370   2.810   2.145  0.3148 -0.7722 -0.2706
 2359TIP3    H128492   2.394   2.786   2.234 -2.8388 -0.4948  0.8004
 2359TIP3    H228493   2.380   2.729   2.094  0.8607 -1.2843  0.6404
 2360TIP3   OH228494   4.177   6.075  13.385 -0.1820  0.2997  0.4480
 2360TIP3    H128495   4.228   5.999  13.360 -0.8300 -0.3212  0.9764
 2360TIP3    H228496   4.087   6.043  13.391 -0.4201  1.0275  0.9776
 2361TIP3   OH228497   4.744   6.170   2.939  0.2590  0.4710  0.1769
 2361TIP3    H128498   4.812   6.108   2.912  1.0779  1.6100 -0.4860
 2361TIP3    H228499   4.662   6.128   2.913  0.8838  0.4554 -1.9689
 2362TIP3   OH228500   3.763   5.658  13.226 -0.1927  0.0368 -0.5130
 2362TIP3    H128501   3.713   5.740  13.224  0.1662  0.2507 -0.6698
 2362TIP3    H228502   3.852   5.685  13.249 -0.0479 -0.2980 -0.6816
 2363TIP3   OH228503   5.120   4.411   4.639  0.5713 -0.1021 -0.8559
 2363TIP3    H128504   5.126   4.326   4.596  1.5164 -0.1983 -0.5561
 2363TIP3    H228505   5.131   4.392   4.732  0.5490  0.3202 -0.7647
 2364TIP3   OH228506   1.152   1.800  16.604  0.1844  0.7954 -0.0677
 2364TIP3    H128507   1.127   1.708  16.599 -1.0684  1.1900 -1.6817
 2364TIP3    H228508   1.218   1.803  16.674 -0.9231 -1.0400  1.1283
 2365TIP3   OH228509   0.272   2.928  17.010  0.0673  0.2279  0.2653
 2365TIP3    H128510   0.314   2.990  17.071 -1.9046  2.2939 -0.3207
 2365TIP3    H228511   0.307   2.952  16.924  1.7426 -1.7293  0.3147
 2366TIP3   OH228512   5.226   4.495  11.387 -0.3684  0.2796  0.8260
 2366TIP3    H128513   5.314   4.461  11.370 -1.2665 -1.4317 -0.8632
 2366TIP3    H228514   5.208   4.470  11.478 -0.3415 -2.5454  0.1720
 2367TIP3   OH228515   3.670   0.928   0.345  0.0431  0.1885 -0.1811
 2367TIP3    H128516   3.722   1.008   0.343 -1.6676  1.3691 -2.9246
 2367TIP3    H228517   3.685   0.887   0.260 -1.4129 -0.8454  0.0112
 2368TIP3   OH228518   5.212   5.828   4.790 -0.1587  0.7063 -0.4626
 2368TIP3    H128519   5.210   5.801   4.698  0.1269  1.0692 -0.5786
 2368TIP3    H228520   5.287   5.887   4.796 -0.0721  0.5489  0.0436
 2369TIP3   OH228521   6.517   3.988   0.753  0.2165 -0.0377  0.1843
 2369TIP3    H128522   6.460   3.913   0.741 -1.1576  0.7207  1.5722
 2369TIP3    H228523   6.463   4.063   0.730  1.2974  0.5907 -0.3952
 2370TIP3   OH228524   1.851   3.758  10.664  0.2551  0.0581 -0.0228
 2370TIP3    H128525   1.838   3.852  10.652 -0.5254  0.0225  0.4418
 2370TIP3    H228526   1.767   3.719  10.641  0.5284 -0.5131 -0.0710
 2371TIP3   OH228527   6.282   0.025   5.373 -0.0932  0.3023 -0.2997
 2371TIP3    H128528   6.346  -0.029   5.419  0.6303 -0.3185 -1.9423
 2371TIP3    H228529   6.295   0.004   5.280 -1.1561  1.8281 -0.8409
 2372TIP3   OH228530   6.775   5.896  13.771 -0.7808  0.6434 -0.2992
 2372TIP3    H128531   6.854   5.854  13.736 -1.2150 -1.1075  0.6746
 2372TIP3    H228532   6.781   5.987  13.742  1.0814  0.3160 -1.0992
 2373TIP3   OH228533   0.457   2.959   5.638  0.0123 -0.1085 -0.1635
 2373TIP3    H128534   0.535   2.947   5.692 -0.9751  0.1146  1.3837
 2373TIP3    H228535   0.470   3.043   5.595  1.9927 -1.4429 -2.4020
 2374TIP3   OH228536   6.452   2.908   0.371 -0.1338  0.8180  0.5996
 2374TIP3    H128537   6.418   2.840   0.313 -0.9409  0.7058  1.1811
 2374TIP3    H228538   6.381   2.972   0.377 -0.2144  0.6502  1.7251
 2375TIP3   OH228539   6.716   2.473   2.400  0.3026 -0.2057  0.0570
 2375TIP3    H128540   6.761   2.476   2.316  0.8876  1.0757  0.3877
 2375TIP3    H228541   6.677   2.560   2.410 -0.6372 -0.6741  0.6466
 2376TIP3   OH228542   1.724   1.642  13.009  0.1853  0.1780  0.1835
 2376TIP3    H128543   1.694   1.730  13.032  1.0371  0.3894  0.5312
 2376TIP3    H228544   1.817   1.652  12.992  0.4851 -0.8168  1.1147
 2377TIP3   OH228545   5.507   4.477   3.213 -0.0936 -0.6430  0.3254
 2377TIP3    H128546   5.457   4.558   3.218 -0.9988 -1.1730 -0.0559
 2377TIP3    H228547   5.586   4.500   3.164  0.7566  0.5345  2.1094
 2378TIP3   OH228548   4.182   4.310   2.820  0.3579  0.3571  0.0502
 2378TIP3    H128549   4.135   4.374   2.767  0.9683 -0.3985 -1.4686
 2378TIP3    H228550   4.232   4.258   2.756 -1.4740 -2.8093  0.9623
 2379TIP3   OH228551   1.976   2.502   4.035 -0.1592 -0.4389  0.0329
 2379TIP3    H128552   1.904   2.455   4.077 -0.1722  0.7347  1.4229
 2379TIP3    H228553   2.055   2.454   4.062 -0.0408  0.9669  2.6052
 2380TIP3   OH228554   2.354   6.769   3.139 -0.1684 -0.2777 -0.7171
 2380TIP3    H128555   2.346   6.796   3.231  1.9658  0.4863 -0.7068
 2380TIP3    H228556   2.394   6.682   3.143  0.0969 -0.1643 -0.9205
 2381TIP3   OH228557   6.176   3.610  13.827 -0.0442 -0.0058 -0.0704
 2381TIP3    H128558   6.176   3.689  13.880  0.6036  0.1953 -0.3538
 2381TIP3    H228559   6.094   3.566  13.849  1.1893 -1.1227  2.8781
 2382TIP3   OH228560   5.714   2.002  12.697  0.9506  0.1795 -0.2667
 2382TIP3    H128561   5.723   1.908  12.715 -1.1840 -0.0206  0.0595
 2382TIP3    H228562   5.619   2.017  12.697  1.1330  1.8749 -2.8400
 2383TIP3   OH228563   3.170   5.041  14.654  0.3122  0.1566 -0.5516
 2383TIP3    H128564   3.160   5.129  14.619  1.6219  0.7003  0.3752
 2383TIP3    H228565   3.229   4.997  14.592  0.4327  0.2340 -0.4904
 2384TIP3   OH228566   4.973   0.932  13.965 -0.5854  0.2132  0.0444
 2384TIP3    H128567   5.040   0.979  13.914 -0.3315  0.5057  0.6436
 2384TIP3    H228568   4.907   0.909  13.900  0.0070  0.0732 -0.5286
 2385TIP3   OH228569   0.337   2.214   5.605  0.2272  0.0684  0.5349
 2385TIP3    H128570   0.265   2.191   5.663  1.0181  0.0402  1.5265
 2385TIP3    H228571   0.339   2.310   5.605 -1.6812  0.2237 -1.8827
 2386TIP3   OH228572   4.708   3.958   4.607  0.7376  0.2504 -0.0332
 2386TIP3    H128573   4.613   3.962   4.607  0.6193 -1.2797  1.4511
 2386TIP3    H228574   4.732   3.943   4.516 -0.4644  0.1632 -0.3471
 2387TIP3   OH228575   0.446   1.325  12.068 -0.4050 -0.1590  0.3212
 2387TIP3    H128576   0.462   1.388  12.139  3.0262 -1.1981  0.6502
 2387TIP3    H228577   0.356   1.342  12.041 -0.5847  2.8780  2.3302
 2388TIP3   OH228578   4.762   3.637   3.205  0.0300 -0.0347 -0.5648
 2388TIP3    H128579   4.781   3.646   3.298 -1.2650 -1.1555 -0.1662
 2388TIP3    H228580   4.843   3.663   3.161  1.0727 -0.6945  0.9010
 2389TIP3   OH228581   1.280   4.339   0.969 -0.5960 -0.2576  0.0987
 2389TIP3    H128582   1.323   4.344   0.884  2.7344 -0.8682  1.5731
 2389TIP3    H228583   1.276   4.429   1.000  1.5685 -0.3198  0.7185
 2390TIP3   OH228584   0.925   5.365  13.006  1.0653 -0.2115 -0.0845
 2390TIP3    H128585   0.964   5.278  13.020  2.9327  0.5939  0.0281
 2390TIP3    H228586   0.865   5.376  13.079  0.6795 -1.4615 -0.1789
 2391TIP3   OH228587   6.550   2.076   5.349  0.1655  0.3704 -0.0081
 2391TIP3    H128588   6.644   2.063   5.365  0.5557  0.3238 -2.0567
 2391TIP3    H228589   6.546   2.154   5.293 -1.3413  2.6224  3.0072
 2392TIP3   OH228590   6.112   4.786  15.431 -0.1317  0.2119 -0.5093
 2392TIP3    H128591   6.206   4.772  15.418 -0.0575  0.0272  0.2307
 2392TIP3    H228592   6.071   4.707  15.396 -0.0152  0.2930 -0.8352
 2393TIP3   OH228593   4.516   0.414  15.468 -0.2074 -0.1475  0.2361
 2393TIP3    H128594   4.483   0.354  15.535  2.2574 -2.4466 -0.4601
 2393TIP3    H228595   4.459   0.400  15.393 -0.9003 -0.0525  0.7309
 2394TIP3   OH228596   0.928   2.559  12.405 -0.1942 -0.2542  0.8076
 2394TIP3    H128597   0.927   2.638  12.350  2.3855 -1.0129 -0.5161
 2394TIP3    H228598   0.847   2.564  12.456 -1.8007  1.4964 -1.6719
 2395TIP3   OH228599   4.417   2.335   2.562  0.0458 -0.3910 -0.2092
 2395TIP3    H128600   4.369   2.274   2.618 -2.2283  0.8779 -0.6265
 2395TIP3    H228601   4.453   2.399   2.623 -0.2595 -0.4125 -0.0015
 2396TIP3   OH228602   0.451   1.564   1.197  0.4648 -0.6104 -0.5658
 2396TIP3    H128603   0.484   1.597   1.114  0.6134 -0.8741 -0.6117
 2396TIP3    H228604   0.381   1.504   1.172 -0.2978  0.2120 -0.4591
 2397TIP3   OH228605   0.189   6.437  15.698  0.4472  0.0483  0.5205
 2397TIP3    H128606   0.104   6.393  15.693 -1.9626  4.1450  0.0472
 2397TIP3    H228607   0.226   6.428  15.611  0.3029 -1.3416  0.5804
 2398TIP3   OH228608   0.503   2.106   1.392  0.0418 -0.1973  0.0680
 2398TIP3    H128609   0.445   2.051   1.339  0.1914  0.4314 -0.7741
 2398TIP3    H228610   0.567   2.045   1.427 -0.2691 -0.6865 -0.1983
 2399TIP3   OH228611   4.124   1.196   5.909  0.0059 -0.3728  0.0130
 2399TIP3    H128612   4.126   1.200   6.005  0.2718  0.2814 -0.0146
 2399TIP3    H228613   4.039   1.234   5.886 -0.0519 -0.5168 -0.0122
 2400TIP3   OH228614   4.108   1.596   0.484  0.4441  0.4802  0.0501
 2400TIP3    H128615   4.182   1.655   0.498 -0.1095  1.1603  0.1825
 2400TIP3    H228616   4.081   1.613   0.393  1.2999 -0.7627 -0.4612
 2401TIP3   OH228617   5.652   5.257  14.983  0.0903  0.3710 -0.5519
 2401TIP3    H128618   5.625   5.339  14.943  1.9017  0.7618 -1.0649
 2401TIP3    H228619   5.633   5.268  15.076 -0.0162  1.2351 -0.6711
 2402TIP3   OH228620   2.465   6.039  11.802  0.8912  0.0920 -0.3630
 2402TIP3    H128621   2.445   6.109  11.740  0.8869  1.1973  0.8249
 2402TIP3    H228622   2.527   6.079  11.863  0.2153 -0.6546  0.8529
 2403TIP3   OH228623   4.811   5.768  14.115 -0.7012  0.3263 -0.0735
 2403TIP3    H128624   4.824   5.859  14.143  0.0519  0.3293 -0.4021
 2403TIP3    H228625   4.878   5.719  14.162 -0.6075  0.0562 -0.4815
 2404TIP3   OH228626   4.865   2.904  16.815 -0.1615  0.2746  0.2952
 2404TIP3    H128627   4.787   2.879  16.765 -0.6332 -0.8778  1.5400
 2404TIP3    H228628   4.831   2.950  16.891  0.3773 -0.1982  0.8310
 2405TIP3   OH228629   3.017   2.268  11.764 -0.4467 -0.1616 -0.1890
 2405TIP3    H128630   2.997   2.359  11.785  0.0371  0.0587 -0.6467
 2405TIP3    H228631   3.093   2.248  11.819 -0.7058 -0.3662  0.0929
 2406TIP3   OH228632   5.080   2.113  12.599  0.2475 -0.2986  0.3130
 2406TIP3    H128633   5.003   2.163  12.627  1.0050 -0.3689  2.7826
 2406TIP3    H228634   5.130   2.173  12.545 -0.1732  0.7041  1.0062
 2407TIP3   OH228635   3.190   0.018  11.679 -0.1575  0.3842  0.3769
 2407TIP3    H128636   3.259  -0.036  11.716  2.0109  1.3216 -2.0175
 2407TIP3    H228637   3.150  -0.037  11.612  0.5652  0.9573 -0.5424
 2408TIP3   OH228638   1.215   6.474  16.865  0.5483 -0.6313 -0.9936
 2408TIP3    H128639   1.153   6.402  16.881  0.5324 -0.4881 -0.3957
 2408TIP3    H228640   1.300   6.438  16.890  0.1656  0.5363  2.4608
 2409TIP3   OH228641   6.390   6.158   2.480  0.1827 -0.4706 -0.2383
 2409TIP3    H128642   6.447   6.137   2.555  0.3592  0.8226  0.0118
 2409TIP3    H228643   6.346   6.076   2.460  1.6789 -1.3693 -0.0426
 2410TIP3   OH228644   6.113   3.288   3.997 -0.0987 -0.2283 -0.3874
 2410TIP3    H128645   6.150   3.307   3.911  1.3821 -1.8569 -0.1489
 2410TIP3    H228646   6.177   3.232   4.040 -0.6199  0.8423  1.9517
 2411TIP3   OH228647   2.528   6.546   2.798 -0.0700  1.1319 -0.7263
 2411TIP3    H128648   2.579   6.624   2.821  1.3146 -0.0176  0.2837
 2411TIP3    H228649   2.511   6.556   2.704  3.3973  0.8823 -1.5506
 2412TIP3   OH228650   3.084   3.033   2.328 -0.0743  0.6513  0.1763
 2412TIP3    H128651   3.057   3.079   2.249  2.1048  0.0293 -1.0287
 2412TIP3    H228652   3.016   2.967   2.342  0.3796 -0.4467 -2.3082
 2413TIP3   OH228653   5.667   3.036   1.564 -0.2118 -0.5462 -0.7539
 2413TIP3    H128654   5.623   2.971   1.510 -0.9439 -0.3765 -0.3784
 2413TIP3    H228655   5.611   3.044   1.641  1.2536 -1.4337  0.4609
 2414TIP3   OH228656   2.605   2.845   5.503  0.1728 -0.0755  0.5625
 2414TIP3    H128657   2.531   2.851   5.442 -0.2022  1.9580  1.1609
 2414TIP3    H228658   2.632   2.753   5.498 -2.8890 -1.0843  0.9150
 2415TIP3   OH228659   5.285   2.935  10.843  0.7434 -0.2876  0.6002
 2415TIP3    H128660   5.201   2.973  10.819  0.6567 -0.5464  0.4874
 2415TIP3    H228661   5.344   3.010  10.851  0.8125 -0.1997 -0.5891
 2416TIP3   OH228662   3.802   2.125   5.090 -0.1559 -0.5624  0.1290
 2416TIP3    H128663   3.745   2.083   5.026 -1.3636 -1.8107  1.9410
 2416TIP3    H228664   3.889   2.123   5.049 -0.9765 -0.7591 -1.7008
 2417TIP3   OH228665   1.884   0.139   5.297 -0.2672  0.0489 -0.1941
 2417TIP3    H128666   1.902   0.124   5.390  1.8300  1.9070 -0.2300
 2417TIP3    H228667   1.878   0.234   5.288  0.3063 -0.0480 -2.0541
 2418TIP3   OH228668   4.691   0.076   2.189 -0.1193  0.0467 -0.0613
 2418TIP3    H128669   4.650   0.022   2.257  1.6690 -1.1500  0.1295
 2418TIP3    H228670   4.755   0.129   2.237 -0.3562  0.7818 -0.5428
 2419TIP3   OH228671   1.347   2.685   2.716 -0.5945  0.2087  0.5679
 2419TIP3    H128672   1.280   2.750   2.738 -1.6895 -0.1528 -1.3950
 2419TIP3    H228673   1.430   2.729   2.731 -1.2304  0.6483  3.1345
 2420TIP3   OH228674   6.430   5.450  14.020  0.5674 -0.0238  0.2948
 2420TIP3    H128675   6.394   5.537  14.036  2.2704  0.8826 -0.5426
 2420TIP3    H228676   6.356   5.391  14.034 -0.3911  1.4496  1.8789
 2421TIP3   OH228677   4.986   1.677  15.323  0.1280  0.8246 -0.0833
 2421TIP3    H128678   4.985   1.711  15.233 -0.2732 -1.6705 -1.1098
 2421TIP3    H228679   4.894   1.658  15.342  0.1251  1.9120  1.1465
 2422TIP3   OH228680   0.362   0.111   3.498  0.1042  0.0932 -0.0980
 2422TIP3    H128681   0.381   0.070   3.414  1.0093  0.3141 -0.0088
 2422TIP3    H228682   0.443   0.155   3.523  0.7212 -2.0840  2.1250
 2423TIP3   OH228683   1.558   6.408   1.219 -1.2112 -0.1694  0.0134
 2423TIP3    H128684   1.643   6.368   1.200 -1.6330 -0.6794 -0.8884
 2423TIP3    H228685   1.573   6.502   1.213 -0.6140 -0.2416  0.3128
 2424TIP3   OH228686   5.223   3.683  16.054  0.5182 -0.4024 -0.0736
 2424TIP3    H128687   5.278   3.692  15.976  1.0939  0.5393  0.4313
 2424TIP3    H228688   5.195   3.772  16.075 -1.0150 -0.8296 -0.1722
 2425TIP3   OH228689   0.791   0.649  14.432  0.6342 -0.0639 -0.4732
 2425TIP3    H128690   0.866   0.668  14.488  0.3893  0.3786 -0.2944
 2425TIP3    H228691   0.759   0.734  14.404  0.8629 -0.2834 -1.4440
 2426TIP3   OH228692   2.346   2.866   2.951  0.1163 -0.0792  0.1878
 2426TIP3    H128693   2.323   2.807   2.879  0.4523 -0.3717  0.3173
 2426TIP3    H228694   2.321   2.818   3.030  0.5190 -0.1103  0.2985
 2427TIP3   OH228695   2.200   3.863   0.174  0.1968 -0.1692 -0.0535
 2427TIP3    H128696   2.155   3.868   0.090  0.3680 -0.2561 -0.1518
 2427TIP3    H228697   2.210   3.769   0.190 -1.1740 -0.1969  0.7889
 2428TIP3   OH228698   6.284   5.509  16.626 -0.3328  0.1272  0.0604
 2428TIP3    H128699   6.301   5.507  16.720 -1.0514 -0.8946  0.1830
 2428TIP3    H228700   6.217   5.442  16.612 -0.7346  0.7412 -1.0800
 2429TIP3   OH228701   6.434   4.657  15.727  0.0156  0.0891 -0.3112
 2429TIP3    H128702   6.363   4.602  15.692  0.0490  0.7807 -1.5212
 2429TIP3    H228703   6.506   4.595  15.742 -0.0191 -0.2462 -1.4402
 2430TIP3   OH228704   4.071   4.184   2.060  0.0097  0.1679 -0.3703
 2430TIP3    H128705   4.038   4.253   2.116 -1.1874 -1.8217  1.5275
 2430TIP3    H228706   4.152   4.219   2.023 -1.1513  2.9754 -0.4474
 2431TIP3   OH228707   4.175   6.206   6.331 -0.0072  0.0284  0.5239
 2431TIP3    H128708   4.091   6.173   6.365  0.7510  0.1067  2.6370
 2431TIP3    H228709   4.194   6.283   6.384  0.9143  0.6324 -0.6378
 2432TIP3   OH228710   5.425   6.427  13.050  0.1156  0.4309 -0.2221
 2432TIP3    H128711   5.353   6.363  13.050  0.1590  0.3337 -1.7462
 2432TIP3    H228712   5.406   6.485  13.123 -2.0368  0.9534 -1.1294
 2433TIP3   OH228713   6.410   2.664   4.007  0.0482 -0.1156  0.3379
 2433TIP3    H128714   6.453   2.741   3.971 -1.2976  1.0515  1.1019
 2433TIP3    H228715   6.372   2.620   3.931 -0.7746  1.0364  0.0546
 2434TIP3   OH228716   3.716   4.823  14.761 -0.3467  0.1008 -0.6669
 2434TIP3    H128717   3.682   4.769  14.832 -0.7225  1.2398  0.0609
 2434TIP3    H228718   3.667   4.795  14.684 -0.3350 -0.7783 -0.3617
 2435TIP3   OH228719   5.372   6.561   4.474  0.1749  0.2694  0.3541
 2435TIP3    H128720   5.322   6.613   4.411 -1.7139 -2.1978 -0.3392
 2435TIP3    H228721   5.457   6.548   4.432  0.2117  1.6223 -0.0340
 2436TIP3   OH228722   3.563   5.741   2.548 -0.5871 -0.9869  0.7410
 2436TIP3    H128723   3.598   5.784   2.625  2.7868  1.2433 -1.7497
 2436TIP3    H228724   3.621   5.667   2.532 -1.2872 -1.4703  0.3424
 2437TIP3   OH228725   2.846   0.172   2.730 -0.1566 -0.4650  0.0021
 2437TIP3    H128726   2.899   0.162   2.810  0.2871  0.5726 -0.1449
 2437TIP3    H228727   2.830   0.266   2.724  2.3299 -0.0602 -2.6886
 2438TIP3   OH228728   1.394   4.487   6.396  0.4910 -0.4526 -0.0846
 2438TIP3    H128729   1.406   4.393   6.409  0.3881 -0.3195  1.0648
 2438TIP3    H228730   1.300   4.499   6.384  0.6160 -0.6085 -1.2982
 2439TIP3   OH228731   3.640   3.727  15.075 -0.3481 -0.3532 -0.1718
 2439TIP3    H128732   3.577   3.714  15.004 -0.1090  0.2105 -0.4980
 2439TIP3    H228733   3.586   3.747  15.151 -0.5891 -0.4539 -0.3148
 2440TIP3   OH228734   4.706   0.497   5.682  0.4460  0.3613  0.6261
 2440TIP3    H128735   4.641   0.554   5.639  0.7329  0.6977  0.6342
 2440TIP3    H228736   4.781   0.498   5.622  0.4919  0.0730  0.6789
 2441TIP3   OH228737   0.842   0.322   3.725 -0.2007  0.4207  0.6842
 2441TIP3    H128738   0.839   0.278   3.811 -1.3508  2.2189  1.6201
 2441TIP3    H228739   0.898   0.397   3.739 -0.6076  0.8707 -0.0681
 2442TIP3   OH228740   3.397   4.484  15.167  0.0670 -0.2684  0.3267
 2442TIP3    H128741   3.405   4.494  15.262 -0.1727 -1.1521  0.4444
 2442TIP3    H228742   3.399   4.390  15.152 -0.7743 -0.1761 -0.4684
 2443TIP3   OH228743   1.925   0.250  15.097  0.3893 -0.5503 -0.0855
 2443TIP3    H128744   1.936   0.172  15.043  0.7155  0.4739 -1.5913
 2443TIP3    H228745   1.835   0.279  15.079  0.9231  0.5352 -1.1912
 2444TIP3   OH228746   4.962   3.562  15.802  0.0398 -0.2226 -0.1442
 2444TIP3    H128747   4.960   3.655  15.823  4.2622 -0.0455  0.2700
 2444TIP3    H228748   4.972   3.559  15.707  1.5720 -0.0992 -0.0148
 2445TIP3   OH228749   5.624   2.086  13.283  0.0223  0.4762 -0.1694
 2445TIP3    H128750   5.544   2.051  13.243  0.6635  0.4390 -1.4821
 2445TIP3    H228751   5.660   2.012  13.332 -0.6019  0.4201  0.2219
 2446TIP3   OH228752   6.264   5.896   3.785 -0.0950 -0.0949  0.0557
 2446TIP3    H128753   6.290   5.982   3.820  1.2381 -0.8013  0.8973
 2446TIP3    H228754   6.305   5.833   3.844  1.2298 -1.3372 -2.0604
 2447TIP3   OH228755   0.818   6.248  15.214 -0.0643 -0.1663  0.4964
 2447TIP3    H128756   0.864   6.276  15.292  1.5068 -0.5089 -0.2662
 2447TIP3    H228757   0.825   6.323  15.154 -0.9329 -0.0431  0.5374
 2448TIP3   OH228758   6.475   6.638  15.071 -0.3577  0.0721 -0.3002
 2448TIP3    H128759   6.444   6.618  14.983  2.6227  1.1167 -1.7369
 2448TIP3    H228760   6.474   6.554  15.117 -1.7515 -0.5356 -1.3796
 2449TIP3   OH228761   3.841   3.718   2.927 -0.1981 -0.0323 -0.5265
 2449TIP3    H128762   3.865   3.723   3.019  0.8930 -0.4923 -0.7666
 2449TIP3    H228763   3.748   3.740   2.925  0.1440  1.6839  0.4776
 2450TIP3   OH228764   5.923   5.234   3.326 -0.6917 -0.0338  0.2838
 2450TIP3    H128765   5.995   5.213   3.266 -0.5753  0.3184  0.2932
 2450TIP3    H228766   5.961   5.223   3.413  0.6287  3.8796  0.4159
 2451TIP3   OH228767   0.131   1.041  16.049 -0.3337 -0.5371  0.4100
 2451TIP3    H128768   0.223   1.016  16.048  0.0655  0.7197  1.5898
 2451TIP3    H228769   0.098   1.007  16.132 -0.2533  1.0879  1.1582
 2452TIP3   OH228770   1.264   2.738   0.838 -0.4386 -0.2360  0.8195
 2452TIP3    H128771   1.298   2.655   0.871  1.6757  0.2765  0.0694
 2452TIP3    H228772   1.224   2.716   0.754 -1.0334 -0.6741  1.2083
 2453TIP3   OH228773   2.587   5.552   5.702  0.3772  0.5623  0.5695
 2453TIP3    H128774   2.635   5.568   5.783  0.8399 -0.8634  0.5984
 2453TIP3    H228775   2.496   5.575   5.723 -0.0751 -2.3995  2.4330
 2454TIP3   OH228776   2.632   2.077   5.219  0.5843 -0.1390  0.0492
 2454TIP3    H128777   2.684   2.156   5.234 -0.1947  0.4071 -0.0539
 2454TIP3    H228778   2.660   2.017   5.288 -0.8327  1.2631  1.9686
 2455TIP3   OH228779   1.878   6.217  10.706 -0.2704 -0.4269 -0.2705
 2455TIP3    H128780   1.920   6.135  10.680  0.9628  0.5436 -1.4429
 2455TIP3    H228781   1.880   6.271  10.627 -2.3150  0.2586  0.0912
 2456TIP3   OH228782   4.290   0.140  15.899  0.0125 -0.2191  0.6031
 2456TIP3    H128783   4.343   0.115  15.823 -0.3865 -0.5858  0.4383
 2456TIP3    H228784   4.274   0.234  15.888  0.3772 -0.1698  0.4969
 2457TIP3   OH228785   1.571   2.182  15.486  0.1943 -0.1233 -0.0571
 2457TIP3    H128786   1.611   2.176  15.573  1.6810  0.0628 -0.6941
 2457TIP3    H228787   1.567   2.092  15.455  2.2315  0.0129 -0.8662
 2458TIP3   OH228788   0.042   3.900   3.096  0.3410 -0.7343  0.1262
 2458TIP3    H128789   0.042   3.896   3.192 -1.8925 -1.7527  0.1562
 2458TIP3    H228790  -0.017   3.972   3.074  0.6270 -0.6786 -0.4824
 2459TIP3   OH228791   0.784   6.734  11.824  0.0708  0.0807  0.1768
 2459TIP3    H128792   0.860   6.684  11.793  0.1249  0.9841 -1.2053
 2459TIP3    H228793   0.734   6.671  11.876  0.8195 -1.0338 -0.4109
 2460TIP3   OH228794   4.462   0.607  14.083 -0.4762 -0.6526  0.0009
 2460TIP3    H128795   4.485   0.530  14.031 -1.3577 -0.4341 -0.7353
 2460TIP3    H228796   4.379   0.636  14.047  0.2016  1.1033 -0.2241
 2461TIP3   OH228797   3.463   0.625  12.393  0.0112  0.5730  0.2607
 2461TIP3    H128798   3.551   0.645  12.362 -0.1450 -0.2024 -0.7070
 2461TIP3    H228799   3.441   0.698  12.451  1.8252  0.1063  1.6429
 2462TIP3   OH228800   4.329   1.257   3.218 -0.6706  0.1993 -0.3519
 2462TIP3    H128801   4.249   1.207   3.235 -0.9309  0.5389 -0.5910
 2462TIP3    H228802   4.310   1.308   3.140  0.2383 -0.7133 -1.1908
 2463TIP3   OH228803   1.467   6.625  11.587 -0.5178  0.1977  0.3318
 2463TIP3    H128804   1.507   6.708  11.613  1.3919  0.0500 -1.8007
 2463TIP3    H228805   1.446   6.637  11.494  2.1483 -2.4550 -0.7537
 2464TIP3   OH228806   6.136   0.536  12.410 -0.4831  0.9040  0.6089
 2464TIP3    H128807   6.137   0.477  12.335 -1.9007  0.4247  0.9234
 2464TIP3    H228808   6.136   0.624  12.371 -1.2084  0.6632  0.0288
 2465TIP3   OH228809   6.007   1.469   3.879  0.7567  0.4110 -0.2435
 2465TIP3    H128810   5.911   1.479   3.875  0.6947 -0.3194 -0.6846
 2465TIP3    H228811   6.032   1.451   3.789  1.7776  4.4470 -0.9922
 2466TIP3   OH228812   0.113   3.680  14.320  0.7142  0.0022  0.5709
 2466TIP3    H128813   0.179   3.722  14.375 -0.3081 -0.1969  2.0078
 2466TIP3    H228814   0.163   3.624  14.261  1.8205 -0.3362  1.7918
 2467TIP3   OH228815   5.609   5.800  10.550  0.1143 -0.2524  0.3601
 2467TIP3    H128816   5.637   5.888  10.526 -0.8287 -0.6755 -2.8159
 2467TIP3    H228817   5.690   5.754  10.573  0.9300  0.8193 -0.2742
 2468TIP3   OH228818   1.086   6.378   1.337  0.0797 -0.3695 -0.4580
 2468TIP3    H128819   1.025   6.307   1.357 -0.3946  0.3393  0.7781
 2468TIP3    H228820   1.113   6.363   1.247 -2.8587 -0.0393 -1.4805
 2469TIP3   OH228821   6.590   0.040   3.796  0.2870 -0.0320  0.4560
 2469TIP3    H128822   6.599  -0.055   3.802 -0.8606 -0.2005 -0.2507
 2469TIP3    H228823   6.614   0.061   3.706  2.4651  0.6228  1.1172
 2470TIP3   OH228824   1.044   3.461   6.728  0.5181  0.4317 -0.3362
 2470TIP3    H128825   0.973   3.414   6.773  0.8173  2.8269  3.0410
 2470TIP3    H228826   1.015   3.466   6.637 -4.5632  2.5355  1.0144
 2471TIP3   OH228827   5.297   1.958  12.813 -0.2020 -0.5531  0.3280
 2471TIP3    H128828   5.312   1.885  12.752  0.6526 -0.8670  0.9027
 2471TIP3    H228829   5.209   1.942  12.847 -0.3749 -0.8153 -0.2268
 2472TIP3   OH228830   3.034   2.931  13.546 -0.2028  0.2658 -0.3056
 2472TIP3    H128831   2.945   2.905  13.570 -0.2981  1.9954  1.4001
 2472TIP3    H228832   3.091   2.871  13.594 -0.4490  0.4876  0.2734
 2473TIP3   OH228833   5.067   0.248  13.669 -0.0642  0.3810 -0.2892
 2473TIP3    H128834   5.146   0.212  13.628 -0.3579 -0.0907 -0.4494
 2473TIP3    H228835   5.096   0.330  13.710  0.2123  0.9616 -1.5853
 2474TIP3   OH228836   5.645   5.859   4.901  0.0135  0.2300 -0.4110
 2474TIP3    H128837   5.599   5.917   4.961  0.0238 -1.6462  1.5225
 2474TIP3    H228838   5.723   5.831   4.949 -0.8280 -2.6568 -0.5606
 2475TIP3   OH228839   2.652   3.677  10.876 -0.4867 -0.1997 -0.1974
 2475TIP3    H128840   2.706   3.690  10.954  3.0307 -1.2230 -2.2394
 2475TIP3    H228841   2.626   3.585  10.879  0.0590 -0.3663 -0.4273
 2476TIP3   OH228842   5.219   5.573   5.154 -0.6424  0.3977 -0.1354
 2476TIP3    H128843   5.277   5.586   5.079  2.6242  1.4844  2.3425
 2476TIP3    H228844   5.188   5.483   5.144  1.7833 -0.4001 -1.4798
 2477TIP3   OH228845   3.919   0.010  16.690  0.0575  0.2206  0.0818
 2477TIP3    H128846   3.978   0.082  16.709 -0.6599  1.2133 -1.3193
 2477TIP3    H228847   3.831   0.049  16.690 -0.4967 -0.9622  0.8174
 2478TIP3   OH228848   0.356   1.858  15.605 -0.0204 -0.4529  0.0040
 2478TIP3    H128849   0.367   1.816  15.520  1.3298  0.7010 -0.4375
 2478TIP3    H228850   0.266   1.890  15.605  0.2748  0.4843 -1.4754
 2479TIP3   OH228851   1.383   6.716   1.244 -0.3791 -0.4818 -0.1832
 2479TIP3    H128852   1.416   6.769   1.317 -0.0052 -1.0946  0.0951
 2479TIP3    H228853   1.332   6.647   1.286 -0.8165 -0.3885 -0.5445
 2480TIP3   OH228854   1.309   1.589   1.090  0.4654 -0.0105 -0.0098
 2480TIP3    H128855   1.331   1.674   1.051 -1.6767  0.1773 -0.9601
 2480TIP3    H228856   1.235   1.558   1.039 -0.3200 -1.3598  1.8311
 2481TIP3   OH228857   1.247   2.791  10.631  0.4342  0.0789  0.2986
 2481TIP3    H128858   1.314   2.722  10.632 -1.2493 -1.6448  0.3367
 2481TIP3    H228859   1.245   2.821  10.540  1.7128  0.6846  0.4387
 2482TIP3   OH228860   2.591   5.254  16.581 -0.4096 -0.1317 -0.1570
 2482TIP3    H128861   2.563   5.283  16.667  0.4883  0.9039 -0.1853
 2482TIP3    H228862   2.607   5.160  16.591 -2.7002 -0.5425  0.1300
 2483TIP3   OH228863   4.687   2.207  14.450 -0.3130 -0.3119 -0.1981
 2483TIP3    H128864   4.767   2.193  14.400 -0.8976 -0.5373 -1.0942
 2483TIP3    H228865   4.697   2.295  14.487 -0.3157  0.3119 -1.6061
 2484TIP3   OH228866   2.347   4.700  12.915  0.3832 -0.0439 -0.0180
 2484TIP3    H128867   2.359   4.792  12.938 -0.3310  0.1236 -0.2925
 2484TIP3    H228868   2.273   4.700  12.854  1.3779 -0.6091 -1.2951
 2485TIP3   OH228869   2.370   1.763   2.339  0.2810  0.6010  0.3985
 2485TIP3    H128870   2.447   1.751   2.284  0.9294  0.3154  1.3491
 2485TIP3    H228871   2.299   1.720   2.291  1.0597 -0.6123  0.3053
 2486TIP3   OH228872   5.828   6.008   6.643 -0.1394  0.3580 -0.4925
 2486TIP3    H128873   5.916   6.035   6.618  0.2813 -0.3399  0.1997
 2486TIP3    H228874   5.841   5.930   6.698 -1.1970  0.0894 -0.5994
 2487TIP3   OH228875   3.130   1.058  13.725 -0.3645 -0.3687 -0.3734
 2487TIP3    H128876   3.214   1.037  13.684 -1.4541  0.1885 -3.1649
 2487TIP3    H228877   3.082   1.104  13.656 -3.3067 -1.4822  0.7968
 2488TIP3   OH228878   1.611   6.820   2.855  0.2397  1.1608 -0.0283
 2488TIP3    H128879   1.671   6.874   2.802  0.3512 -1.8962 -3.4194
 2488TIP3    H228880   1.536   6.806   2.797  1.2346 -4.0900 -0.4650
 2489TIP3   OH228881   6.764   2.947   1.767 -0.0904 -0.1815  0.5994
 2489TIP3    H128882   6.743   3.024   1.713  0.5363  0.1716  0.8493
 2489TIP3    H228883   6.859   2.945   1.770 -0.1142 -0.1729  1.7306
 2490TIP3   OH228884   4.435   3.824   1.614  0.2910  0.3417  0.0889
 2490TIP3    H128885   4.420   3.865   1.699  0.6297  0.6366  0.0066
 2490TIP3    H228886   4.458   3.734   1.635 -0.7020  0.1132  0.2589
 2491TIP3   OH228887   0.459   4.163  14.475  0.1632  0.1003 -0.8594
 2491TIP3    H128888   0.436   4.083  14.428  1.2589 -0.3642 -0.6312
 2491TIP3    H228889   0.513   4.133  14.548  0.0548  0.9915 -0.4080
 2492TIP3   OH228890   4.341   1.260  11.306 -0.6181  0.5258  0.6910
 2492TIP3    H128891   4.402   1.283  11.236 -1.3859  1.7824  0.3924
 2492TIP3    H228892   4.288   1.190  11.269 -0.8375  0.9935  0.0982
 2493TIP3   OH228893   4.441   5.393  14.204 -0.1329  0.3894  0.0306
 2493TIP3    H128894   4.367   5.377  14.262  0.0997 -1.3579 -0.0958
 2493TIP3    H228895   4.476   5.306  14.185  0.5555  1.0140 -1.7484
 2494TIP3   OH228896   0.500   6.542  11.756 -0.0342  0.2118 -0.0030
 2494TIP3    H128897   0.445   6.611  11.795 -0.9418 -0.1147 -0.6635
 2494TIP3    H228898   0.449   6.511  11.682  1.1442 -0.0047 -0.7342
 2495TIP3   OH228899   2.105   4.010   5.305  0.6483 -0.5475  0.4317
 2495TIP3    H128900   2.198   3.989   5.302  0.6878 -0.3328 -1.9187
 2495TIP3    H228901   2.061   3.929   5.277  0.2845 -0.0887 -0.3780
 2496TIP3   OH228902   1.413   4.631  14.216  0.0036 -0.4232 -0.1991
 2496TIP3    H128903   1.372   4.679  14.287  0.7703 -0.0508 -0.0010
 2496TIP3    H228904   1.366   4.659  14.138 -1.1992 -1.2254  0.1963
 2497TIP3   OH228905   4.703   4.242   1.011 -0.0078  0.1801  0.4804
 2497TIP3    H128906   4.660   4.226   0.927 -0.2564  1.8837  0.2509
 2497TIP3    H228907   4.795   4.222   0.995 -0.3491 -1.4352  0.3836
 2498TIP3   OH228908   6.707   2.478  15.211  0.6045 -0.0763 -0.2839
 2498TIP3    H128909   6.737   2.422  15.283  0.3741 -1.5427 -1.2867
 2498TIP3    H228910   6.714   2.423  15.133  2.2086  1.9049 -1.6449
 2499TIP3   OH228911   2.279   0.071  10.935  0.1323  0.6128  0.1909
 2499TIP3    H128912   2.369   0.063  10.965  0.4346  3.6157  0.3330
 2499TIP3    H228913   2.226   0.059  11.014  0.6523  2.5465  0.8999
 2500TIP3   OH228914   3.635   2.532  16.834  0.5229  0.3847 -0.2121
 2500TIP3    H128915   3.639   2.487  16.750 -1.4748  1.0813 -0.7498
 2500TIP3    H228916   3.603   2.619  16.813 -2.1182 -0.0782  1.4082
 2501TIP3   OH228917   3.320   2.341  16.595  0.3188 -0.3414  0.0162
 2501TIP3    H128918   3.281   2.254  16.594  2.4480 -1.4963  2.9324
 2501TIP3    H228919   3.264   2.392  16.653  0.1087 -0.3341 -0.1936
 2502TIP3   OH228920   4.063   0.719  13.788  0.0203  0.0555  0.2117
 2502TIP3    H128921   4.035   0.767  13.711  1.0443  0.1732 -0.1036
 2502TIP3    H228922   3.992   0.658  13.806 -0.4630  0.4022 -0.4996
 2503TIP3   OH228923   1.089   2.138   4.457  0.6901  0.4625  0.3095
 2503TIP3    H128924   1.157   2.070   4.456 -0.5953 -0.8818 -1.1138
 2503TIP3    H228925   1.055   2.135   4.547  0.2095 -1.2998  0.1162
 2504TIP3   OH228926   6.496   4.593   0.013  0.1891 -0.2591 -0.6478
 2504TIP3    H128927   6.560   4.540   0.060 -1.5908 -1.1798  0.8937
 2504TIP3    H228928   6.524   4.683   0.027  0.8885 -0.6191  0.3792
 2505TIP3   OH228929   0.240   0.106  16.058 -0.4823  0.0138  1.2019
 2505TIP3    H128930   0.184   0.033  16.085  1.8604 -2.3109  0.1425
 2505TIP3    H228931   0.329   0.073  16.068  0.6553  2.0887 -1.0836
 2506TIP3   OH228932   0.164   4.453   5.420 -0.1159  0.1337  0.4429
 2506TIP3    H128933   0.141   4.440   5.328  3.3038 -0.3981 -0.4572
 2506TIP3    H228934   0.160   4.548   5.431 -1.1207  0.1693 -0.0458
 2507TIP3   OH228935   0.687   5.412  14.508 -0.3521  0.1001 -0.1356
 2507TIP3    H128936   0.614   5.411  14.570 -1.5558  2.0290 -1.4038
 2507TIP3    H228937   0.733   5.494  14.527  2.1070 -1.4842  1.2260
 2508TIP3   OH228938   1.467   3.969   2.958 -0.6916 -0.3319  0.0783
 2508TIP3    H128939   1.409   3.902   2.922 -0.0523 -0.1566 -1.3591
 2508TIP3    H228940   1.498   3.932   3.040  0.1399 -2.1206 -0.9800
 2509TIP3   OH228941   4.246   3.312  14.275  0.0561  0.1898 -0.8547
 2509TIP3    H128942   4.273   3.392  14.230 -1.1794  0.0603 -1.9006
 2509TIP3    H228943   4.319   3.291  14.333  0.0850  2.4965  0.0413
 2510TIP3   OH228944   3.374   1.897  12.364  0.1610  1.0077 -0.5277
 2510TIP3    H128945   3.467   1.890  12.344  0.0268  0.4246 -0.9713
 2510TIP3    H228946   3.334   1.926  12.281 -0.2756 -0.5025 -0.8804
 2511TIP3   OH228947   5.394   1.643   2.348 -0.4780 -0.3838 -0.0198
 2511TIP3    H128948   5.396   1.575   2.281 -1.0465 -1.1498  0.7041
 2511TIP3    H228949   5.308   1.684   2.337 -0.2983 -0.0494 -0.1920
 2512TIP3   OH228950   6.337   3.716  12.363  0.6826  0.1878  0.2218
 2512TIP3    H128951   6.324   3.771  12.286 -1.3987  0.0436  0.4050
 2512TIP3    H228952   6.254   3.670  12.374  2.5404 -3.6893 -0.3721
 2513TIP3   OH228953   3.051   5.074  16.189  0.0939  0.0273 -0.3593
 2513TIP3    H128954   3.139   5.111  16.187 -0.0331  0.3154 -1.3812
 2513TIP3    H228955   3.018   5.094  16.277  2.1113 -2.6938  1.1462
 2514TIP3   OH228956   5.952   6.364   3.268 -0.3790  0.0488 -0.4984
 2514TIP3    H128957   5.960   6.459   3.266  0.7313 -0.0187  0.1869
 2514TIP3    H228958   6.028   6.332   3.219  0.5457 -0.5097  1.2201
 2515TIP3   OH228959   0.964   3.925   4.225 -0.0606  0.1059 -0.0867
 2515TIP3    H128960   1.000   3.919   4.313 -0.3245 -0.9243 -0.0331
 2515TIP3    H228961   1.036   3.957   4.171  0.7231 -1.1692  0.1554
 2516TIP3   OH228962   5.341   5.364   4.464  0.2375  0.0992 -0.4368
 2516TIP3    H128963   5.274   5.297   4.472  0.8972 -0.4011  1.3704
 2516TIP3    H228964   5.423   5.318   4.479  0.9328  0.8831 -1.6463
 2517TIP3   OH228965   4.890   1.338   5.933 -0.5765  0.8312 -0.4665
 2517TIP3    H128966   4.855   1.286   5.861 -0.8135  0.6759 -0.2406
 2517TIP3    H228967   4.876   1.284   6.011  2.7798 -0.5476 -0.6639
 2518TIP3   OH228968   5.136   1.098   3.530 -0.2453 -0.0450 -0.0855
 2518TIP3    H128969   5.177   1.090   3.616  1.5089  0.1230 -0.8745
 2518TIP3    H228970   5.104   1.188   3.527  0.8599  0.3627 -0.0896
 2519TIP3   OH228971   3.388   0.026   1.168  0.4957  0.0439 -0.4977
 2519TIP3    H128972   3.345  -0.024   1.237 -1.0238  1.2241 -0.5311
 2519TIP3    H228973   3.355  -0.012   1.087 -0.1797  0.6785 -0.5280
 2520TIP3   OH228974   1.293   2.661   3.238 -0.0927  0.2362 -0.3335
 2520TIP3    H128975   1.372   2.608   3.248  0.3713  0.7000 -1.3380
 2520TIP3    H228976   1.244   2.618   3.168 -1.3436 -0.7269  1.0588
 2521TIP3   OH228977   4.734   2.127   1.001 -0.2057  0.4344  0.2321
 2521TIP3    H128978   4.708   2.109   0.910 -1.9564  1.0358  0.5715
 2521TIP3    H228979   4.770   2.044   1.032  0.4133  0.2134 -0.9990
 2522TIP3   OH228980   3.457   4.275   6.264  0.2833  0.4379 -0.3242
 2522TIP3    H128981   3.401   4.353   6.260 -1.7767 -0.8971  0.6572
 2522TIP3    H228982   3.474   4.262   6.357 -0.4041 -0.9148 -0.3543
 2523TIP3   OH228983   1.777   5.902  15.925 -0.1829 -0.1502 -0.0971
 2523TIP3    H128984   1.731   5.960  15.865 -0.1210 -0.9281 -0.9282
 2523TIP3    H228985   1.757   5.935  16.013 -0.4236  0.8930 -0.5426
 2524TIP3   OH228986   0.704   3.133  12.472  0.0951  0.6375  0.4960
 2524TIP3    H128987   0.668   3.150  12.559 -2.0196 -0.7077 -0.0263
 2524TIP3    H228988   0.628   3.108  12.420  1.4120  0.7472 -1.5794
 2525TIP3   OH228989   0.306   4.168   4.483  0.2690  0.5793 -0.0760
 2525TIP3    H128990   0.364   4.096   4.509  0.6301  0.9373  0.1115
 2525TIP3    H228991   0.365   4.237   4.454 -0.0246  1.2573  0.8877
 2526TIP3   OH228992   1.318   3.309   3.013  0.3430  0.4999 -0.0107
 2526TIP3    H128993   1.250   3.372   3.035 -1.2361 -0.6574 -1.2702
 2526TIP3    H228994   1.357   3.342   2.933  0.6744  0.7269  0.2438
 2527TIP3   OH228995   4.953   2.062   3.726 -0.0398 -0.4317  0.2234
 2527TIP3    H128996   4.944   1.980   3.677 -2.4036 -1.8409  2.7067
 2527TIP3    H228997   4.871   2.108   3.710 -0.0145 -0.0148  1.2285
 2528TIP3   OH228998   0.829   0.530   2.504  0.4491 -0.2208  0.3754
 2528TIP3    H128999   0.765   0.596   2.478  0.6039 -0.1661  0.1228
 2528TIP3    H229000   0.912   0.578   2.504  0.3944 -0.1127  1.4071
 2529TIP3   OH229001   4.073   0.679  11.567 -0.3105  0.2670  0.1004
 2529TIP3    H129002   4.038   0.729  11.640 -0.6263  1.7443 -1.0356
 2529TIP3    H229003   4.062   0.735  11.491  0.8170 -0.8754 -0.9612
 2530TIP3   OH229004   6.789   4.534  12.906 -0.2274  0.1406  0.4639
 2530TIP3    H129005   6.814   4.443  12.926  0.7315  0.0427 -0.9496
 2530TIP3    H229006   6.870   4.584  12.918  0.0947  0.2616 -1.6529
 2531TIP3   OH229007   5.536   0.796   0.426  0.6308 -0.5732 -0.0636
 2531TIP3    H129008   5.508   0.882   0.456  1.7054 -0.9390  2.2979
 2531TIP3    H229009   5.489   0.735   0.483  0.3462 -1.5189 -1.2905
 2532TIP3   OH229010   6.486   4.916  15.378 -0.3639  0.4648 -0.9454
 2532TIP3    H129011   6.406   4.956  15.344 -1.2745 -0.5693 -0.1179
 2532TIP3    H229012   6.509   4.970  15.454 -0.1596  0.8810 -1.3012
 2533TIP3   OH229013   5.049   0.660  12.075 -0.2529  0.0276 -0.2204
 2533TIP3    H129014   5.084   0.582  12.030 -1.3065 -0.4121 -0.2965
 2533TIP3    H229015   5.125   0.696  12.122  0.7818  0.2605 -1.9928
 2534TIP3   OH229016   0.863   4.149   1.581 -0.0437  0.4101 -0.1574
 2534TIP3    H129017   0.856   4.060   1.617 -0.6644  0.1515 -0.9146
 2534TIP3    H229018   0.955   4.157   1.557  0.2228  0.3138  0.7669
 2535TIP3   OH229019   1.106   0.383  12.315  0.1202  0.7989  0.0323
 2535TIP3    H129020   1.046   0.343  12.252  1.6694 -0.8375 -0.4875
 2535TIP3    H229021   1.119   0.472  12.283  0.6928  0.0730 -1.8751
 2536TIP3   OH229022   2.265   1.818   5.885 -0.6077 -0.4283 -0.0465
 2536TIP3    H129023   2.219   1.889   5.841 -1.4179 -0.2204  1.0617
 2536TIP3    H229024   2.356   1.845   5.889 -0.9299  0.6210  0.4683
 2537TIP3   OH229025   5.379   5.896   2.006 -0.4689  0.0737 -0.5285
 2537TIP3    H129026   5.348   5.985   2.027 -0.5701 -0.0328 -0.2193
 2537TIP3    H229027   5.469   5.894   2.036  0.0290  0.5479 -1.8878
 2538TIP3   OH229028   6.236   1.460   4.886 -0.2275 -0.4532  0.2051
 2538TIP3    H129029   6.165   1.497   4.835 -0.0918 -3.4474 -2.4466
 2538TIP3    H229030   6.316   1.496   4.848 -0.2053 -0.8528 -0.1374
 2539TIP3   OH229031   5.811   5.953  12.110  0.9502 -0.4968  0.1483
 2539TIP3    H129032   5.800   5.860  12.129  1.9816 -0.4129  1.2751
 2539TIP3    H229033   5.783   5.998  12.189  2.4536  0.0283  0.4158
 2540TIP3   OH229034   2.084   3.539  16.296 -0.3377 -0.2697 -0.5326
 2540TIP3    H129035   2.132   3.466  16.334 -0.0340 -0.3650 -1.0794
 2540TIP3    H229036   2.126   3.553  16.211  1.6014  2.4886  0.7382
 2541TIP3   OH229037   5.176   0.360   0.239  0.3894  0.2767 -0.0735
 2541TIP3    H129038   5.212   0.272   0.232 -0.8293 -0.1975 -0.6447
 2541TIP3    H229039   5.155   0.371   0.332  1.5864  0.4073  0.1917
 2542TIP3   OH229040   4.906   1.080   5.459  0.3812 -0.2823  0.6554
 2542TIP3    H129041   4.925   1.050   5.370 -1.8579  0.3283 -0.1101
 2542TIP3    H229042   4.854   1.009   5.497 -1.4742  0.7770  0.2567
 2543TIP3   OH229043   6.520   4.073  16.980 -0.2377  0.1278 -0.2060
 2543TIP3    H129044   6.501   4.166  16.989 -0.4748  0.0776 -0.1702
 2543TIP3    H229045   6.581   4.067  16.907 -0.0272  0.3330 -0.0471
 2544TIP3   OH229046   2.285   5.900  14.134  0.9047  0.1954 -0.0733
 2544TIP3    H129047   2.195   5.887  14.164  0.0359  0.9687 -2.1591
 2544TIP3    H229048   2.328   5.944  14.207 -0.3362 -0.4149  1.0621
 2545TIP3   OH229049   4.799   1.086  12.112 -0.3756  0.2946  0.1359
 2545TIP3    H129050   4.829   1.086  12.021 -0.6173 -1.2034  0.0257
 2545TIP3    H229051   4.713   1.127  12.110 -0.4712  0.0752 -0.3579
 2546TIP3   OH229052   5.035   3.344   0.917 -0.1811  0.0009  0.0269
 2546TIP3    H129053   4.996   3.425   0.951 -0.8961 -1.0538  1.8968
 2546TIP3    H229054   5.106   3.325   0.977 -0.8830 -1.4470  0.4423
 2547TIP3   OH229055   6.412   0.452  12.304  0.6819 -0.6159 -0.0827
 2547TIP3    H129056   6.461   0.533  12.292  2.2655 -0.7815  3.9039
 2547TIP3    H229057   6.327   0.480  12.338  0.0534 -0.5758 -1.6113
 2548TIP3   OH229058   2.632   1.755   0.562 -0.0846  0.1286 -0.1054
 2548TIP3    H129059   2.615   1.849   0.566  0.4237  0.2295 -0.2361
 2548TIP3    H229060   2.546   1.716   0.550 -0.2900  0.5823 -0.1480
 2549TIP3   OH229061   6.652   4.467  16.620  0.3922  0.2691 -0.3567
 2549TIP3    H129062   6.569   4.442  16.661  0.1171 -0.8930 -1.5394
 2549TIP3    H229063   6.710   4.488  16.694 -0.0047 -1.9572  0.6811
 2550TIP3   OH229064   5.901   0.206   2.576 -0.1593 -0.4671 -0.2904
 2550TIP3    H129065   5.852   0.240   2.650 -0.6108 -0.2535 -0.6851
 2550TIP3    H229066   5.954   0.135   2.613  0.1329  0.0756  0.3623
 2551TIP3   OH229067   2.184   2.892   1.777  0.8720 -0.3320  0.3446
 2551TIP3    H129068   2.218   2.970   1.732  0.7054  0.8773  2.2140
 2551TIP3    H229069   2.227   2.819   1.734 -0.7645  0.5376 -3.1600
 2552TIP3   OH229070   6.617   1.726  13.726 -0.1789  0.1562  0.3892
 2552TIP3    H129071   6.591   1.655  13.668  0.4391  1.0646 -1.0876
 2552TIP3    H229072   6.668   1.785  13.669 -0.6612  1.7619  1.5415
 2553TIP3   OH229073   2.802   0.535   1.015  0.6495 -0.7273 -0.0540
 2553TIP3    H129074   2.776   0.443   1.020  1.3415 -0.9866 -0.9107
 2553TIP3    H229075   2.778   0.562   0.927 -0.0036  0.0656  0.3619
 2554TIP3   OH229076   2.700   0.422   1.581 -0.3380 -0.4807 -0.1009
 2554TIP3    H129077   2.743   0.445   1.664 -1.5610  2.3404 -0.1126
 2554TIP3    H229078   2.746   0.475   1.515  0.6769 -2.7452 -1.2984
 2555TIP3   OH229079   1.695   5.872  15.634 -0.2536  0.8064 -0.4850
 2555TIP3    H129080   1.763   5.934  15.662 -1.3805  2.8104 -1.9212
 2555TIP3    H229081   1.744   5.801  15.593  1.0732  0.9307  0.7660
 2556TIP3   OH229082   2.990   0.902  14.482 -0.3658 -0.2097 -0.3222
 2556TIP3    H129083   3.018   0.900  14.390 -0.9110 -3.9705 -0.5664
 2556TIP3    H229084   2.895   0.915  14.477 -0.2553  0.7285 -0.1796
 2557TIP3   OH229085   4.628   0.506   5.281  0.5957 -0.3838 -0.1544
 2557TIP3    H129086   4.683   0.434   5.310  2.2366  0.7095 -0.4289
 2557TIP3    H229087   4.565   0.466   5.221  0.6411 -1.7692  0.6760
 2558TIP3   OH229088   0.522   2.403   3.099 -0.0318  0.1286  0.1837
 2558TIP3    H129089   0.435   2.403   3.139  0.2042 -0.4170  0.7160
 2558TIP3    H229090   0.552   2.493   3.108 -0.6035  0.3579 -0.1496
 2559TIP3   OH229091   1.006   6.624   5.901  0.1268 -0.4431 -0.0769
 2559TIP3    H129092   0.984   6.532   5.886  2.2193 -1.1971  1.0461
 2559TIP3    H229093   0.968   6.644   5.987 -0.9002 -0.0219 -0.6115
 2560TIP3   OH229094   3.986   6.181  14.859 -0.1093 -0.4754  0.4578
 2560TIP3    H129095   3.933   6.153  14.784  0.4871  0.2835 -0.2714
 2560TIP3    H229096   3.988   6.105  14.917  0.6116 -1.5849 -0.9651
 2561TIP3   OH229097   4.454   2.368  13.161 -0.8726  0.0044 -0.1965
 2561TIP3    H129098   4.368   2.384  13.123 -1.1349 -0.8147  0.0150
 2561TIP3    H229099   4.435   2.339  13.251 -0.3472  0.3994  0.0453
 2562TIP3   OH229100   1.065   3.948   2.834 -0.2010  0.1957  0.6501
 2562TIP3    H129101   0.969   3.941   2.834 -0.2524 -0.0520 -1.7490
 2562TIP3    H229102   1.083   4.040   2.854 -0.9003  0.1749  1.4333
 2563TIP3   OH229103   3.208   6.645  12.843 -0.0266  0.4142 -0.3523
 2563TIP3    H129104   3.296   6.608  12.837 -0.8817 -2.0622  0.8425
 2563TIP3    H229105   3.181   6.658  12.752  1.0736 -0.0476 -0.7632
 2564TIP3   OH229106   0.251   4.445   1.554  0.5503  0.5733 -0.1283
 2564TIP3    H129107   0.174   4.409   1.511  0.0080 -0.7616  1.8697
 2564TIP3    H229108   0.223   4.530   1.587  0.1517  0.3983 -0.0212
 2565TIP3   OH229109   1.632   1.556  11.531  0.2819  0.2278 -0.3519
 2565TIP3    H129110   1.692   1.618  11.488 -0.5076  1.4131  0.1941
 2565TIP3    H229111   1.661   1.554  11.622  0.8639 -0.9226 -0.5553
 2566TIP3   OH229112   5.274   5.963  13.984  0.0370  0.0103 -0.2691
 2566TIP3    H129113   5.246   6.052  14.005 -0.3152 -0.1463 -0.0690
 2566TIP3    H229114   5.192   5.915  13.971  0.2289  0.0267 -1.6750
 2567TIP3   OH229115   5.076   2.715  15.317  0.1470 -0.3532  0.0500
 2567TIP3    H129116   5.099   2.669  15.397 -0.3788 -0.1292  0.3370
 2567TIP3    H229117   5.074   2.808  15.342  0.1410 -0.2657 -0.2623
 2568TIP3   OH229118   6.448   0.170   1.682 -0.0733  0.0098 -0.2626
 2568TIP3    H129119   6.374   0.220   1.716  0.4397  0.8223 -0.3026
 2568TIP3    H229120   6.470   0.108   1.751 -0.5534  0.0217 -0.1005
 2569TIP3   OH229121   5.842   3.551  15.276 -0.2740  0.8368  0.1702
 2569TIP3    H129122   5.849   3.458  15.255  0.2666  0.4862  1.7424
 2569TIP3    H229123   5.887   3.595  15.204 -2.7202  0.1081 -1.9532
 2570TIP3   OH229124   1.542   1.651  12.112  0.1570  0.3270  0.1262
 2570TIP3    H129125   1.469   1.625  12.056  0.6583  0.3234 -0.5411
 2570TIP3    H229126   1.510   1.726  12.162 -0.3647  0.1969 -0.0115
 2571TIP3   OH229127   4.923   5.403   2.407 -0.1873 -0.4763  0.2052
 2571TIP3    H129128   4.863   5.462   2.453  0.6499  0.2059  0.4486
 2571TIP3    H229129   5.008   5.421   2.446  0.8098  1.0477 -2.4469
 2572TIP3   OH229130   6.363   5.601   4.305  0.1759  0.0497 -0.0970
 2572TIP3    H129131   6.319   5.635   4.227 -0.0809  1.9265  0.8035
 2572TIP3    H229132   6.313   5.523   4.328  0.5983 -0.8734 -2.0904
 2573TIP3   OH229133   3.135   5.258   2.595  0.3040  0.4361 -0.3373
 2573TIP3    H129134   3.229   5.280   2.594  0.5719 -0.5181  0.9096
 2573TIP3    H229135   3.131   5.168   2.563 -0.2722  0.6884 -0.9964
 2574TIP3   OH229136   5.600   0.017   2.662 -0.2062 -0.1530  0.5207
 2574TIP3    H129137   5.533   0.061   2.712 -0.6511 -0.6730  0.3938
 2574TIP3    H229138   5.674   0.008   2.722 -0.6903 -0.6626  1.0466
 2575TIP3   OH229139   0.059   0.441   2.548 -0.4605  0.4309 -0.4351
 2575TIP3    H129140   0.006   0.516   2.573 -1.6603 -0.9177  1.2856
 2575TIP3    H229141   0.146   0.459   2.583 -0.3055  1.6605 -1.3722
 2576TIP3   OH229142   3.276   2.931  16.183 -0.1550  0.3051  0.1000
 2576TIP3    H129143   3.309   3.003  16.129 -1.9516  0.5888 -0.7134
 2576TIP3    H229144   3.345   2.915  16.247  0.8828  1.8070 -0.5833
 2577TIP3   OH229145   6.697   5.605   6.636  0.3708 -0.0546 -0.2997
 2577TIP3    H129146   6.763   5.635   6.574 -0.6790 -0.7405 -1.7925
 2577TIP3    H229147   6.730   5.635   6.721  1.9060  0.8049 -1.1419
 2578TIP3   OH229148   6.199   5.080  15.842  0.0816  0.5634  0.4260
 2578TIP3    H129149   6.121   5.135  15.830 -0.2964 -0.4693 -2.5159
 2578TIP3    H229150   6.186   5.006  15.783  1.6645 -1.5673  2.5374
 2579TIP3   OH229151   4.163   0.131  13.060 -0.4970 -0.0308 -0.0927
 2579TIP3    H129152   4.233   0.170  13.007 -0.1943  0.1316  0.4226
 2579TIP3    H229153   4.089   0.124  13.000  0.3291 -1.3925 -1.0312
 2580TIP3   OH229154   1.362   6.316  16.620 -0.0326 -0.1167 -0.2227
 2580TIP3    H129155   1.445   6.345  16.582 -1.0436  1.1534 -1.5651
 2580TIP3    H229156   1.363   6.351  16.709  0.1003  1.5083 -0.8280
 2581TIP3   OH229157   6.110   3.099   5.616 -0.3019  0.2932 -0.4915
 2581TIP3    H129158   6.016   3.111   5.602 -0.7977  0.6982  2.5995
 2581TIP3    H229159   6.146   3.188   5.608 -0.3265  0.2848 -0.7083
 2582TIP3   OH229160   5.662   3.886  14.262 -0.0175 -0.2479 -0.4217
 2582TIP3    H129161   5.624   3.974  14.266 -0.3760 -0.2911 -2.2514
 2582TIP3    H229162   5.620   3.839  14.334 -0.9054  0.6695 -0.3214
 2583TIP3   OH229163   1.767   3.597   3.960  0.8834  0.2912  0.0319
 2583TIP3    H129164   1.725   3.565   4.040 -0.1994 -0.1388 -0.6876
 2583TIP3    H229165   1.721   3.553   3.889  1.7627  0.7382 -0.8479
 2584TIP3   OH229166   5.903   4.112   3.794  0.1478 -0.0286  0.0038
 2584TIP3    H129167   5.854   4.032   3.775 -0.3560 -0.1277  1.6129
 2584TIP3    H229168   5.989   4.082   3.823 -0.2754 -0.0415  1.2964
 2585TIP3   OH229169   6.007   2.449   4.906 -0.2368 -0.3194  0.3476
 2585TIP3    H129170   6.003   2.353   4.904 -0.2841 -0.3015 -0.7770
 2585TIP3    H229171   6.101   2.469   4.904 -0.2387 -0.3405 -0.1381
 2586TIP3   OH229172   4.862   6.438   0.993 -0.0453 -0.1855 -0.0423
 2586TIP3    H129173   4.840   6.428   0.901 -2.1232  0.7350  0.3072
 2586TIP3    H229174   4.954   6.466   0.993 -0.7149  2.4324 -2.0122
 2587TIP3   OH229175   1.694   0.784   4.752 -1.1426  0.4048 -0.7179
 2587TIP3    H129176   1.751   0.860   4.765  0.1880 -0.4517 -1.2762
 2587TIP3    H229177   1.693   0.772   4.657  0.8264 -1.7935 -0.5480
 2588TIP3   OH229178   5.656   6.683   0.048 -0.2898 -0.3248  0.3220
 2588TIP3    H129179   5.743   6.716   0.026 -0.7710 -0.5505 -2.2125
 2588TIP3    H229180   5.597   6.752   0.017 -1.0565 -0.2800  1.8060
 2589TIP3   OH229181   0.558   1.261   3.029  0.0486 -0.1954  0.3511
 2589TIP3    H129182   0.646   1.236   3.000 -0.6383 -1.0613 -1.1012
 2589TIP3    H229183   0.545   1.212   3.111  0.0775 -1.9320 -0.6282
 2590TIP3   OH229184   6.784   1.548  14.963  0.1112  0.3606 -0.3900
 2590TIP3    H129185   6.848   1.492  14.919  1.2101  2.5909 -1.7988
 2590TIP3    H229186   6.822   1.564  15.050  0.5546  0.1680 -0.5477
 2591TIP3   OH229187   5.244   2.699   6.370 -0.5446  0.1869 -0.3615
 2591TIP3    H129188   5.169   2.672   6.424 -0.6383 -0.9161 -1.0162
 2591TIP3    H229189   5.211   2.772   6.318 -1.1243 -0.1957 -0.5390
 2592TIP3   OH229190   0.067   1.710  12.686  0.0147  0.2634 -0.0844
 2592TIP3    H129191   0.059   1.615  12.679  1.3083  0.1646 -0.5487
 2592TIP3    H229192  -0.002   1.735  12.747  1.7513 -1.3944  2.8254
 2593TIP3   OH229193   1.571   1.609  12.487 -0.0674 -0.4600  0.4995
 2593TIP3    H129194   1.545   1.573  12.572  0.3581  1.4228  1.4926
 2593TIP3    H229195   1.538   1.699  12.489  0.9955 -0.0158 -0.8380
 2594TIP3   OH229196   4.846   5.814  16.453 -0.5410  0.7368 -0.0634
 2594TIP3    H129197   4.755   5.784  16.449 -0.4245  0.2778  0.4899
 2594TIP3    H229198   4.887   5.756  16.518  0.1633  0.8845 -0.3635
 2595TIP3   OH229199   2.033   2.483   0.194 -0.6548  0.1373  0.3213
 2595TIP3    H129200   2.064   2.519   0.277 -0.7744 -0.4417  0.6177
 2595TIP3    H229201   1.994   2.558   0.149  1.5017  0.9882 -0.2362
 2596TIP3   OH229202   0.114   0.545  13.129 -0.7289  0.0413  0.0533
 2596TIP3    H129203   0.038   0.591  13.093 -0.2713  0.2271 -0.6813
 2596TIP3    H229204   0.084   0.454  13.140 -1.0988  0.1447 -0.0871
 2597TIP3   OH229205   4.545   4.253   3.559  0.1006  0.5404  0.7867
 2597TIP3    H129206   4.551   4.208   3.474  2.4390 -0.3567  1.3525
 2597TIP3    H229207   4.513   4.186   3.619  0.7653  0.4821  1.0744
 2598TIP3   OH229208   3.963   3.947   1.944 -0.1324  0.1701 -0.2359
 2598TIP3    H129209   3.995   3.953   1.854  0.3246 -1.3053 -0.2076
 2598TIP3    H229210   3.988   4.030   1.985  0.4224  0.5036 -1.2301
 2599TIP3   OH229211   0.080   4.568  11.296  0.1608 -0.6427  0.6963
 2599TIP3    H129212   0.070   4.662  11.281 -0.9461 -0.5264  2.0160
 2599TIP3    H229213   0.082   4.530  11.208 -2.7711  0.2943  0.1091
 2600TIP3   OH229214   5.542   0.934  11.232  0.5780 -0.1275 -0.0567
 2600TIP3    H129215   5.471   0.894  11.181 -0.0658 -0.2380  0.8909
 2600TIP3    H229216   5.528   0.902  11.321 -0.0681  2.2775  0.8012
 2601TIP3   OH229217   3.318   2.131   3.028  0.0032  0.5215  0.6489
 2601TIP3    H129218   3.377   2.176   3.089  0.6805 -1.1889  1.3506
 2601TIP3    H229219   3.320   2.184   2.948  2.6101  0.4966  0.6127
 2602TIP3   OH229220   2.087   6.720  15.889 -0.1582  0.1223 -0.0097
 2602TIP3    H129221   2.124   6.808  15.897 -2.5805  1.3131 -0.7940
 2602TIP3    H229222   2.026   6.713  15.962 -0.9253 -0.3660 -0.6818
 2603TIP3   OH229223   3.361   4.710   0.600  0.6272 -0.1474  0.1900
 2603TIP3    H129224   3.352   4.625   0.558 -2.3864  0.8133 -1.3795
 2603TIP3    H229225   3.303   4.707   0.676  0.6065  0.4437  0.2074
 2604TIP3   OH229226   3.180   3.338   2.156  0.3143 -0.0845 -0.1772
 2604TIP3    H129227   3.226   3.359   2.074  0.6419 -0.0657  0.0103
 2604TIP3    H229228   3.250   3.324   2.219  0.0925 -1.3975 -0.2064
 2605TIP3   OH229229   5.617   5.196  12.519  0.4041 -0.2376 -0.3540
 2605TIP3    H129230   5.533   5.207  12.475 -0.1893 -1.8745  0.3094
 2605TIP3    H229231   5.681   5.229  12.457 -0.6964  0.8706 -0.9431
 2606TIP3   OH229232   6.474   0.944   5.026  0.0211  0.3594  0.4907
 2606TIP3    H129233   6.416   1.016   5.051 -1.0224  0.3695 -1.7318
 2606TIP3    H229234   6.423   0.892   4.964  1.5043 -1.1156  0.4270
 2607TIP3   OH229235   2.508   1.132   4.439 -0.3993  0.4747 -0.2273
 2607TIP3    H129236   2.552   1.134   4.354 -1.3381  2.3827 -0.7335
 2607TIP3    H229237   2.415   1.134   4.418 -0.7031 -1.2048  0.8527
 2608TIP3   OH229238   3.522   4.777   1.001 -0.2433 -0.2648  0.2977
 2608TIP3    H129239   3.553   4.700   0.953  1.7243  1.5248 -1.5003
 2608TIP3    H229240   3.478   4.830   0.934  0.2003  1.0751  1.0491
 2609TIP3   OH229241   3.581   5.800  12.604 -0.7390  0.4313  0.4601
 2609TIP3    H129242   3.508   5.780  12.662 -0.4155 -1.2195  0.3415
 2609TIP3    H229243   3.659   5.781  12.657 -0.4288 -2.4864 -0.8617
 2610TIP3   OH229244   2.275   5.503  15.814 -0.2719  0.0648  0.4459
 2610TIP3    H129245   2.259   5.429  15.756 -0.4012 -0.8680  1.6372
 2610TIP3    H229246   2.269   5.580  15.757  1.2251 -0.8875 -1.0999
 2611TIP3   OH229247   2.603   6.266   4.856  0.1367 -0.3939  0.3902
 2611TIP3    H129248   2.693   6.235   4.860  1.0718  2.1520  0.8803
 2611TIP3    H229249   2.584   6.274   4.763  0.9604  0.4528  0.2836
 2612TIP3   OH229250   5.461   4.542   2.731 -0.7246 -0.0395 -0.0105
 2612TIP3    H129251   5.531   4.478   2.742 -1.5049 -1.7241 -3.3091
 2612TIP3    H229252   5.381   4.495   2.755 -1.0687  0.5912  0.1116
 2613TIP3   OH229253   3.482   4.203   4.394  0.2119 -0.3907  0.8659
 2613TIP3    H129254   3.481   4.299   4.401  0.3621 -0.4818  2.7074
 2613TIP3    H229255   3.417   4.174   4.458  1.2560 -1.5512  1.4296
 2614TIP3   OH229256   6.091   4.897   1.862  0.6374 -0.2137 -0.2610
 2614TIP3    H129257   6.184   4.873   1.865  0.8287  0.5678  3.0858
 2614TIP3    H229258   6.045   4.822   1.899  0.1152  0.1004 -0.2672
 2615TIP3   OH229259   0.464   1.999   2.448 -0.2809  0.1498 -0.1694
 2615TIP3    H129260   0.510   1.918   2.424  1.6612  0.7166  1.3880
 2615TIP3    H229261   0.468   2.001   2.543 -0.1083  2.2024 -0.1953
 2616TIP3   OH229262   2.708   3.241  12.756  0.0039 -0.2775  0.1495
 2616TIP3    H129263   2.625   3.234  12.707 -0.3307  0.9124  0.5248
 2616TIP3    H229264   2.688   3.205  12.842 -0.0842 -0.0930  0.2051
 2617TIP3   OH229265   1.198   4.443  13.921  0.0078  0.0497  0.1589
 2617TIP3    H129266   1.248   4.373  13.963  0.6473 -1.0000 -2.2105
 2617TIP3    H229267   1.223   4.522  13.969  0.1216 -1.1405  2.1871
 2618TIP3   OH229268   0.020   3.821  12.904 -0.0723  0.3361  0.4640
 2618TIP3    H129269  -0.023   3.826  12.989 -0.6897  3.0201  0.0875
 2618TIP3    H229270  -0.041   3.772  12.849 -1.6569  2.0827  0.5578
 2619TIP3   OH229271   0.811   1.445  10.447  0.0166  0.9131  0.3873
 2619TIP3    H129272   0.753   1.511  10.410  0.1946  0.1113 -1.4297
 2619TIP3    H229273   0.868   1.420  10.374  0.0851 -1.0952  1.0705
 2620TIP3   OH229274   0.239   4.154   0.829  0.5482 -0.0286  0.3249
 2620TIP3    H129275   0.225   4.085   0.764 -1.8654 -0.9552  1.6995
 2620TIP3    H229276   0.193   4.123   0.907  1.1655  2.2199  1.6751
 2621TIP3   OH229277   6.316   0.554  13.093  0.1581  0.2486  0.0307
 2621TIP3    H129278   6.309   0.552  12.998 -2.2706  1.1166  0.1049
 2621TIP3    H229279   6.313   0.647  13.116 -1.5713  0.0029  0.9996
 2622TIP3   OH229280   1.063   2.683  13.593  0.4409 -0.5541  0.0785
 2622TIP3    H129281   1.097   2.610  13.542 -0.3835 -0.0165 -1.3111
 2622TIP3    H229282   1.101   2.761  13.551  2.1734 -0.1535  2.1824
 2623TIP3   OH229283   3.640   2.607  12.834 -0.9413  0.9599  0.1828
 2623TIP3    H129284   3.581   2.535  12.809 -0.1388  0.7161 -1.0835
 2623TIP3    H229285   3.719   2.563  12.864  0.0598  1.2611 -1.8357
 2624TIP3   OH229286   6.611   4.241  11.099 -0.1623 -0.1346  0.4965
 2624TIP3    H129287   6.568   4.175  11.044 -0.5041  0.6935 -0.2594
 2624TIP3    H229288   6.542   4.271  11.158 -0.7059  1.2401 -0.7582
 2625TIP3   OH229289   5.527   1.780   0.692 -0.0880  0.5273  0.4586
 2625TIP3    H129290   5.555   1.757   0.604 -1.4580 -0.8805  0.3367
 2625TIP3    H229291   5.455   1.719   0.711  1.5395 -0.6789  3.3766
 2626TIP3   OH229292   1.002   3.871  14.625 -0.4493 -0.3834 -0.3440
 2626TIP3    H129293   1.078   3.843  14.573 -2.5694 -2.0934 -2.7678
 2626TIP3    H229294   1.006   3.818  14.704  0.9255 -0.3388 -0.3603
 2627TIP3   OH229295   1.729   1.734   2.417  0.4477  0.6040  0.2420
 2627TIP3    H129296   1.652   1.732   2.473  0.6434  0.9904  0.5333
 2627TIP3    H229297   1.801   1.708   2.474  0.8052  1.9480  0.4471
 2628TIP3   OH229298   3.366   3.343   2.359 -0.1532 -0.1383 -0.0254
 2628TIP3    H129299   3.449   3.370   2.398  1.0802 -1.2592 -1.7060
 2628TIP3    H229300   3.301   3.404   2.394  1.3743  0.7663  1.3369
 2629TIP3   OH229301   3.666   5.984  16.830  0.7496 -0.3704 -0.3434
 2629TIP3    H129302   3.753   5.996  16.870 -0.0496  0.3043  1.2766
 2629TIP3    H229303   3.605   5.995  16.903 -0.7975  0.9046 -1.7701
 2630TIP3   OH229304   2.844   5.100  14.405 -0.3137 -0.1318 -0.3427
 2630TIP3    H129305   2.762   5.050  14.404  0.9925 -2.3771 -0.4755
 2630TIP3    H229306   2.912   5.035  14.425  1.4650  1.6447 -0.3269
 2631TIP3   OH229307   0.955   3.820   1.101 -0.5968 -0.3691  0.3808
 2631TIP3    H129308   0.970   3.754   1.169 -0.9369  0.7592  1.5888
 2631TIP3    H229309   1.041   3.829   1.058  0.0043 -0.1180  1.5837
 2632TIP3   OH229310   2.947   4.763  14.944 -0.2746 -0.3225  0.1964
 2632TIP3    H129311   2.885   4.818  14.895  0.4131  1.5277  1.2787
 2632TIP3    H229312   3.013   4.825  14.975  0.6463 -1.8354  1.3530
 2633TIP3   OH229313   5.846   4.905  11.638  0.6367  0.5513  0.1411
 2633TIP3    H129314   5.882   4.993  11.625  0.9000  0.2122 -1.7037
 2633TIP3    H229315   5.857   4.862  11.553  3.8645 -2.5438  1.8629
 2634TIP3   OH229316   6.691   1.632  14.575 -0.1772 -0.1179  0.4365
 2634TIP3    H129317   6.650   1.547  14.593  0.0931 -0.3064  0.1562
 2634TIP3    H229318   6.678   1.646  14.482  1.2801 -0.6485  0.1305
 2635TIP3   OH229319   4.007   6.653   2.202 -0.4929  0.8017 -0.2903
 2635TIP3    H129320   3.915   6.672   2.184 -0.9758 -0.4225  0.8090
 2635TIP3    H229321   4.020   6.564   2.170  0.0595  0.6272  0.3940
 2636TIP3   OH229322   5.531   2.566  13.876 -0.2943  0.5470 -0.3746
 2636TIP3    H129323   5.619   2.596  13.897 -0.8734  1.2154  1.1949
 2636TIP3    H229324   5.537   2.538  13.784  1.1651  2.0322 -0.7843
 2637TIP3   OH229325   4.530   6.355  14.645  0.2694 -0.0601  0.0456
 2637TIP3    H129326   4.621   6.368  14.619  0.6905 -1.6837  0.6022
 2637TIP3    H229327   4.534   6.302  14.724 -1.1526 -0.0765  0.1378
 2638TIP3   OH229328   0.712   3.602   0.687 -0.0951  0.1829 -0.0630
 2638TIP3    H129329   0.634   3.657   0.689  1.9175  3.2722 -0.3278
 2638TIP3    H229330   0.717   3.564   0.775 -1.5111  0.4694  0.1599
 2639TIP3   OH229331   4.617   5.755  12.508  0.5227  1.1665  0.0985
 2639TIP3    H129332   4.597   5.684  12.568  3.2784  0.9977  0.9292
 2639TIP3    H229333   4.604   5.718  12.421  0.0015  0.2861  0.5464
 2640TIP3   OH229334   6.417   0.493   3.287 -0.1607 -0.2572 -0.0233
 2640TIP3    H129335   6.366   0.413   3.303  1.6640 -1.7855 -1.3336
 2640TIP3    H229336   6.505   0.472   3.319  0.3338  1.2868 -0.2867
 2641TIP3   OH229337   6.159   5.847   4.263  0.2393  0.2979 -0.4270
 2641TIP3    H129338   6.134   5.792   4.338  1.0314  0.2170 -0.2082
 2641TIP3    H229339   6.163   5.936   4.298 -0.7771  0.4638 -0.7173
 2642TIP3   OH229340   6.099   3.738  10.940 -0.4261 -0.2972  0.2351
 2642TIP3    H129341   6.038   3.810  10.927 -0.5599 -0.3118  0.8004
 2642TIP3    H229342   6.094   3.688  10.858 -1.1009 -0.2515  0.2424
 2643TIP3   OH229343   0.260   0.276  14.032 -0.4954  0.0013 -0.1731
 2643TIP3    H129344   0.234   0.362  13.998 -0.2741 -0.0327 -0.4351
 2643TIP3    H229345   0.195   0.256  14.099 -0.2662  0.5926  0.2329
 2644TIP3   OH229346   3.895   1.152  15.255  0.0106  0.7123  0.0456
 2644TIP3    H129347   3.933   1.115  15.335  0.8660 -2.6341 -1.7162
 2644TIP3    H229348   3.882   1.245  15.275  0.8555  0.1888  3.7689
 2645TIP3   OH229349   3.811   1.433  11.861  0.2785  0.0639  0.3194
 2645TIP3    H129350   3.860   1.488  11.922 -0.3418  1.0561 -0.0552
 2645TIP3    H229351   3.815   1.480  11.777 -0.4653 -0.3233  0.0528
 2646TIP3   OH229352   3.056   2.063   3.135 -0.3491 -0.1231 -0.3501
 2646TIP3    H129353   3.020   2.150   3.155 -0.0866  0.2779 -1.5118
 2646TIP3    H229354   3.149   2.080   3.120 -0.2870 -0.6249 -0.5270
 2647TIP3   OH229355   1.044   0.502  17.060 -0.5263 -0.4120  0.2805
 2647TIP3    H129356   1.127   0.539  17.028 -1.5818  1.5957 -0.3045
 2647TIP3    H229357   0.988   0.579  17.074 -2.8934 -1.8123 -1.0160
 2648TIP3   OH229358   5.753   3.184  16.868 -0.0654 -0.8218  0.5096
 2648TIP3    H129359   5.828   3.160  16.922 -1.1577 -2.5260  1.3690
 2648TIP3    H229360   5.757   3.280  16.862  1.7477 -0.8258  1.1081
 2649TIP3   OH229361   0.569   3.590   6.339  0.2989 -0.0663 -0.3651
 2649TIP3    H129362   0.505   3.525   6.367 -1.0078  1.4422  0.2979
 2649TIP3    H229363   0.516   3.658   6.296  1.6142  0.6024 -0.9765
 2650TIP3   OH229364   6.381   4.093  16.689  0.6032  0.3363 -0.2642
 2650TIP3    H129365   6.386   4.185  16.662 -2.5160  0.2922 -1.4393
 2650TIP3    H229366   6.468   4.058  16.670  0.9862  2.3274 -2.7544
 2651TIP3   OH229367   4.597   5.280  11.720  0.3474  0.3178 -0.2229
 2651TIP3    H129368   4.600   5.283  11.624  0.8223  0.7091 -0.1962
 2651TIP3    H229369   4.574   5.189  11.740  0.3347  0.2122 -0.7050
 2652TIP3   OH229370   2.191   5.070  15.841 -0.2178  0.1137  0.5492
 2652TIP3    H129371   2.145   5.058  15.757 -0.4690  1.0900  0.5369
 2652TIP3    H229372   2.264   5.008  15.837 -1.1281 -0.9780  0.2769
 2653TIP3   OH229373   5.722   5.566  11.264  0.5689 -0.4502  0.0607
 2653TIP3    H129374   5.688   5.506  11.198  0.5292 -2.1931  1.5771
 2653TIP3    H229375   5.664   5.642  11.259 -0.4418 -1.2430 -0.8038
 2654TIP3   OH229376   1.990   1.539   3.627 -0.0135  0.5130 -0.2257
 2654TIP3    H129377   2.058   1.514   3.689  1.0703  0.1396 -1.5166
 2654TIP3    H229378   2.022   1.509   3.542 -1.4998  0.9064 -0.9695
 2655TIP3   OH229379   3.598   2.458   5.666 -0.0663  0.1219 -0.1793
 2655TIP3    H129380   3.602   2.444   5.572  1.2935 -0.6378 -0.0346
 2655TIP3    H229381   3.640   2.381   5.704  1.6699  1.5398  0.9458
 2656TIP3   OH229382   5.746   5.411   0.281 -0.0955 -0.0291  0.1777
 2656TIP3    H129383   5.716   5.321   0.293  2.1722 -0.7908  0.6423
 2656TIP3    H229384   5.756   5.445   0.370  0.4419  0.1877  0.0345
 2657TIP3   OH229385   6.749   6.214   6.624 -0.3994  0.6435  0.1447
 2657TIP3    H129386   6.745   6.163   6.705 -2.2330  3.7811  2.2517
 2657TIP3    H229387   6.664   6.198   6.582 -0.3398  0.7299 -0.0096
 2658TIP3   OH229388   3.121   2.826  12.852  0.2075  0.3129 -0.5387
 2658TIP3    H129389   3.087   2.902  12.805 -0.3190 -0.9148 -2.2310
 2658TIP3    H229390   3.158   2.770  12.784 -2.3886 -2.5097  0.1445
 2659TIP3   OH229391   1.057   1.835  15.848  0.0148  0.8117 -0.1356
 2659TIP3    H129392   1.046   1.777  15.924  1.5573  0.6119 -0.0307
 2659TIP3    H229393   1.030   1.921  15.879 -2.3115  0.1967 -0.2939
 2660TIP3   OH229394   4.930   5.604  16.640  0.1938 -0.4885 -0.0610
 2660TIP3    H129395   4.920   5.521  16.592 -0.2276  0.0883 -1.0058
 2660TIP3    H229396   4.992   5.584  16.709  0.4436 -1.4877 -0.5511
 2661TIP3   OH229397   2.980   1.119   0.631 -0.4376 -0.8662  0.4121
 2661TIP3    H129398   2.939   1.170   0.700  0.2359 -0.0236  0.2155
 2661TIP3    H229399   2.922   1.044   0.618 -4.1199  2.0797 -2.4603
 2662TIP3   OH229400   6.514   6.703   4.136  0.0507  0.0327 -0.2290
 2662TIP3    H129401   6.521   6.612   4.108  0.1418 -0.2455  0.6823
 2662TIP3    H229402   6.535   6.702   4.229  2.4688  1.3248 -0.6814
 2663TIP3   OH229403   3.805   5.491   4.332 -0.2786  0.0416 -0.3627
 2663TIP3    H129404   3.844   5.495   4.420 -0.2043  0.8805 -0.4274
 2663TIP3    H229405   3.760   5.407   4.330 -2.4689  1.0645  1.4050
 2664TIP3   OH229406   0.172   6.477  12.289  0.2423  0.1666  0.3409
 2664TIP3    H129407   0.172   6.569  12.263  0.8279 -0.1241 -0.7373
 2664TIP3    H229408   0.118   6.433  12.224 -0.0088 -0.2650  0.8320
 2665TIP3   OH229409   0.924   1.803  10.825 -0.0209 -0.6492 -0.5406
 2665TIP3    H129410   0.854   1.863  10.850  0.0192 -1.6949  2.5617
 2665TIP3    H229411   0.896   1.768  10.740 -1.5525  1.3852 -0.9649
 2666TIP3   OH229412   3.051   2.185   1.813 -0.3136  0.0067  0.2853
 2666TIP3    H129413   3.028   2.176   1.721  1.7816 -2.4678 -0.1277
 2666TIP3    H229414   3.009   2.111   1.856 -0.5580  0.6416  1.1712
 2667TIP3   OH229415   6.259   6.450   4.871  0.7280  0.1201 -1.0327
 2667TIP3    H129416   6.276   6.438   4.777 -0.9678 -1.3962 -1.2070
 2667TIP3    H229417   6.163   6.448   4.878  0.7872  1.1840  0.6440
 2668TIP3   OH229418   5.566   4.424  11.310  0.3714  0.5702  0.0184
 2668TIP3    H129419   5.564   4.446  11.217  1.5931  0.3700 -0.0839
 2668TIP3    H229420   5.526   4.337  11.315  0.1170  0.6683 -0.2999
 2669TIP3   OH229421   5.814   2.276  11.393  0.1233  0.3686  0.0089
 2669TIP3    H129422   5.790   2.259  11.302 -0.6861  0.6941  0.1586
 2669TIP3    H229423   5.765   2.212  11.444  1.5495 -0.6682  0.1504
 2670TIP3   OH229424   5.684   5.627   2.231 -0.3787  0.5188 -0.1383
 2670TIP3    H129425   5.691   5.633   2.136  0.6919  2.0961  0.0087
 2670TIP3    H229426   5.749   5.689   2.264 -0.6823 -0.0507  1.6319
 2671TIP3   OH229427   0.051   4.215   4.347  0.6127  0.0196  0.2145
 2671TIP3    H129428   0.136   4.205   4.390  0.5716  1.8128  0.7792
 2671TIP3    H229429  -0.002   4.144   4.384  1.2996  0.0562  1.3292
 2672TIP3   OH229430   4.769   2.851  13.752 -0.2920 -0.0140 -0.7633
 2672TIP3    H129431   4.784   2.774  13.806  0.2094  0.4363 -0.2409
 2672TIP3    H229432   4.749   2.817  13.665  1.2980 -0.7210 -0.8877
 2673TIP3   OH229433   3.751   5.496  14.625 -1.0046 -0.0396 -0.2493
 2673TIP3    H129434   3.834   5.535  14.596 -0.4705 -0.6191  0.4498
 2673TIP3    H229435   3.748   5.411  14.582 -0.3519 -0.7769  1.0699
 2674TIP3   OH229436   1.336   1.689  14.234  0.0741  0.0219 -0.3828
 2674TIP3    H129437   1.262   1.744  14.260  1.1404  0.2754  2.4690
 2674TIP3    H229438   1.351   1.711  14.142 -1.9285  1.6452 -0.3966
 2675TIP3   OH229439   1.575   6.451  16.509  0.1420 -0.1985  0.4735
 2675TIP3    H129440   1.622   6.441  16.426  1.8785  0.0230  1.3672
 2675TIP3    H229441   1.573   6.546  16.523 -0.6322 -0.2058  0.4260
 2676TIP3   OH229442   5.704   0.892   4.980 -0.5655 -0.3385 -0.2332
 2676TIP3    H129443   5.724   0.847   5.062  2.7077  0.4606 -0.4497
 2676TIP3    H229444   5.686   0.822   4.917 -3.1254 -0.9625  1.0335
 2677TIP3   OH229445   1.296   2.912  11.080 -0.0272 -0.2416  0.4382
 2677TIP3    H129446   1.260   2.994  11.111 -0.0096  0.8531 -2.1777
 2677TIP3    H229447   1.380   2.903  11.125 -0.8387  0.2023  2.0996
 2678TIP3   OH229448   2.681   6.191  11.922 -0.2151 -0.3022 -0.2795
 2678TIP3    H129449   2.720   6.136  11.854  0.4946 -0.9301  0.6074
 2678TIP3    H229450   2.749   6.255  11.942 -0.6212  0.2126 -0.5205
 2679TIP3   OH229451   4.767   6.506  14.280  0.1480 -0.4557  0.4330
 2679TIP3    H129452   4.675   6.491  14.261  0.7342 -2.7119 -1.0766
 2679TIP3    H229453   4.793   6.575  14.219  0.2169 -2.3788 -1.9080
 2680TIP3   OH229454   6.500   2.017  14.699  0.2019 -0.8546 -0.1532
 2680TIP3    H129455   6.595   2.013  14.709  0.1583 -1.8626 -0.0895
 2680TIP3    H229456   6.465   1.981  14.780 -0.2367 -0.5555 -0.2041
 2681TIP3   OH229457   1.232   1.480   6.087 -0.5975  0.6534  0.2358
 2681TIP3    H129458   1.173   1.432   6.145 -0.3829 -0.6875 -0.5945
 2681TIP3    H229459   1.176   1.510   6.015 -0.4449  0.1432 -0.1058
 2682TIP3   OH229460   4.077   1.438  13.338  0.5410  0.6206 -0.3684
 2682TIP3    H129461   3.996   1.489  13.332  0.1722  0.2413  1.1588
 2682TIP3    H229462   4.126   1.463  13.259 -1.0285  0.8846 -1.3033
 2683TIP3   OH229463   3.547   4.284   6.529 -0.3137  0.0797  0.6768
 2683TIP3    H129464   3.575   4.240   6.609 -2.0937 -0.0648  1.2644
 2683TIP3    H229465   3.617   4.346   6.509  0.9885 -1.1455  1.3240
 2684TIP3   OH229466   0.849   6.352   2.815 -0.4656  0.8802 -0.2533
 2684TIP3    H129467   0.755   6.363   2.826 -0.2101  1.5001  1.6326
 2684TIP3    H229468   0.887   6.436   2.841  0.6463  0.3688 -0.1467
 2685TIP3   OH229469   0.081   1.115   4.283  0.3648 -0.2180 -0.0155
 2685TIP3    H129470   0.080   1.211   4.285  1.4503 -0.1719 -0.9855
 2685TIP3    H229471   0.038   1.092   4.200 -0.2245 -0.5955  0.3845
 2686TIP3   OH229472   1.906   1.249   1.447 -0.0218  0.1754  0.1636
 2686TIP3    H129473   1.986   1.273   1.401 -0.1310  0.8602  0.3232
 2686TIP3    H229474   1.887   1.160   1.417 -0.6819  0.9804 -1.9649
 2687TIP3   OH229475   1.595   4.668  13.090 -0.2527  0.1676 -0.1350
 2687TIP3    H129476   1.622   4.709  13.008  0.4586  0.0764  0.0470
 2687TIP3    H229477   1.501   4.682  13.094  0.0601  2.4740  0.2931
 2688TIP3   OH229478   0.768   4.704  12.916 -0.0701  0.4497 -0.1414
 2688TIP3    H129479   0.683   4.728  12.953 -0.9742 -1.5186 -0.7705
 2688TIP3    H229480   0.791   4.623  12.962  0.5761 -0.0183 -1.2517
 2689TIP3   OH229481   6.612   3.934   5.784 -0.2420 -0.4762  0.0185
 2689TIP3    H129482   6.657   3.965   5.862  1.2579 -0.2459 -0.8851
 2689TIP3    H229483   6.573   4.012   5.746  2.2649  0.1932 -1.4474
 2690TIP3   OH229484   1.876   4.860   4.459  0.5623 -0.1234  1.3536
 2690TIP3    H129485   1.890   4.925   4.390 -1.9712 -0.4534  0.4478
 2690TIP3    H229486   1.948   4.798   4.448 -0.8492 -1.3452 -2.4641
 2691TIP3   OH229487   2.111   5.551  14.923  0.6787  0.3678 -0.0662
 2691TIP3    H129488   2.177   5.573  14.989  1.2035 -0.2790 -0.3621
 2691TIP3    H229489   2.152   5.573  14.840 -0.6543  2.9424 -0.1546
 2692TIP3   OH229490   3.159   3.494  12.131 -0.1980  0.1216 -0.6028
 2692TIP3    H129491   3.220   3.514  12.060 -0.2571  0.6282 -0.5165
 2692TIP3    H229492   3.073   3.496  12.090 -0.3144  1.3617 -0.3407
 2693TIP3   OH229493   6.513   4.237   6.299  0.0928  0.5650 -0.6182
 2693TIP3    H129494   6.526   4.309   6.361  0.7063  1.7111 -2.0196
 2693TIP3    H229495   6.599   4.222   6.260 -0.7373  1.7768 -3.1573
 2694TIP3   OH229496   1.611   0.682   1.431 -0.4931 -0.4745 -0.6963
 2694TIP3    H129497   1.543   0.656   1.369 -1.3924  0.8710 -0.3243
 2694TIP3    H229498   1.578   0.763   1.470  1.7134  0.6966 -1.1033
 2695TIP3   OH229499   5.541   0.292  13.486  0.0976 -0.2361 -0.2442
 2695TIP3    H129500   5.613   0.248  13.531  0.3460 -0.2723 -0.6715
 2695TIP3    H229501   5.464   0.237  13.504  0.5825 -1.4378 -1.6095
 2696TIP3   OH229502   5.078   1.923  17.094  0.4735  0.4389 -0.3634
 2696TIP3    H129503   5.049   1.902  17.006 -2.4273 -0.9561  0.8057
 2696TIP3    H229504   5.014   1.987  17.126  1.4718  0.9184  0.7771
 2697TIP3   OH229505   0.350   6.805  15.580  0.2649 -0.2261 -0.2470
 2697TIP3    H129506   0.419   6.852  15.533 -0.4052 -1.0616 -2.2032
 2697TIP3    H229507   0.320   6.866  15.647  2.3829  0.4215  0.1890
 2698TIP3   OH229508   4.482   3.899  14.731  0.7865 -0.1718  0.1342
 2698TIP3    H129509   4.565   3.879  14.774  0.0484  2.4047  3.0886
 2698TIP3    H229510   4.416   3.858  14.786 -0.0312 -2.4495 -2.3493
 2699TIP3   OH229511   2.119   0.450  15.606  1.1221  0.0244  0.1075
 2699TIP3    H129512   2.131   0.545  15.612  1.8500 -0.0803  0.3296
 2699TIP3    H229513   2.201   0.418  15.570  0.1519 -0.3125 -1.9816
 2700TIP3   OH229514   4.136   0.810  14.197  0.6992 -0.1396 -0.1177
 2700TIP3    H129515   4.182   0.812  14.113 -0.0119  1.3500 -0.5018
 2700TIP3    H229516   4.110   0.901  14.213 -1.1030 -0.7308  0.6361
 2701TIP3   OH229517   3.070   4.905  12.368  0.4188  0.2083  0.3990
 2701TIP3    H129518   3.149   4.959  12.367  1.8098 -1.7258  0.4248
 2701TIP3    H229519   2.998   4.968  12.378  1.8925  2.0734 -0.1115
 2702TIP3   OH229520   3.994   1.489  15.461  0.5514  0.0766 -0.0424
 2702TIP3    H129521   3.984   1.580  15.489  1.0410 -0.4568  1.9614
 2702TIP3    H229522   3.928   1.479  15.391 -2.3211  0.9105  2.3304
 2703TIP3   OH229523   0.117   4.475   3.199  0.4921 -0.2102  0.4392
 2703TIP3    H129524   0.208   4.448   3.185  0.8301  0.8934  0.3873
 2703TIP3    H229525   0.069   4.435   3.127  0.8058 -1.3842  0.8606
 2704TIP3   OH229526   3.317   6.442   2.632 -0.2654  0.3829  0.1739
 2704TIP3    H129527   3.262   6.460   2.555 -0.2444  0.8073  0.2533
 2704TIP3    H229528   3.401   6.482   2.611 -0.4608  1.1091  0.6878
 2705TIP3   OH229529   1.662   3.356  14.304 -0.1288 -0.3132  0.4074
 2705TIP3    H129530   1.658   3.262  14.325  1.0084 -1.7998 -4.6936
 2705TIP3    H229531   1.751   3.381  14.328 -0.1659 -0.7291  1.0263
 2706TIP3   OH229532   2.487   6.386  14.847  0.1345  0.1524  0.1684
 2706TIP3    H129533   2.505   6.326  14.775  2.4790 -0.8381  1.4707
 2706TIP3    H229534   2.557   6.452  14.842 -2.0422  2.5324 -0.8736
 2707TIP3   OH229535   2.063   6.225   0.859  0.6275 -0.3195  0.4272
 2707TIP3    H129536   2.126   6.288   0.894  0.7111  0.7617 -1.5048
 2707TIP3    H229537   2.116   6.152   0.828  1.0425  0.7058 -1.4379
 2708TIP3   OH229538   5.407   0.143   2.346 -0.0404 -0.0049 -0.0450
 2708TIP3    H129539   5.319   0.144   2.309 -1.1288  2.7898  2.2456
 2708TIP3    H229540   5.450   0.219   2.306  0.5852 -0.1019  0.4303
 2709TIP3   OH229541   4.623   0.404  13.059  0.1796 -0.0375  0.2299
 2709TIP3    H129542   4.701   0.448  13.024  1.3190 -1.6949  0.6009
 2709TIP3    H229543   4.657   0.330  13.108 -1.7004 -2.0584 -1.3495
 2710TIP3   OH229544   1.000   3.718   1.809 -0.3409  0.4284  0.4483
 2710TIP3    H129545   0.944   3.647   1.842 -0.8584  1.2261  1.3394
 2710TIP3    H229546   1.043   3.681   1.732 -1.3420 -0.5319  0.3264
 2711TIP3   OH229547   2.156   1.368   1.166  0.0390 -0.3385  0.6278
 2711TIP3    H129548   2.159   1.286   1.215 -0.1568  0.6609  2.4132
 2711TIP3    H229549   2.245   1.404   1.173  0.2669 -0.6256 -0.5955
 2712TIP3   OH229550   2.742   3.487  11.769  0.0182 -0.6859  0.5130
 2712TIP3    H129551   2.748   3.529  11.683  3.0349  0.1862  1.0480
 2712TIP3    H229552   2.771   3.397  11.755  1.5957 -0.2433  0.7440
 2713TIP3   OH229553   3.576   1.599   4.270  0.0672  0.1418 -0.3137
 2713TIP3    H129554   3.600   1.508   4.289 -0.6175 -0.2478 -1.2511
 2713TIP3    H229555   3.649   1.634   4.219  0.5353  0.2700  0.4251
 2714TIP3   OH229556   1.775   1.747   0.140 -0.1946 -0.6235 -0.3704
 2714TIP3    H129557   1.732   1.789   0.214 -1.4874 -0.9819 -0.8896
 2714TIP3    H229558   1.730   1.782   0.063  1.3277 -0.0234 -1.0252
 2715TIP3   OH229559   5.217   6.806   1.403 -0.5996  0.2779  0.9701
 2715TIP3    H129560   5.212   6.812   1.498  1.4661 -0.6538  1.1785
 2715TIP3    H229561   5.309   6.789   1.384 -1.0074  0.1493 -1.1912
 2716TIP3   OH229562   1.236   1.592  13.859  0.2468  0.9687 -0.0496
 2716TIP3    H129563   1.232   1.557  13.948 -0.8319 -0.0430 -0.4734
 2716TIP3    H229564   1.161   1.652  13.854  1.0033  1.9532  0.0830
 2717TIP3   OH229565   3.480   6.787   2.079  0.3360  0.6550  0.5071
 2717TIP3    H129566   3.399   6.753   2.116 -0.0743 -0.6625 -1.4672
 2717TIP3    H229567   3.452   6.846   2.008  1.0721 -0.1737 -0.4987
 2718TIP3   OH229568   4.019   4.290  14.680  0.0352  0.0260  0.2294
 2718TIP3    H129569   3.937   4.319  14.640  0.0579 -0.9611 -0.5920
 2718TIP3    H229570   3.994   4.220  14.740  0.4132 -1.6455 -1.4628
 2719TIP3   OH229571   2.480   5.918  14.369  0.6917 -0.1639  0.3251
 2719TIP3    H129572   2.487   5.828  14.336 -0.9035  0.3738 -1.6567
 2719TIP3    H229573   2.552   5.964  14.329  0.3898 -0.1419 -0.1976
 2720TIP3   OH229574   3.470   3.419   4.105 -0.1624 -0.5199 -0.6030
 2720TIP3    H129575   3.529   3.383   4.172  0.8174 -0.8341 -1.6136
 2720TIP3    H229576   3.389   3.437   4.153 -0.5369 -3.5454  0.1161
 2721TIP3   OH229577   1.911   2.274  10.204  0.6415  0.6824  0.0668
 2721TIP3    H129578   1.972   2.258  10.132 -0.9781  0.8361 -1.3982
 2721TIP3    H229579   1.885   2.366  10.193 -1.0957  0.1675 -0.3701
 2722TIP3   OH229580   6.000   0.606  12.675 -0.2899  0.2033 -0.5416
 2722TIP3    H129581   5.967   0.525  12.715  0.0806  0.2866 -0.0597
 2722TIP3    H229582   6.086   0.582  12.640  0.4848  0.7408  0.9028
 2723TIP3   OH229583   4.468   6.719  12.346 -0.6358 -0.0533 -0.3509
 2723TIP3    H129584   4.527   6.647  12.323  1.5393  2.2694 -2.5771
 2723TIP3    H229585   4.442   6.700  12.437  0.3928 -3.1888 -0.5894
 2724TIP3   OH229586   3.810   4.689  15.777 -0.2396  0.4054  0.0136
 2724TIP3    H129587   3.759   4.630  15.833  1.6110 -1.0296  0.2876
 2724TIP3    H229588   3.782   4.777  15.803 -1.4057 -0.2871  1.2371
 2725TIP3   OH229589   6.016   4.087   5.627  0.0014 -0.0523  0.1157
 2725TIP3    H129590   6.071   4.030   5.681 -0.7242 -0.7174  0.1530
 2725TIP3    H229591   6.040   4.065   5.537 -1.6566 -1.8462  0.0585
 2726TIP3   OH229592   0.966   2.444   3.558  0.7212 -0.1376  0.2795
 2726TIP3    H129593   1.054   2.422   3.525  0.9368  0.2641  0.5841
 2726TIP3    H229594   0.910   2.375   3.523  1.5885 -2.0039  2.2950
 2727TIP3   OH229595   5.023   2.780   1.033  1.1079 -0.6313  0.5643
 2727TIP3    H129596   4.992   2.816   1.115 -0.1051  0.4997 -0.3562
 2727TIP3    H229597   5.054   2.856   0.983 -1.6252 -0.6995 -1.4727
 2728TIP3   OH229598   6.426   3.692  13.750 -0.0422  0.2631  0.3724
 2728TIP3    H129599   6.399   3.600  13.757  0.7627  0.1331  2.2157
 2728TIP3    H229600   6.360   3.740  13.799 -0.3525  0.6654 -0.4243
 2729TIP3   OH229601   0.610   5.927   5.197  0.2117  0.1247  0.3966
 2729TIP3    H129602   0.558   5.849   5.218 -1.8131  1.6873  1.5422
 2729TIP3    H229603   0.595   5.986   5.271 -0.6820  2.7384 -1.7268
 2730TIP3   OH229604   3.832   3.262   2.744  0.1847 -0.3544 -0.1049
 2730TIP3    H129605   3.757   3.211   2.715  0.2389 -0.3202 -0.3092
 2730TIP3    H229606   3.802   3.307   2.822 -0.6873  1.2788 -1.3209
 2731TIP3   OH229607   2.466   4.699   5.428  0.3862 -0.7244 -0.4169
 2731TIP3    H129608   2.522   4.632   5.468  1.8946  0.3693 -0.6331
 2731TIP3    H229609   2.481   4.689   5.334 -1.0501 -1.4784 -0.5912
 2732TIP3   OH229610   3.179   6.557  10.773 -0.3636 -0.4896 -0.0218
 2732TIP3    H129611   3.153   6.587  10.686 -1.2994 -2.6742 -0.5618
 2732TIP3    H229612   3.202   6.637  10.820 -1.5768  0.9310 -1.7055
 2733TIP3   OH229613   6.695   4.219  15.792  0.5117 -0.0303  0.3880
 2733TIP3    H129614   6.743   4.224  15.710 -0.8802 -1.0365 -0.5403
 2733TIP3    H229615   6.650   4.134  15.788 -0.9030  0.6353  1.4219
 2734TIP3   OH229616   3.625   6.620   3.353 -0.4424 -0.3283  0.0434
 2734TIP3    H129617   3.564   6.664   3.294  0.3132 -0.3707 -0.7958
 2734TIP3    H229618   3.617   6.527   3.331  1.5354 -0.1792 -1.7442
 2735TIP3   OH229619   1.706   4.356  12.205  0.4011 -0.3999  0.0249
 2735TIP3    H129620   1.773   4.350  12.137 -0.6145 -0.8954 -0.9607
 2735TIP3    H229621   1.642   4.289  12.181 -1.9012  1.8793 -0.6719
 2736TIP3   OH229622   3.705   0.525  11.817  0.1012  0.0881 -1.0830
 2736TIP3    H129623   3.630   0.469  11.796  0.0243 -1.7421  2.9922
 2736TIP3    H229624   3.773   0.463  11.845  0.1764  1.7564  3.2469
 2737TIP3   OH229625   0.053   2.170  12.424 -0.2519 -0.7995  0.2747
 2737TIP3    H129626   0.046   2.230  12.498  0.3496 -2.3944  1.6849
 2737TIP3    H229627   0.144   2.180  12.394  0.1141 -1.6105  1.0752
 2738TIP3   OH229628   2.730   1.517  16.211  0.0590  0.2685 -0.5809
 2738TIP3    H129629   2.642   1.482  16.196  0.4044 -1.2874  0.6894
 2738TIP3    H229630   2.788   1.457  16.165  0.5367  0.4091 -0.1698
 2739TIP3   OH229631   5.701   3.937   3.941  0.5538  0.3655  0.2616
 2739TIP3    H129632   5.747   4.002   3.994  0.6738  1.4490 -1.1507
 2739TIP3    H229633   5.611   3.939   3.974  0.9893 -0.2248  1.5692
 2740TIP3   OH229634   0.533   0.326   4.093  0.4765  0.4296 -0.3996
 2740TIP3    H129635   0.449   0.307   4.052  1.1405 -1.6465 -0.8703
 2740TIP3    H229636   0.541   0.422   4.088 -0.7073  0.4637 -2.5949
 2741TIP3   OH229637   3.511   3.506  12.141 -0.3910 -0.0849  0.5329
 2741TIP3    H129638   3.519   3.599  12.118  0.1715 -0.2509  0.0083
 2741TIP3    H229639   3.482   3.464  12.060 -1.6875 -0.2326  1.0501
 2742TIP3   OH229640   0.562   3.769   3.580 -0.0034  0.0141  0.6039
 2742TIP3    H129641   0.562   3.701   3.512  1.0031  1.4425 -0.9110
 2742TIP3    H229642   0.485   3.822   3.560  0.2752  0.4149  0.5885
 2743TIP3   OH229643   3.396   1.053  15.720  0.4523  0.6334 -0.0376
 2743TIP3    H129644   3.317   1.000  15.729  0.2986  0.5054 -1.7434
 2743TIP3    H229645   3.365   1.143  15.721  0.7193  0.7819  2.9192
 2744TIP3   OH229646   4.641   2.984   2.046  0.6136 -0.3826 -0.5399
 2744TIP3    H129647   4.654   2.938   2.128  0.3701 -0.3789 -0.4969
 2744TIP3    H229648   4.603   2.918   1.987 -1.3769  0.1737  0.0327
 2745TIP3   OH229649   6.671   4.041   1.604  0.0934 -0.3497  0.1757
 2745TIP3    H129650   6.617   3.997   1.670  0.5551 -0.6729  0.3402
 2745TIP3    H229651   6.658   4.134   1.620 -0.4188 -0.4220  0.2113
 2746TIP3   OH229652   5.024   6.108   3.918 -0.2302  0.0935 -0.0278
 2746TIP3    H129653   5.079   6.168   3.968 -0.8187  1.4991 -0.9741
 2746TIP3    H229654   5.028   6.025   3.965  1.5039  0.5678  0.7199
 2747TIP3   OH229655   5.763   3.293  13.627  0.5458 -0.0194  0.1691
 2747TIP3    H129656   5.705   3.280  13.552  1.4382 -0.6609 -0.4380
 2747TIP3    H229657   5.719   3.359  13.681 -0.5907 -0.2803 -0.4130
 2748TIP3   OH229658   0.842   4.319  15.468  0.0484  0.1843  0.3830
 2748TIP3    H129659   0.830   4.394  15.527 -0.6730  0.4014 -0.0236
 2748TIP3    H229660   0.783   4.252  15.502 -0.9651  0.5811 -0.5135
 2749TIP3   OH229661   3.826   3.134  14.884  0.2754 -0.2802  0.8060
 2749TIP3    H129662   3.815   3.042  14.861  1.2951 -0.3353  0.4568
 2749TIP3    H229663   3.880   3.132  14.963 -1.2896 -0.0167  1.9323
 2750TIP3   OH229664   1.079   4.238  16.720 -0.6184 -0.1867  0.5304
 2750TIP3    H129665   1.031   4.160  16.748 -1.2619 -0.5106 -1.3218
 2750TIP3    H229666   1.019   4.310  16.735 -1.0786 -0.3955 -0.2429
 2751TIP3   OH229667   6.213   2.049   5.736 -0.7943  0.4691 -0.1324
 2751TIP3    H129668   6.234   2.094   5.818  2.9885 -0.7988 -0.2262
 2751TIP3    H229669   6.259   2.098   5.668 -1.0006 -0.4879 -0.9864
 2752TIP3   OH229670   4.944   3.216   4.601  0.3238 -0.5503 -0.5048
 2752TIP3    H129671   4.866   3.251   4.644 -0.2761 -2.1485 -0.2532
 2752TIP3    H229672   4.911   3.182   4.517  0.4234 -2.6426  0.2554
 2753TIP3   OH229673   2.494   3.432  14.842  0.4297  0.0927 -0.1614
 2753TIP3    H129674   2.538   3.473  14.768  1.8776 -0.6401  0.2415
 2753TIP3    H229675   2.484   3.502  14.906  1.1897  0.2442 -0.1958
 2754TIP3   OH229676   5.594   3.480  10.547 -0.5089  0.3265  0.2553
 2754TIP3    H129677   5.687   3.467  10.562 -0.2009  1.9103 -0.1474
 2754TIP3    H229678   5.571   3.413  10.483 -0.3264 -1.9539  2.4162
 2755TIP3   OH229679   4.327   2.290  12.440 -0.3918  0.1700 -0.0623
 2755TIP3    H129680   4.243   2.326  12.469 -0.2990  0.9222 -0.6702
 2755TIP3    H229681   4.386   2.304  12.514 -0.4055  1.1252 -0.2210
 2756TIP3   OH229682   5.761   4.473   3.056  0.3727  0.4046 -0.0513
 2756TIP3    H129683   5.847   4.514   3.045 -0.0965  1.0606 -1.5256
 2756TIP3    H229684   5.780   4.379   3.064  1.1434  0.2687 -2.6191
 2757TIP3   OH229685   6.533   3.188  13.469  0.6210 -0.1924  1.1735
 2757TIP3    H129686   6.505   3.104  13.506 -0.9561  0.1187  0.7769
 2757TIP3    H229687   6.605   3.166  13.411 -0.6541 -1.5082  0.0081
 2758TIP3   OH229688   2.652   2.918   1.445  0.3105  0.4262  0.3828
 2758TIP3    H129689   2.666   2.971   1.524  1.2604 -1.3061  1.4331
 2758TIP3    H229690   2.728   2.861   1.440 -0.8617 -1.1533 -0.4452
 2759TIP3   OH229691   2.867   2.924  10.752 -0.4336 -0.0573  0.0842
 2759TIP3    H129692   2.822   2.876  10.822  0.9862 -1.5318  0.0347
 2759TIP3    H229693   2.888   2.857  10.687  0.0879  0.9462 -0.8104
 2760TIP3   OH229694   3.329   3.579  11.897 -0.3549 -0.2970 -0.1484
 2760TIP3    H129695   3.281   3.548  11.819  0.8441  1.8483 -1.8606
 2760TIP3    H229696   3.395   3.639  11.862 -0.6965  1.9093  2.6449
 2761TIP3   OH229697   3.514   3.662  14.846 -0.0793 -0.4027 -0.0917
 2761TIP3    H129698   3.457   3.593  14.879 -0.4338 -0.9109 -1.6893
 2761TIP3    H229699   3.580   3.617  14.795  1.5373  0.2271  1.3350
 2762TIP3   OH229700   4.075   4.782   4.678  0.6769  0.8631  0.9741
 2762TIP3    H129701   3.999   4.758   4.731  1.1942 -0.0190  1.3496
 2762TIP3    H229702   4.127   4.702   4.674  0.7866  0.9815 -0.6614
 2763TIP3   OH229703   0.481   2.139   3.485 -0.1643  0.3419 -0.4841
 2763TIP3    H129704   0.473   2.074   3.556  1.6442  0.3353 -0.2362
 2763TIP3    H229705   0.485   2.223   3.531  0.5061  0.3753 -0.5910
 2764TIP3   OH229706   4.603   1.109  14.662  0.3179  0.5843  0.1013
 2764TIP3    H129707   4.514   1.137  14.638  0.2600  0.2587 -0.0651
 2764TIP3    H229708   4.647   1.093  14.578  0.4511  0.4896  0.1889
 2765TIP3   OH229709   6.631   3.703  12.361  0.2155  0.1460  0.3766
 2765TIP3    H129710   6.539   3.683  12.342 -0.3536 -1.0291  3.7859
 2765TIP3    H229711   6.634   3.799  12.360 -0.5838  0.2070 -1.3871
 2766TIP3   OH229712   0.546   0.606  14.181 -0.2598 -0.2256 -0.3527
 2766TIP3    H129713   0.507   0.519  14.184 -0.2052 -0.3984 -2.6051
 2766TIP3    H229714   0.636   0.594  14.211 -0.2739 -0.9320 -0.5872
 2767TIP3   OH229715   3.303   6.266  12.198  0.1546  0.5570 -0.6254
 2767TIP3    H129716   3.363   6.286  12.269 -0.4877 -1.9589  0.7570
 2767TIP3    H229717   3.235   6.333  12.203  0.5472  0.8720  0.6096
 2768TIP3   OH229718   4.014   2.010  17.100 -0.1299  0.0048 -0.9123
 2768TIP3    H129719   4.069   1.934  17.082 -0.5690 -0.7641  0.7786
 2768TIP3    H229720   3.931   1.991  17.057  0.4695  0.5824 -2.3852
 2769TIP3   OH229721   1.357   4.587  11.261 -0.5095 -0.7252 -0.4570
 2769TIP3    H129722   1.327   4.672  11.230 -0.1438 -0.9379 -1.4226
 2769TIP3    H229723   1.424   4.608  11.326 -2.0124 -0.2639  1.0071
 2770TIP3   OH229724   5.548   5.751   4.673  0.1601  0.3206 -0.1509
 2770TIP3    H129725   5.619   5.688   4.660  0.3109  0.6456 -0.9359
 2770TIP3    H229726   5.572   5.797   4.753  1.0684  0.7233 -0.6410
 2771TIP3   OH229727   2.325   0.399  11.998 -0.4136 -0.0178  0.1569
 2771TIP3    H129728   2.416   0.429  12.002 -0.5910  0.7309 -1.0085
 2771TIP3    H229729   2.277   0.460  12.054 -0.3565  0.1754 -0.0064
 2772TIP3   OH229730   0.263   6.816   5.616  0.2444 -0.1400 -0.4976
 2772TIP3    H129731   0.216   6.793   5.697  0.0985 -0.8402 -0.7723
 2772TIP3    H229732   0.298   6.903   5.633  0.7254 -0.5188  0.5517
 2773TIP3   OH229733   1.321   0.986  16.214 -0.3558 -0.2239 -0.1831
 2773TIP3    H129734   1.357   0.916  16.268  1.4023  1.3793  0.8589
 2773TIP3    H229735   1.376   1.062  16.233 -1.2312  1.0722 -2.3938
 2774TIP3   OH229736   3.627   1.106   5.858  0.4015 -0.4670  0.1623
 2774TIP3    H129737   3.697   1.053   5.896  1.0641  1.4713  1.8047
 2774TIP3    H229738   3.557   1.103   5.923 -0.5681 -1.3024 -0.8692
 2775TIP3   OH229739   0.872   2.042  15.921 -0.0878  0.2149 -0.0265
 2775TIP3    H129740   0.843   2.019  16.009  1.0675 -1.2350  0.0066
 2775TIP3    H229741   0.853   2.136  15.914  0.1166  0.4426  1.8913
 2776TIP3   OH229742   2.276   3.711   4.011  0.1944  0.0980  0.3249
 2776TIP3    H129743   2.230   3.787   4.046  0.8377  1.3454 -1.4330
 2776TIP3    H229744   2.334   3.683   4.083 -2.5303 -0.9902  2.2810
 2777TIP3   OH229745   5.030   5.765   6.551  0.0213 -0.0482  0.1442
 2777TIP3    H129746   4.950   5.769   6.498 -0.3823 -0.4868  0.7084
 2777TIP3    H229747   5.043   5.672   6.568  1.1265 -0.0542 -0.6340
 2778TIP3   OH229748   4.632   4.170   5.253  0.0415 -0.3033 -0.5350
 2778TIP3    H129749   4.594   4.258   5.259 -1.2525 -0.8263 -0.7445
 2778TIP3    H229750   4.569   4.120   5.201  0.9939 -1.2394 -0.8373
 2779TIP3   OH229751   2.563   4.524   3.145 -0.4165 -0.4543 -0.3223
 2779TIP3    H129752   2.583   4.515   3.051 -1.0797 -0.4372 -0.4647
 2779TIP3    H229753   2.543   4.434   3.173  0.2858 -0.5400 -0.0777
 2780TIP3   OH229754   2.341   0.554  16.115 -0.1280  0.4556  0.0013
 2780TIP3    H129755   2.285   0.595  16.182  0.0111  1.4081 -0.4496
 2780TIP3    H229756   2.379   0.478  16.159 -1.7661 -0.2167  0.3253
 2781TIP3   OH229757   2.951   3.182   6.020 -0.1613  0.3410 -0.2245
 2781TIP3    H129758   2.879   3.229   5.978  0.5636  1.9320  0.2258
 2781TIP3    H229759   2.911   3.136   6.093 -0.9721 -0.1502 -0.9547
 2782TIP3   OH229760   3.646   5.113   5.697 -0.1329  0.3120 -0.0543
 2782TIP3    H129761   3.588   5.061   5.752  0.0403 -0.6410 -0.7478
 2782TIP3    H229762   3.733   5.080   5.715  0.0104  0.5527 -0.2925
 2783TIP3   OH229763   1.911   4.650   5.722  0.1794  0.7637  0.0779
 2783TIP3    H129764   1.842   4.606   5.771  0.6347 -0.3821 -0.2705
 2783TIP3    H229765   1.917   4.738   5.760 -0.8367  0.5647  0.7092
 2784TIP3   OH229766   2.861   0.654   2.521  0.3971 -0.7626  0.2182
 2784TIP3    H129767   2.845   0.740   2.561  0.6113 -0.9127  0.6382
 2784TIP3    H229768   2.827   0.591   2.585  1.8657 -1.0523  0.7522
 2785TIP3   OH229769   5.124   6.450   1.046  0.0268  0.1065 -0.0178
 2785TIP3    H129770   5.088   6.365   1.072 -0.6813  0.4694  0.2141
 2785TIP3    H229771   5.104   6.508   1.119  2.5999 -0.0437  0.8936
 2786TIP3   OH229772   2.310   4.956  11.111 -0.7108  0.2986  0.0533
 2786TIP3    H129773   2.303   4.923  11.021 -1.4264 -0.7128  0.4655
 2786TIP3    H229774   2.329   5.049  11.100 -0.1628  0.0765 -1.1451
 2787TIP3   OH229775   6.202   6.128  12.480 -0.0602 -0.2079 -0.4128
 2787TIP3    H129776   6.110   6.151  12.469 -0.3197 -0.6943  0.6339
 2787TIP3    H229777   6.244   6.211  12.502 -0.9373 -0.5430  3.0268
 2788TIP3   OH229778   4.930   5.508   3.951 -0.5192  0.0880 -0.3568
 2788TIP3    H129779   4.836   5.501   3.971 -0.4706  0.1222 -0.1186
 2788TIP3    H229780   4.936   5.488   3.857 -0.8410  0.6987 -0.5132
 2789TIP3   OH229781   2.357   5.399  12.747  0.2016  0.0126  0.1644
 2789TIP3    H129782   2.265   5.386  12.766  0.1381 -1.9318 -1.2643
 2789TIP3    H229783   2.403   5.355  12.819 -0.0094 -1.3301 -0.5053
 2790TIP3   OH229784   3.914   6.485   5.160  0.0697 -0.9943  0.3551
 2790TIP3    H129785   3.966   6.519   5.233  0.7579 -0.1832 -0.4952
 2790TIP3    H229786   3.978   6.456   5.096 -0.4473  1.1476 -1.2485
 2791TIP3   OH229787   4.557   0.889   4.789  0.0837 -0.4647 -0.3503
 2791TIP3    H129788   4.567   0.841   4.707  2.3352 -1.8435  0.6394
 2791TIP3    H229789   4.481   0.850   4.831  0.4618 -1.5260 -0.6362
 2792TIP3   OH229790   1.982   2.571  14.385 -0.7029  0.1468  0.4390
 2792TIP3    H129791   2.070   2.596  14.359 -0.2733 -1.1348  0.6200
 2792TIP3    H229792   1.989   2.551  14.478 -1.4179  1.0098  0.6990
 2793TIP3   OH229793   6.806   5.897  11.297 -0.0275  0.2892  0.9914
 2793TIP3    H129794   6.798   5.802  11.301 -1.5471  0.4166  1.7284
 2793TIP3    H229795   6.798   5.919  11.205  0.1551 -0.2794  0.8369
 2794TIP3   OH229796   5.466   3.152  11.343 -0.8059  0.0200 -0.1323
 2794TIP3    H129797   5.552   3.194  11.349 -0.3854 -0.9867  2.6894
 2794TIP3    H229798   5.482   3.061  11.365 -2.4273 -0.5073 -0.9560
 2795TIP3   OH229799   0.519   1.484  11.513 -0.2856  0.3069 -0.0640
 2795TIP3    H129800   0.487   1.423  11.579 -2.7395 -0.4679 -1.8163
 2795TIP3    H229801   0.450   1.550  11.506  1.5162  2.3625  0.5354
 2796TIP3   OH229802   6.800   6.686  14.934 -0.4849  0.5768  0.0035
 2796TIP3    H129803   6.803   6.593  14.956 -1.1276  0.4938 -0.2444
 2796TIP3    H229804   6.787   6.688  14.840 -0.9270  0.9152  0.0706
 2797TIP3   OH229805   4.745   4.142   3.001 -0.1044 -0.6087  0.2946
 2797TIP3    H129806   4.790   4.142   3.085  2.1793  0.8115 -0.8265
 2797TIP3    H229807   4.751   4.051   2.971  1.0083 -0.7058  0.7359
 2798TIP3   OH229808   1.250   4.080  14.930 -0.1026 -0.2288  0.4315
 2798TIP3    H129809   1.279   4.168  14.953  1.8803 -1.1539  1.7224
 2798TIP3    H229810   1.250   4.079  14.835 -0.9948  1.3951  0.3778
 2799TIP3   OH229811   2.895   6.733   1.339  0.4188  0.0412 -0.6182
 2799TIP3    H129812   2.817   6.776   1.372  0.2553 -0.5870 -0.1774
 2799TIP3    H229813   2.967   6.771   1.390  0.2619 -0.2918 -0.1435
 2800TIP3   OH229814   0.526   4.846   1.618  0.2122 -0.2785  0.2638
 2800TIP3    H129815   0.501   4.816   1.530 -0.3981 -0.6271  0.5508
 2800TIP3    H229816   0.452   4.898   1.648  1.4290  1.9830 -0.4003
 2801TIP3   OH229817   2.277   4.732  16.966 -0.2973  0.2526  0.0004
 2801TIP3    H129818   2.359   4.754  16.921  0.4701 -2.0743  0.1519
 2801TIP3    H229819   2.223   4.811  16.956  0.0459  0.1902 -4.4295
 2802TIP3   OH229820   0.409   1.177  16.496 -0.5491  0.3098  0.4404
 2802TIP3    H129821   0.324   1.218  16.477 -0.6502  0.0882  0.4144
 2802TIP3    H229822   0.472   1.230  16.447 -0.7473  0.0878 -0.0624
 2803TIP3   OH229823   6.595   1.305  12.493  0.6091 -0.1982  0.0764
 2803TIP3    H129824   6.672   1.324  12.547 -0.3037  3.6104  0.3186
 2803TIP3    H229825   6.525   1.292  12.556  0.1680  1.1551 -0.0951
 2804TIP3   OH229826   6.672   5.101   6.522  0.1420  0.1819  0.2845
 2804TIP3    H129827   6.661   5.195   6.537 -1.9526  0.0363 -0.0676
 2804TIP3    H229828   6.594   5.076   6.473  1.3247 -1.4995 -0.8211
 2805TIP3   OH229829   1.711   1.133  11.261  0.0486 -1.1143  0.3941
 2805TIP3    H129830   1.773   1.133  11.188  1.9816  0.3082  1.9382
 2805TIP3    H229831   1.739   1.060  11.317  1.6080  0.6442  2.0323
 2806TIP3   OH229832   0.730   1.410   3.975 -0.2163  0.2424  0.2410
 2806TIP3    H129833   0.706   1.455   3.894  0.2746  0.8107  0.4086
 2806TIP3    H229834   0.785   1.472   4.022  1.0902 -0.8106  0.1375
 2807TIP3   OH229835   3.838   0.616   1.631 -0.3168 -0.5104 -0.9091
 2807TIP3    H129836   3.916   0.569   1.604  1.0426  1.3675 -0.4351
 2807TIP3    H229837   3.766   0.567   1.592  1.1991 -1.2343 -2.9911
 2808TIP3   OH229838   1.714   2.359   3.987 -0.8785  0.7283 -0.9098
 2808TIP3    H129839   1.690   2.438   4.035 -0.1965  0.6937 -0.5049
 2808TIP3    H229840   1.746   2.391   3.902 -1.1159  0.8469 -0.9573
 2809TIP3   OH229841   4.513   3.745  15.626  0.4889 -0.1132 -0.3235
 2809TIP3    H129842   4.590   3.718  15.576 -0.0548  0.9342 -1.8120
 2809TIP3    H229843   4.439   3.727  15.568 -0.4554 -1.2989  1.1581
 2810TIP3   OH229844   2.315   3.169  13.534  0.4447 -0.0054  0.2924
 2810TIP3    H129845   2.320   3.126  13.619 -1.0194  2.3330  1.6658
 2810TIP3    H229846   2.373   3.245  13.542 -1.0918  1.2581 -0.1092
 2811TIP3   OH229847   6.500   4.910  14.487  0.2767  0.6166  0.4421
 2811TIP3    H129848   6.493   4.818  14.461 -1.5887  0.6556  0.7093
 2811TIP3    H229849   6.549   4.908  14.569 -0.8650 -0.2836  1.1340
 2812TIP3   OH229850   4.122   2.651  11.543  0.3744  0.1318 -0.0126
 2812TIP3    H129851   4.134   2.607  11.459 -0.1138  0.3776 -0.2100
 2812TIP3    H229852   4.091   2.738  11.521 -0.4645 -0.0386  0.4411
 2813TIP3   OH229853   2.659   6.698   3.913 -0.1440  0.2327 -0.2854
 2813TIP3    H129854   2.740   6.697   3.862 -0.6009  0.1215 -1.0232
 2813TIP3    H229855   2.688   6.695   4.004  0.6721 -1.5559 -0.5557
 2814TIP3   OH229856   3.267   6.321   5.553  0.3675  0.5462  0.7793
 2814TIP3    H129857   3.352   6.333   5.510  0.4325  2.6885  1.3786
 2814TIP3    H229858   3.203   6.352   5.489 -0.3039 -3.3153 -0.6490
 2815TIP3   OH229859   2.891   1.596  13.543 -0.5808 -0.2200  0.4149
 2815TIP3    H129860   2.889   1.687  13.513 -0.0891  0.0326  1.1183
 2815TIP3    H229861   2.838   1.596  13.622 -1.0431 -0.6667  0.1075
 2816TIP3   OH229862   3.017   2.006  10.744  0.5620 -0.1724  0.1172
 2816TIP3    H129863   3.055   2.003  10.831 -2.0679  0.2450  1.3832
 2816TIP3    H229864   2.950   1.938  10.744 -0.0655  0.3834 -1.2740
 2817TIP3   OH229865   2.782   6.489  13.921 -0.4266  0.4441  0.0280
 2817TIP3    H129866   2.859   6.448  13.883 -1.3906  0.2826 -1.8648
 2817TIP3    H229867   2.798   6.583  13.910 -0.2029  0.4443  0.3117
 2818TIP3   OH229868   6.149   0.607  14.272 -0.0781 -0.0741  0.2259
 2818TIP3    H129869   6.240   0.581  14.287 -0.5663 -2.3800 -0.4082
 2818TIP3    H229870   6.140   0.613  14.177 -0.8696 -1.1072  0.2164
 2819TIP3   OH229871   4.345   1.187  12.657  0.3566 -0.8390  0.6672
 2819TIP3    H129872   4.259   1.227  12.646  1.0901  0.7304  0.4094
 2819TIP3    H229873   4.349   1.163  12.750 -0.8291 -2.1264  0.4187
 2820TIP3   OH229874   5.634   2.404  16.512  0.1919  0.1585  0.2429
 2820TIP3    H129875   5.719   2.383  16.474  1.2864 -0.7447  2.9546
 2820TIP3    H229876   5.646   2.489  16.554  0.1714 -0.5291  1.6861
 2821TIP3   OH229877   3.227   1.694   6.142 -0.5958  0.0311  0.0067
 2821TIP3    H129878   3.278   1.617   6.169 -0.3866 -0.1904 -0.9745
 2821TIP3    H229879   3.284   1.768   6.161  0.9467 -0.3197 -2.8106
 2822TIP3   OH229880   6.429   2.644  16.767 -0.2391 -0.9059 -0.2650
 2822TIP3    H129881   6.352   2.688  16.731  1.0195  0.4460 -1.5103
 2822TIP3    H229882   6.415   2.642  16.861 -0.2187  2.7288 -0.0469
 2823TIP3   OH229883   1.894   4.362  14.719  0.2511 -0.2649  0.0869
 2823TIP3    H129884   1.927   4.323  14.800 -0.9092 -1.9993 -0.2344
 2823TIP3    H229885   1.837   4.296  14.681 -1.4084  1.5527 -0.7980
 2824TIP3   OH229886   0.297   6.070  12.228 -0.0140  0.6666 -0.3538
 2824TIP3    H129887   0.269   6.155  12.195 -1.9418  0.3796  0.3597
 2824TIP3    H229888   0.229   6.046  12.292  0.0197 -1.7373 -1.1071
 2825TIP3   OH229889   3.995   4.972   1.278 -0.2360 -0.2776  0.1564
 2825TIP3    H129890   4.061   4.921   1.323 -0.5514 -0.2078  0.7028
 2825TIP3    H229891   3.974   4.921   1.200  2.4968  0.9835 -1.5913
 2826TIP3   OH229892   0.810   3.026  13.008 -0.1454  0.1261  0.3289
 2826TIP3    H129893   0.884   3.009  13.067 -0.5894 -2.2107  0.3174
 2826TIP3    H229894   0.840   2.995  12.923 -1.3064 -1.4296  0.4482
 2827TIP3   OH229895   3.863   0.839  13.619  0.3417  0.5892  0.4540
 2827TIP3    H129896   3.817   0.890  13.685 -0.9484  0.1909 -0.0941
 2827TIP3    H229897   3.796   0.779  13.585  1.5105 -0.6510  0.2650
 2828TIP3   OH229898   4.379   3.980   4.852  0.1837 -0.0722  0.3869
 2828TIP3    H129899   4.420   4.064   4.874 -2.4286  2.5323 -3.4017
 2828TIP3    H229900   4.306   3.973   4.913  0.6601  0.1222  1.0017
 2829TIP3   OH229901   4.492   1.133   4.933  0.0444  0.0262 -0.1356
 2829TIP3    H129902   4.471   1.096   5.018 -1.2292 -0.7806 -0.7768
 2829TIP3    H229903   4.563   1.078   4.899  0.5448  0.3416  0.3770
 2830TIP3   OH229904   0.050   5.472  12.492  0.0493 -0.0587  0.1118
 2830TIP3    H129905   0.061   5.463  12.398  0.1970  0.4862  0.0728
 2830TIP3    H229906  -0.039   5.441  12.509 -0.6604  1.5443 -0.4692
 2831TIP3   OH229907   6.446   1.794   5.619 -0.3986 -0.0972 -0.0306
 2831TIP3    H129908   6.393   1.725   5.657 -0.7796  0.3226  0.2106
 2831TIP3    H229909   6.441   1.866   5.682 -0.6979  0.4525 -0.6690
 2832TIP3   OH229910   2.632   5.950   3.258  0.2964  0.2208  0.0487
 2832TIP3    H129911   2.628   5.948   3.354 -0.3996 -1.6124  0.0112
 2832TIP3    H229912   2.715   5.907   3.236  0.0131 -0.2168 -0.1821
 2833TIP3   OH229913   5.431   1.770  13.604  0.3584 -0.2749  0.1197
 2833TIP3    H129914   5.437   1.710  13.678  1.7138 -2.2832 -1.5207
 2833TIP3    H229915   5.513   1.818  13.605 -0.8019  1.8543  1.5512
 2834TIP3   OH229916   2.403   1.996  16.271 -0.2257 -0.9290 -0.2745
 2834TIP3    H129917   2.341   1.930  16.302  0.0476 -1.3938 -0.7070
 2834TIP3    H229918   2.476   1.991  16.333 -0.0758 -1.2359 -0.4755
 2835TIP3   OH229919   4.551   3.065   5.234  0.0744  0.5616 -0.2539
 2835TIP3    H129920   4.603   2.998   5.190 -0.5166  1.1440 -1.8779
 2835TIP3    H229921   4.616   3.122   5.276  0.6280 -0.1881 -0.0659
 2836TIP3   OH229922   3.435   4.224  13.231  0.1952 -0.0117  0.6110
 2836TIP3    H129923   3.371   4.293  13.249 -1.0524 -0.7149 -0.8944
 2836TIP3    H229924   3.384   4.143  13.237  0.5326 -0.5035 -2.0914
 2837TIP3   OH229925   0.847   4.370  17.096  0.5171 -0.0776  0.5758
 2837TIP3    H129926   0.829   4.464  17.097  1.3777  0.1024  1.6915
 2837TIP3    H229927   0.881   4.351  17.184 -0.1970 -1.5463  0.5668
 2838TIP3   OH229928   1.592   4.354   2.687  0.1711  0.4161 -0.4360
 2838TIP3    H129929   1.530   4.285   2.663 -0.5890  1.1822 -0.7073
 2838TIP3    H229930   1.641   4.371   2.606 -0.2290  0.7885 -0.6029
 2839TIP3   OH229931   1.626   5.451  13.547  0.6654 -0.5184  0.4753
 2839TIP3    H129932   1.662   5.493  13.626  3.7479 -0.4352 -0.8161
 2839TIP3    H229933   1.653   5.360  13.554 -2.2669 -1.4364  1.1803
 2840TIP3   OH229934   0.692   6.633   1.823  0.1473  0.1442  0.2912
 2840TIP3    H129935   0.648   6.549   1.817 -0.0046  0.1702  1.0244
 2840TIP3    H229936   0.709   6.658   1.732  0.8725 -1.0292  0.0856
 2841TIP3   OH229937   5.323   5.380  11.467 -0.5818 -0.3176  0.2627
 2841TIP3    H129938   5.345   5.421  11.384 -2.8040 -0.3106 -0.3890
 2841TIP3    H229939   5.378   5.424  11.531  0.7616  0.0763 -1.1037
 2842TIP3   OH229940   5.915   1.007   4.627 -0.5670  0.4623 -0.0862
 2842TIP3    H129941   5.964   1.074   4.674 -0.1092  0.1799 -0.1585
 2842TIP3    H229942   5.843   1.054   4.585 -1.3467  0.6330  1.3917
 2843TIP3   OH229943   4.872   2.163   5.277  0.0188  0.1543  0.0113
 2843TIP3    H129944   4.966   2.156   5.293 -0.1499 -2.1569  0.2967
 2843TIP3    H229945   4.858   2.119   5.193 -1.2060 -3.0355  1.7411
 2844TIP3   OH229946   1.349   6.807   1.845  0.0686  0.1901  0.2008
 2844TIP3    H129947   1.260   6.773   1.852  0.5901 -1.0758  1.0287
 2844TIP3    H229948   1.339   6.902   1.843 -1.3188  0.0543 -0.1429
 2845TIP3   OH229949   4.932   6.674  13.590  0.4944  0.5440 -0.2043
 2845TIP3    H129950   4.836   6.667  13.587  0.2200  1.1586  3.0987
 2845TIP3    H229951   4.954   6.732  13.518 -1.6212  0.4814 -0.9814
 2846TIP3   OH229952   4.316   5.275   2.481 -0.1175 -0.1159 -0.3702
 2846TIP3    H129953   4.328   5.332   2.404  1.7324  0.1985  0.1088
 2846TIP3    H229954   4.369   5.198   2.463 -1.5675 -1.1525 -0.4202
 2847TIP3   OH229955   0.812   3.444  14.603 -0.0850 -0.3804  0.1638
 2847TIP3    H129956   0.899   3.427  14.639  0.8490  0.1232 -1.7125
 2847TIP3    H229957   0.753   3.397  14.661  1.4646 -1.0983  1.2489
 2848TIP3   OH229958   3.885   6.138  12.411 -0.4725  0.0350  0.4719
 2848TIP3    H129959   3.844   6.171  12.331 -0.4533 -0.4116  0.2712
 2848TIP3    H229960   3.863   6.045  12.413  1.5689 -0.5388 -0.3398
 2849TIP3   OH229961   5.370   1.419  15.557 -0.9931  0.6090 -0.0365
 2849TIP3    H129962   5.343   1.362  15.629  0.5768 -1.2198 -0.8024
 2849TIP3    H229963   5.373   1.361  15.481  0.2286  1.8242 -0.9534
 2850TIP3   OH229964   2.611   1.427   3.417  0.5906  0.0040  0.3160
 2850TIP3    H129965   2.642   1.397   3.503  2.9501  1.2452 -0.0266
 2850TIP3    H229966   2.690   1.433   3.364 -0.5052  1.5227 -1.2364
 2851TIP3   OH229967   3.927   2.837   1.826 -0.3003  0.1332 -0.4397
 2851TIP3    H129968   3.839   2.831   1.864 -0.0588 -0.0528  0.1021
 2851TIP3    H229969   3.919   2.903   1.757 -0.7355  0.5211 -0.0264
 2852TIP3   OH229970   4.833   2.017  12.207  0.3557 -0.7019 -0.0018
 2852TIP3    H129971   4.798   1.963  12.136  1.5274 -0.9987 -0.3816
 2852TIP3    H229972   4.851   2.102  12.167 -2.1403  0.2847  0.7539
 2853TIP3   OH229973   0.251   5.464  13.752  0.4361  0.6438  0.5701
 2853TIP3    H129974   0.295   5.465  13.668  0.1734  0.0385  0.4190
 2853TIP3    H229975   0.274   5.379  13.790  0.1072  0.6838  0.8644
 2854TIP3   OH229976   1.655   1.248  15.304 -0.2446  0.4095 -0.1303
 2854TIP3    H129977   1.603   1.262  15.383 -1.1045 -0.3789 -0.5477
 2854TIP3    H229978   1.716   1.322  15.303  1.3150 -0.7189  2.4550
 2855TIP3   OH229979   0.662   3.502   4.129  0.0957 -0.3202  0.1705
 2855TIP3    H129980   0.724   3.433   4.105 -1.5882 -2.4538  1.6050
 2855TIP3    H229981   0.657   3.499   4.224 -3.6607 -1.7358  0.1062
 2856TIP3   OH229982   5.008   2.713   2.355 -0.6225 -0.2500  0.1095
 2856TIP3    H129983   5.000   2.702   2.450 -1.0249  1.7546  0.3391
 2856TIP3    H229984   5.066   2.788   2.345 -1.0270 -0.1068 -1.2268
 2857TIP3   OH229985   3.309   3.371   1.370  0.4174  0.1426  0.3134
 2857TIP3    H129986   3.305   3.463   1.344  1.0092 -0.1059 -0.7596
 2857TIP3    H229987   3.383   3.336   1.320 -0.0878 -1.0212  0.3483
 2858TIP3   OH229988   5.121   1.937   6.402  0.0779 -0.2036  0.1071
 2858TIP3    H129989   5.201   1.936   6.348 -0.4408  0.1473 -0.6886
 2858TIP3    H229990   5.074   1.858   6.374 -0.7368  0.5856 -0.8075
 2859TIP3   OH229991   4.706   2.092   3.339 -0.1323  0.2747  0.3309
 2859TIP3    H129992   4.800   2.090   3.359 -0.2063  0.0687  0.6612
 2859TIP3    H229993   4.698   2.047   3.255 -0.0332 -0.4598  0.7032
 2860TIP3   OH229994   5.214   3.408   1.853  0.7377 -0.1525 -0.3567
 2860TIP3    H129995   5.262   3.396   1.771 -1.3881  1.2394 -1.9101
 2860TIP3    H229996   5.229   3.500   1.876  0.3969 -0.2291  0.1919
 2861TIP3   OH229997   1.795   1.178  10.263  0.2308  0.1181 -0.1673
 2861TIP3    H129998   1.777   1.243  10.195 -0.5562 -0.5113 -0.5801
 2861TIP3    H229999   1.751   1.212  10.341  1.1972  0.8794  0.0551
 2862TIP3   OH230000   6.805   0.940  11.703  0.3523 -0.3831  0.5344
 2862TIP3    H130001   6.725   0.891  11.685 -0.6274  0.0485  3.2536
 2862TIP3    H230002   6.859   0.880  11.754  0.6337  0.1707  0.9075
 2863TIP3   OH230003   6.129   4.550  11.113  0.2220 -0.1640  0.6069
 2863TIP3    H130004   6.164   4.469  11.078  0.8380 -1.1146  3.1787
 2863TIP3    H230005   6.061   4.577  11.050  0.8352 -1.9882 -0.9153
 2864TIP3   OH230006   0.012   4.966   0.213  0.1445  0.2019 -0.1643
 2864TIP3    H130007   0.087   4.969   0.154 -0.0520 -0.5589 -0.4672
 2864TIP3    H230008   0.031   5.031   0.281  1.5429 -0.7010  0.3355
 2865TIP3   OH230009   2.485   0.357  16.237 -0.3977  0.0477  0.1158
 2865TIP3    H130010   2.489   0.401  16.321 -0.6349 -0.3400  0.3341
 2865TIP3    H230011   2.485   0.264  16.259  1.7768 -0.1160 -0.4016
 2866TIP3   OH230012   1.797   0.248  13.848 -0.1377 -0.3346 -0.0865
 2866TIP3    H130013   1.811   0.225  13.756 -0.7938  1.2628 -0.6390
 2866TIP3    H230014   1.883   0.280  13.878 -0.6856  2.5890 -1.2926
 2867TIP3   OH230015   5.139   2.445   1.763 -0.1872 -0.0648  0.4326
 2867TIP3    H130016   5.053   2.475   1.736 -0.5538 -0.6126  0.9483
 2867TIP3    H230017   5.160   2.374   1.703  1.1344  1.8022 -1.4506
 2868TIP3   OH230018   4.849   5.005  12.526 -0.5006  0.1492 -0.3955
 2868TIP3    H130019   4.853   4.968  12.438 -0.5424  1.2632 -0.8871
 2868TIP3    H230020   4.917   5.072  12.527  0.2974 -0.6331  0.8213
 2869TIP3   OH230021   3.467   5.442  11.158 -0.0161  0.0027  0.3203
 2869TIP3    H130022   3.423   5.447  11.243  0.4805 -2.0767  0.7598
 2869TIP3    H230023   3.462   5.349  11.134  1.4464  0.2382 -1.0575
 2870TIP3   OH230024   2.221   0.238  13.094  0.6714 -0.1667  0.0559
 2870TIP3    H130025   2.215   0.143  13.099  0.7936 -0.1956 -0.2954
 2870TIP3    H230026   2.184   0.260  13.009  3.1549 -0.1435 -1.1193
 2871TIP3   OH230027   1.702   4.526   5.883  0.4724  0.1337  0.4440
 2871TIP3    H130028   1.734   4.553   5.969  0.1401 -0.3750  0.7359
 2871TIP3    H230029   1.677   4.434   5.895 -2.3675  0.8454  0.6078
 2872TIP3   OH230030   2.518   4.131   3.532 -0.2061 -0.5481  0.1963
 2872TIP3    H130031   2.500   4.132   3.626 -2.1981 -0.1661 -0.1424
 2872TIP3    H230032   2.527   4.223   3.508  3.2519 -0.7220  0.4536
 2873TIP3   OH230033   3.357   0.022   4.074  0.7168  0.1542  0.2655
 2873TIP3    H130034   3.402   0.107   4.073  1.8269 -0.3977  1.0634
 2873TIP3    H230035   3.265   0.043   4.058  1.0951  1.4275 -0.3613
 2874TIP3   OH230036   2.211   1.101  13.216  1.0382  0.5146  0.3085
 2874TIP3    H130037   2.155   1.072  13.289  0.3779 -0.4962 -0.5632
 2874TIP3    H230038   2.243   1.020  13.177 -0.9387  0.8553 -2.2753
 2875TIP3   OH230039   3.055   0.204   5.791  0.1875 -0.0068 -0.2072
 2875TIP3    H130040   3.043   0.185   5.698 -1.0839  0.3762 -0.1526
 2875TIP3    H230041   3.142   0.172   5.812  0.4459 -0.2012 -1.5058
 2876TIP3   OH230042   1.112   4.306   3.943  0.1378  0.2655  0.6066
 2876TIP3    H130043   1.114   4.392   3.900 -0.0876  0.1286  0.3178
 2876TIP3    H230044   1.135   4.245   3.874  0.8991  0.1486  0.9627
 2877TIP3   OH230045   5.731   1.597  15.467 -0.1904  0.1857 -0.2844
 2877TIP3    H130046   5.758   1.512  15.502  0.1360  0.4733  0.1728
 2877TIP3    H230047   5.638   1.586  15.449 -0.2064 -0.1948  0.0025
 2878TIP3   OH230048   1.356   2.109  16.834  0.0838  0.8039  0.4005
 2878TIP3    H130049   1.365   2.104  16.739 -1.8693  0.3906  0.2008
 2878TIP3    H230050   1.446   2.117  16.866  0.9296 -0.7666 -1.3682
 2879TIP3   OH230051   0.500   2.139   3.934  0.4393  0.5583 -0.4467
 2879TIP3    H130052   0.462   2.082   3.868  0.4163  1.1118 -0.9219
 2879TIP3    H230053   0.590   2.154   3.904  0.4140  0.8474 -0.3823
 2880TIP3   OH230054   2.515   5.644   3.492  0.0508 -0.2063  0.5564
 2880TIP3    H130055   2.470   5.690   3.562 -1.6430  1.5108 -1.5166
 2880TIP3    H230056   2.603   5.627   3.526 -0.4365  1.2996  2.7366
 2881TIP3   OH230057   5.761   5.593   4.640  0.0141  0.7660 -0.3404
 2881TIP3    H130058   5.813   5.673   4.629 -1.2281  1.6409 -0.1404
 2881TIP3    H230059   5.814   5.524   4.600  2.3223  1.1640  1.7526
 2882TIP3   OH230060   4.278   2.363   1.214 -0.0988  0.0872  0.1295
 2882TIP3    H130061   4.262   2.335   1.304  1.2583 -1.6761 -0.1028
 2882TIP3    H230062   4.229   2.300   1.161 -0.9283  1.1425 -0.3895
 2883TIP3   OH230063   2.576   6.299  13.053 -0.1632  0.1615  0.2646
 2883TIP3    H130064   2.615   6.331  13.134  0.1705 -0.7178  0.4545
 2883TIP3    H230065   2.483   6.290  13.073  0.3387 -3.5772  1.8016
 2884TIP3   OH230066   1.804   6.621   0.904  0.4646  0.1470 -0.4702
 2884TIP3    H130067   1.784   6.595   0.814 -0.6752 -0.4716 -0.0548
 2884TIP3    H230068   1.899   6.618   0.909  0.5939  0.9640 -1.8831
 2885TIP3   OH230069   5.843   0.944   1.601  0.6866  0.4735 -0.5884
 2885TIP3    H130070   5.934   0.957   1.628  0.1724  1.2765  0.8945
 2885TIP3    H230071   5.800   1.028   1.621 -0.8395 -0.5704  0.7611
 2886TIP3   OH230072   0.657   3.304   4.502  0.6797  0.2490  0.6101
 2886TIP3    H130073   0.568   3.339   4.499 -0.4386 -2.0148  2.9085
 2886TIP3    H230074   0.698   3.350   4.575  0.6771 -0.0880  0.8296
 2887TIP3   OH230075   0.982   0.562   3.763 -0.5640 -0.3648 -0.0258
 2887TIP3    H130076   0.927   0.634   3.795 -1.8840 -1.4880  0.2998
 2887TIP3    H230077   1.052   0.606   3.714 -1.3517  1.1376  0.1384
 2888TIP3   OH230078   5.088   5.002   2.303  0.2103 -0.6510  0.2275
 2888TIP3    H130079   5.079   5.096   2.310  1.7200 -0.5638  1.6302
 2888TIP3    H230080   5.141   4.989   2.224  0.7967 -0.2398  0.5436
 2889TIP3   OH230081   1.226   0.542  11.416  0.3343 -0.4916 -0.2642
 2889TIP3    H130082   1.270   0.627  11.414  1.1117 -0.8562 -2.3817
 2889TIP3    H230083   1.137   0.560  11.387  0.8077 -0.4786 -1.8464
 2890TIP3   OH230084   5.531   2.172   4.804 -0.0902 -0.3585  0.1696
 2890TIP3    H130085   5.548   2.160   4.711 -0.9147  1.3491 -0.2309
 2890TIP3    H230086   5.584   2.247   4.830 -0.0515 -0.6655  1.0174
 2891TIP3   OH230087   0.682   0.752  15.128 -0.3558  0.0546  0.2426
 2891TIP3    H130088   0.674   0.811  15.053 -1.1407  1.0784  1.1107
 2891TIP3    H230089   0.605   0.695  15.122 -0.6175  0.3822  0.4775
 2892TIP3   OH230090   4.204   3.273   0.380 -0.1838 -0.1317 -0.2671
 2892TIP3    H130091   4.278   3.251   0.323 -0.0606 -1.9716  0.5517
 2892TIP3    H230092   4.207   3.209   0.450 -0.9661  1.4335  1.2865
 2893TIP3   OH230093   3.948   6.025  12.675  0.0889  0.6522  0.1007
 2893TIP3    H130094   3.868   6.008  12.725 -0.2856  1.1642 -0.3202
 2893TIP3    H230095   3.918   6.072  12.597  0.9314  1.9861  0.5499
 2894TIP3   OH230096   6.775   4.076  15.533 -0.4881 -0.2120 -0.3382
 2894TIP3    H130097   6.706   4.070  15.468 -1.1694 -1.2602  0.4510
 2894TIP3    H230098   6.787   3.986  15.564  1.0711 -0.0169 -0.2843
 2895TIP3   OH230099   1.403   5.584  14.613  0.1136  0.5672 -0.2041
 2895TIP3    H130100   1.462   5.659  14.606  0.0415  0.5259 -1.7333
 2895TIP3    H230101   1.452   5.520  14.663  1.1801  0.7419 -0.9714
 2896TIP3   OH230102   3.069   2.910   3.545  0.2487 -0.0722  0.0051
 2896TIP3    H130103   3.061   2.888   3.452 -0.4264  1.5193 -0.3400
 2896TIP3    H230104   2.989   2.876   3.585 -0.5630  1.2498 -0.4369
 2897TIP3   OH230105   3.519   0.799  12.859 -0.4256  0.7592 -0.5010
 2897TIP3    H130106   3.443   0.741  12.861  0.5275 -0.5194 -0.5180
 2897TIP3    H230107   3.554   0.790  12.770  0.3817  0.4886 -0.1655
 2898TIP3   OH230108   3.476   5.111  14.927 -0.3111  0.3367  0.5112
 2898TIP3    H130109   3.429   5.188  14.895 -0.2402 -0.2635 -1.1467
 2898TIP3    H230110   3.569   5.134  14.920 -0.2721 -0.0831 -0.5602
 2899TIP3   OH230111   3.219   4.830  12.726 -0.3956  0.3091  0.6161
 2899TIP3    H130112   3.276   4.824  12.650 -1.6963 -0.9397 -0.3129
 2899TIP3    H230113   3.146   4.772  12.706 -1.7257  1.4244  1.9931
 2900TIP3   OH230114   2.644   0.100  14.456  0.1763  0.4393 -0.4090
 2900TIP3    H130115   2.722   0.113  14.509 -0.3665 -0.5197  0.6805
 2900TIP3    H230116   2.665   0.141  14.372  1.5085  0.9550  0.1415
 2901TIP3   OH230117   6.671   4.323  13.744  0.1248  0.9766  0.1165
 2901TIP3    H130118   6.668   4.267  13.667  1.6851  1.1796 -0.1274
 2901TIP3    H230119   6.671   4.261  13.818  0.5448  0.6947 -0.1117
 2902TIP3   OH230120   6.410   1.720   2.029 -0.0166  0.1959 -0.2203
 2902TIP3    H130121   6.438   1.797   1.980 -0.9167  0.6515 -0.0472
 2902TIP3    H230122   6.351   1.754   2.096 -1.3754 -0.7437 -0.8791
 2903TIP3   OH230123   0.056   1.748  13.315 -0.3828 -0.2653 -0.0639
 2903TIP3    H130124   0.034   1.756  13.223 -0.1858 -0.9534 -0.1730
 2903TIP3    H230125   0.122   1.817  13.330 -1.6357  0.9752 -0.0177
 2904TIP3   OH230126   1.663   1.382  14.308  0.2851  0.2232 -0.1837
 2904TIP3    H130127   1.627   1.445  14.370 -2.0441 -0.2640 -0.9375
 2904TIP3    H230128   1.587   1.350  14.259  1.8207 -0.6603 -2.1403
 2905TIP3   OH230129   0.957   6.488  14.368 -0.3358 -0.1535 -0.3259
 2905TIP3    H130130   0.916   6.403  14.354 -3.4774  1.0508  0.6981
 2905TIP3    H230131   0.948   6.504  14.462  0.9006  1.0186 -0.3694
 2906TIP3   OH230132   3.666   1.737  16.602 -0.1220  0.6037 -0.2026
 2906TIP3    H130133   3.618   1.802  16.652  2.2222  2.4775 -0.2028
 2906TIP3    H230134   3.683   1.779  16.518 -2.3102 -1.7516 -1.9890
 2907TIP3   OH230135   3.533   6.394  10.784  0.2650  0.2732  0.7304
 2907TIP3    H130136   3.587   6.325  10.744  1.0786  1.2866  0.0392
 2907TIP3    H230137   3.450   6.350  10.803 -0.5632 -0.1349 -2.9237
 2908TIP3   OH230138   2.891   5.081  12.444  0.2438 -0.4769  0.0290
 2908TIP3    H130139   2.928   5.169  12.437 -2.5229  0.6758 -1.6648
 2908TIP3    H230140   2.915   5.051  12.532  3.6540  0.7318 -0.3350
 2909TIP3   OH230141   5.441   5.100  12.193  0.3654  0.1243  0.3551
 2909TIP3    H130142   5.536   5.094  12.177  0.5774  2.0011  0.6439
 2909TIP3    H230143   5.427   5.048  12.272  0.9584 -1.0415 -0.2722
 2910TIP3   OH230144   3.610   6.640   0.833 -0.4445  0.2593 -0.9630
 2910TIP3    H130145   3.575   6.587   0.761 -0.0608 -1.1539 -0.1530
 2910TIP3    H230146   3.681   6.587   0.869 -0.7510  0.8400  0.5757
 2911TIP3   OH230147   4.107   3.177  11.700  0.5817 -0.6097 -0.3257
 2911TIP3    H130148   4.168   3.186  11.773  0.7468 -0.8693 -0.4324
 2911TIP3    H230149   4.144   3.232  11.631  0.4615 -0.4184 -0.2380
 2912TIP3   OH230150   1.940   3.135   6.154 -0.9736  0.1055 -0.6714
 2912TIP3    H130151   1.980   3.203   6.209 -0.3822 -0.4704 -0.3847
 2912TIP3    H230152   1.968   3.053   6.193 -0.0710 -0.3277 -2.1425
 2913TIP3   OH230153   2.322   3.863  15.718  0.2925  0.1585 -0.1902
 2913TIP3    H130154   2.288   3.802  15.784  2.2335  0.2103  0.9620
 2913TIP3    H230155   2.259   3.935  15.717 -1.6866 -1.4903 -1.0801
 2914TIP3   OH230156   2.714   5.165   1.417  0.0647  0.1602 -0.3852
 2914TIP3    H130157   2.739   5.100   1.351  0.0533  0.1175 -0.3475
 2914TIP3    H230158   2.773   5.239   1.401  0.6460 -0.1802  0.1001
 2915TIP3   OH230159   5.967   5.931  11.801 -0.2913  0.1563 -0.6706
 2915TIP3    H130160   6.025   5.858  11.822 -1.1382  0.0460  1.5070
 2915TIP3    H230161   5.886   5.889  11.772 -1.4507  0.0548  2.3602
 2916TIP3   OH230162   1.556   1.013  13.233 -0.1275  0.7901  0.5363
 2916TIP3    H130163   1.547   0.953  13.307  0.5094 -0.9813 -0.7629
 2916TIP3    H230164   1.636   0.985  13.188 -2.4380 -0.8362 -3.0278
 2917TIP3   OH230165   6.395   0.537   2.565 -0.2210 -0.1160  0.3223
 2917TIP3    H130166   6.305   0.505   2.573 -0.6687  0.6073 -1.3441
 2917TIP3    H230167   6.406   0.597   2.639 -1.2694  0.1567  0.2650
 2918TIP3   OH230168   2.131   0.677   3.116  0.4690 -0.0987  0.2716
 2918TIP3    H130169   2.111   0.654   3.026  1.9852 -1.3976  0.2395
 2918TIP3    H230170   2.097   0.605   3.168  2.1711 -0.7912  0.4691
 2919TIP3   OH230171   0.330   2.316  15.570  0.2875  0.0522  0.0313
 2919TIP3    H130172   0.373   2.317  15.485 -0.5837 -2.2196 -0.4927
 2919TIP3    H230173   0.342   2.227  15.603 -2.6228 -0.2608  0.5138
 2920TIP3   OH230174   1.535   6.328   3.117 -0.0931  0.1689  0.0101
 2920TIP3    H130175   1.511   6.410   3.074  2.2662  2.9310  3.4013
 2920TIP3    H230176   1.503   6.337   3.207  1.5311 -1.9376  0.8961
 2921TIP3   OH230177   1.056   2.968   6.677 -0.5217  0.1695 -0.1423
 2921TIP3    H130178   1.133   2.934   6.723  0.0615  0.6005 -0.7862
 2921TIP3    H230179   0.988   2.903   6.694  0.3661 -0.9426 -0.7064
 2922TIP3   OH230180   6.003   6.000   4.052  0.6723  0.0561 -0.7038
 2922TIP3    H130181   5.912   5.982   4.074  0.5007 -0.5585 -1.8760
 2922TIP3    H230182   6.053   5.938   4.105  0.4728  0.7556  0.3527
 2923TIP3   OH230183   5.773   0.036   1.531  0.4110  0.4440  0.4443
 2923TIP3    H130184   5.831   0.110   1.510 -0.2128  0.6580 -0.5848
 2923TIP3    H230185   5.718   0.069   1.603 -1.6047  1.9830 -1.6352
 2924TIP3   OH230186   4.122   2.163   4.459  0.4653  0.6204 -0.2187
 2924TIP3    H130187   4.180   2.235   4.483  0.1709  0.8028 -0.0463
 2924TIP3    H230188   4.088   2.130   4.542  0.6031  0.2776 -0.2966
 2925TIP3   OH230189   3.979   5.342  15.766  0.4852  0.0010  0.3596
 2925TIP3    H130190   4.055   5.296  15.801 -0.6164 -2.6683 -0.4723
 2925TIP3    H230191   3.911   5.329  15.832 -0.4140 -1.4490 -0.7840
 2926TIP3   OH230192   4.858   6.322   3.617 -0.8165  0.2602  0.5023
 2926TIP3    H130193   4.946   6.285   3.614 -1.0900 -0.5077  1.4212
 2926TIP3    H230194   4.849   6.354   3.707 -0.2425  3.5230 -0.4751
 2927TIP3   OH230195   4.531   1.205   2.970 -0.3259 -0.0595 -0.2974
 2927TIP3    H130196   4.589   1.132   2.948  1.0784  0.8032  0.4182
 2927TIP3    H230197   4.445   1.164   2.982 -0.0320 -1.2825 -1.9924
 2928TIP3   OH230198   2.371   6.406   2.002  0.4459  0.1083  0.0747
 2928TIP3    H130199   2.409   6.349   2.068  1.5255  1.9255  1.0976
 2928TIP3    H230200   2.277   6.394   2.011  0.6402 -1.3964  0.3298
 2929TIP3   OH230201   6.701   0.605  12.285 -0.3068  0.1702  0.3120
 2929TIP3    H130202   6.729   0.551  12.358  1.4779  0.8541  0.1952
 2929TIP3    H230203   6.745   0.568  12.209  0.8900  1.6802  0.2198
 2930TIP3   OH230204   0.834   2.415  10.292  0.4352  0.0036  0.3525
 2930TIP3    H130205   0.859   2.477  10.225 -0.3674  1.0575  0.9992
 2930TIP3    H230206   0.856   2.459  10.375  2.1527 -1.5786  0.8125
 2931TIP3   OH230207   0.233   0.516  16.342 -0.2012  0.1116  0.0255
 2931TIP3    H130208   0.231   0.433  16.389 -2.9633 -0.6176 -1.1994
 2931TIP3    H230209   0.296   0.501  16.271  1.0528 -0.0817  1.1233
 2932TIP3   OH230210   5.887   6.569  13.775  0.8568 -0.3514 -0.3098
 2932TIP3    H130211   5.951   6.500  13.755  0.4133 -0.8101 -0.1530
 2932TIP3    H230212   5.935   6.650  13.758  1.3829 -0.6919 -0.5102
 2933TIP3   OH230213   5.880   0.169  10.859  0.1817 -0.4247 -0.5218
 2933TIP3    H130214   5.861   0.250  10.907  1.2860 -0.5431  0.1510
 2933TIP3    H230215   5.857   0.189  10.768  1.6044  1.0934 -0.5955
 2934TIP3   OH230216   2.955   3.496  12.773  0.5137  0.2595  0.1690
 2934TIP3    H130217   3.023   3.560  12.796 -0.5820  1.2033  0.8640
 2934TIP3    H230218   2.902   3.541  12.707  1.2631 -0.9391 -1.3104
 2935TIP3   OH230219   3.223   2.076  16.570 -0.1900  0.6522  0.0428
 2935TIP3    H130220   3.181   2.101  16.488  0.5585  1.0222 -0.2435
 2935TIP3    H230221   3.161   2.018  16.613 -0.0286 -0.6780 -1.4327
 2936TIP3   OH230222   6.560   3.427  13.206 -0.1518  0.2024  0.8347
 2936TIP3    H130223   6.608   3.464  13.131 -0.5358 -0.7079  0.1197
 2936TIP3    H230224   6.605   3.345  13.225 -0.5711  0.0251  1.0686
 2937TIP3   OH230225   5.353   2.197  16.375  0.2929 -0.3627 -0.1371
 2937TIP3    H130226   5.393   2.150  16.301  2.7057  1.9051 -0.4365
 2937TIP3    H230227   5.292   2.134  16.413  2.6317 -3.4192 -0.9911
 2938TIP3   OH230228   3.759   4.493   2.337  0.1340 -0.3774 -0.0152
 2938TIP3    H130229   3.671   4.457   2.325  0.4375 -0.6151 -1.9600
 2938TIP3    H230230   3.759   4.528   2.426 -1.0462 -2.7939  1.0399
 2939TIP3   OH230231   0.134   1.860   2.149 -0.5998 -0.1334  0.1567
 2939TIP3    H130232   0.098   1.895   2.068  1.6608 -0.4369 -1.0640
 2939TIP3    H230233   0.199   1.925   2.177 -0.1111 -0.8649  0.7707
 2940TIP3   OH230234   4.829   5.231  16.698 -0.1110 -0.5102  0.0302
 2940TIP3    H130235   4.822   5.138  16.722 -1.4418 -0.6924 -0.9105
 2940TIP3    H230236   4.761   5.275  16.750  1.2835  0.1620  1.3461
 2941TIP3   OH230237   2.388   2.191   2.190  0.0616 -0.1160 -0.5882
 2941TIP3    H130238   2.461   2.134   2.214  2.1590  1.9657 -1.6073
 2941TIP3    H230239   2.412   2.276   2.227 -2.1053  0.5463 -0.5894
 2942TIP3   OH230240   2.382   5.035  13.497  0.6927  0.1232 -0.3503
 2942TIP3    H130241   2.352   4.956  13.453  1.3339 -0.1871 -0.2375
 2942TIP3    H230242   2.309   5.061  13.554  0.0543  0.2406 -1.2052
 2943TIP3   OH230243   0.496   3.146   4.860 -0.6762  0.6658  0.5120
 2943TIP3    H130244   0.489   3.060   4.819  1.0341  0.8797 -0.3005
 2943TIP3    H230245   0.426   3.147   4.925 -0.3779 -1.5854  0.9618
 2944TIP3   OH230246   3.842   4.024   6.267 -0.4470  0.1817 -0.3531
 2944TIP3    H130247   3.813   3.933   6.257  0.0533  0.1817 -2.3038
 2944TIP3    H230248   3.775   4.075   6.223 -0.1064  0.6472 -0.3379
 2945TIP3   OH230249   3.471   3.431   2.943 -0.1964  0.7276  0.1964
 2945TIP3    H130250   3.404   3.497   2.922  0.3892  1.0253 -0.7944
 2945TIP3    H230251   3.428   3.372   3.004 -1.3171  1.0209 -0.2824
 2946TIP3   OH230252   3.714   4.333   5.671 -0.3094  0.2526  0.5389
 2946TIP3    H130253   3.800   4.325   5.630 -0.3199 -0.7445  0.6768
 2946TIP3    H230254   3.712   4.422   5.705  0.1544  0.7095 -0.5993
 2947TIP3   OH230255   0.003   0.222  12.239 -0.0145 -0.0580  0.1243
 2947TIP3    H130256   0.063   0.186  12.173  0.3164 -0.0552  0.4219
 2947TIP3    H230257  -0.038   0.296  12.195 -1.6850 -1.5295 -0.9689
 2948TIP3   OH230258   1.446   5.561  16.445 -0.8437  0.1130  0.1744
 2948TIP3    H130259   1.360   5.591  16.474 -1.1013  1.2103 -1.6086
 2948TIP3    H230260   1.494   5.641  16.425  0.4510 -0.5013  0.6670
 2949TIP3   OH230261   4.353   0.641  16.289 -0.3243  0.5689  0.5969
 2949TIP3    H130262   4.399   0.569  16.333  0.4056  1.6805  1.7488
 2949TIP3    H230263   4.415   0.714  16.291 -0.0084  0.5509 -2.9032
 2950TIP3   OH230264   4.464   1.436   2.185 -0.0437  0.2751 -0.1055
 2950TIP3    H130265   4.492   1.435   2.093 -1.1200  1.7226 -0.4790
 2950TIP3    H230266   4.528   1.380   2.230  0.8042 -0.0493 -1.6431
 2951TIP3   OH230267   2.372   3.854  15.216 -0.4319  0.0583  0.2565
 2951TIP3    H130268   2.363   3.851  15.121 -0.4971  1.8304  0.1787
 2951TIP3    H230269   2.462   3.882  15.232  0.1539 -1.9400  0.7879
 2952TIP3   OH230270   0.550   4.073   5.230  0.6989 -0.1149  0.3217
 2952TIP3    H130271   0.547   4.059   5.136  1.0019 -0.9302  0.4277
 2952TIP3    H230272   0.559   4.168   5.240  1.9418 -0.1366 -0.4955
 2953TIP3   OH230273   2.790   1.594   2.130 -0.3380  0.3550  0.4544
 2953TIP3    H130274   2.765   1.686   2.133 -1.3200  0.1073  0.4320
 2953TIP3    H230275   2.875   1.590   2.174  0.0692  1.3739 -0.2060
 2954TIP3   OH230276   1.692   4.167  14.687 -0.1328 -0.2886 -0.2811
 2954TIP3    H130277   1.738   4.127  14.761  2.4957  0.1262 -1.5886
 2954TIP3    H230278   1.660   4.093  14.636 -0.7659 -0.5875  0.5208
 2955TIP3   OH230279   4.176   2.163  11.550 -0.1165  0.0919 -0.3804
 2955TIP3    H130280   4.094   2.212  11.541 -0.0708  0.3631  0.5642
 2955TIP3    H230281   4.178   2.136  11.641  0.1540 -1.1797 -0.7420
 2956TIP3   OH230282   1.644   2.465  17.097  0.1167  0.2990  0.1087
 2956TIP3    H130283   1.562   2.501  17.130  1.2769 -0.0982  3.8589
 2956TIP3    H230284   1.691   2.541  17.062 -0.7044  1.0254  0.5452
 2957TIP3   OH230285   4.840   3.764   6.212  0.0166 -0.7721 -0.3845
 2957TIP3    H130286   4.926   3.804   6.225  0.1803 -0.5749 -1.9527
 2957TIP3    H230287   4.788   3.793   6.288  0.9946  0.0050 -0.0002
 2958TIP3   OH230288   1.781   3.379   2.718  0.6983 -0.5187 -0.2210
 2958TIP3    H130289   1.752   3.464   2.684  0.3469 -0.6995 -0.3806
 2958TIP3    H230290   1.857   3.357   2.665  1.2027  0.0123  0.2737
 2959TIP3   OH230291   5.629   3.858  16.336  0.4388 -0.0239  0.0890
 2959TIP3    H130292   5.619   3.806  16.416 -0.5183  1.2527  0.8353
 2959TIP3    H230293   5.550   3.912  16.332  1.1321  0.9594 -0.9661
 2960TIP3   OH230294   1.046   0.519   5.821 -0.2700 -0.2077 -0.4496
 2960TIP3    H130295   0.960   0.535   5.858 -1.2769 -1.0394 -2.2616
 2960TIP3    H230296   1.089   0.604   5.821 -0.6368  0.0124  1.4775
 2961TIP3   OH230297   3.135   2.510   3.145 -0.0542 -0.5111  0.2922
 2961TIP3    H130298   3.193   2.481   3.216  2.0047 -1.4632 -1.6520
 2961TIP3    H230299   3.112   2.600   3.169 -0.7556 -1.3058  2.9175
 2962TIP3   OH230300   0.495   4.610   2.060  0.1172  0.6280  0.6472
 2962TIP3    H130301   0.589   4.590   2.064 -0.1062 -0.3546  1.3992
 2962TIP3    H230302   0.463   4.590   2.148 -1.0955 -0.6398 -0.0379
 2963TIP3   OH230303   3.153   5.960  12.350 -0.3266 -0.0758  0.1266
 2963TIP3    H130304   3.208   6.033  12.377 -0.7620  0.7032 -0.9857
 2963TIP3    H230305   3.181   5.886  12.404  0.6614  0.7178  0.7206
 2964TIP3   OH230306   2.683   1.263   3.029  0.4023 -0.4610 -0.3790
 2964TIP3    H130307   2.768   1.263   3.074  0.2242  0.3873 -0.0359
 2964TIP3    H230308   2.665   1.170   3.013  1.3133 -0.6662 -0.3099
 2965TIP3   OH230309   1.803   5.337   3.992  0.2009 -0.1651  0.7577
 2965TIP3    H130310   1.871   5.313   3.929  0.9912 -0.4341  1.6944
 2965TIP3    H230311   1.839   5.411   4.039 -0.5694  0.3110  0.6187
 2966TIP3   OH230312   6.488   4.523   1.169 -0.1262 -0.1039 -0.3201
 2966TIP3    H130313   6.542   4.448   1.146  0.2420 -0.5304  1.7989
 2966TIP3    H230314   6.443   4.546   1.087  0.7171 -1.8130 -1.3069
 2967TIP3   OH230315   1.214   1.992   2.547  0.6766 -0.5511  0.1517
 2967TIP3    H130316   1.199   2.058   2.479  0.9431 -0.7069 -0.0636
 2967TIP3    H230317   1.132   1.990   2.597  0.9920  0.6030  0.7475
 2968TIP3   OH230318   3.172   1.296   1.383 -0.1372 -0.1875  0.1693
 2968TIP3    H130319   3.115   1.313   1.458 -0.0862  0.8486 -0.0098
 2968TIP3    H230320   3.213   1.212   1.402  0.0052  0.1407  1.3795
 2969TIP3   OH230321   3.032   6.315  12.493 -0.0094 -0.6727  0.2713
 2969TIP3    H130322   2.947   6.336  12.532  0.4224  2.7512 -0.3448
 2969TIP3    H230323   3.013   6.297  12.401  0.0394  2.0228 -0.3274
 2970TIP3   OH230324   4.144   6.431   5.636  0.2877 -0.1020 -0.0039
 2970TIP3    H130325   4.111   6.356   5.686 -1.0590 -1.0721 -2.1740
 2970TIP3    H230326   4.107   6.507   5.681  1.6137 -0.6619  2.1983
 2971TIP3   OH230327   3.959   5.831   1.971  0.1956  0.0041  0.2752
 2971TIP3    H130328   3.882   5.840   2.028 -0.3059 -0.8833 -0.2463
 2971TIP3    H230329   4.033   5.851   2.029 -0.3530 -0.1430  1.0452
 2972TIP3   OH230330   5.501   4.535  11.042  0.1102 -0.0473  0.5159
 2972TIP3    H130331   5.419   4.487  11.031 -0.1168  0.0959  1.5009
 2972TIP3    H230332   5.474   4.625  11.057  0.5522  0.5735 -1.9973
 2973TIP3   OH230333   5.521   0.053   4.158 -0.5942  0.7634  0.1089
 2973TIP3    H130334   5.574   0.003   4.096 -3.0044  1.4447 -2.7733
 2973TIP3    H230335   5.567   0.136   4.169 -0.4532  0.9044 -1.3947
 2974TIP3   OH230336   4.039   5.747   3.222 -0.7188  0.2684 -0.5507
 2974TIP3    H130337   4.092   5.747   3.143 -0.0225  3.7923 -0.2373
 2974TIP3    H230338   4.102   5.751   3.294 -1.2730  2.8519 -0.1172
 2975TIP3   OH230339   2.829   0.834   4.999 -0.3976 -0.1080 -0.3428
 2975TIP3    H130340   2.867   0.900   5.057  0.7092 -0.1529 -0.9812
 2975TIP3    H230341   2.838   0.752   5.047  0.4263 -0.1303 -0.5205
 2976TIP3   OH230342   4.674   6.618  16.891  0.2666  0.3719  0.1883
 2976TIP3    H130343   4.617   6.590  16.963 -1.0346 -1.5641 -1.4760
 2976TIP3    H230344   4.613   6.655  16.826  1.0298 -0.6021 -1.1269
 2977TIP3   OH230345   1.461   1.724   6.158 -0.4469 -0.4163  0.3226
 2977TIP3    H130346   1.369   1.736   6.135 -0.8266 -1.2763  1.3158
 2977TIP3    H230347   1.491   1.653   6.100 -0.4493 -0.2484  0.1135
 2978TIP3   OH230348   1.277   3.342  14.058  0.6977  0.0527  0.1128
 2978TIP3    H130349   1.314   3.272  14.112  1.3079 -1.0863 -1.6925
 2978TIP3    H230350   1.341   3.413  14.064  0.1299  0.4683  1.8705
 2979TIP3   OH230351   5.139   6.286  15.025  0.1039  0.1399 -0.0082
 2979TIP3    H130352   5.234   6.293  15.022 -0.0174  2.1454 -1.1220
 2979TIP3    H230353   5.117   6.227  14.953  0.4762  0.7084 -0.6092
 2980TIP3   OH230354   1.778   4.254  17.015  0.2572  0.6723  0.2493
 2980TIP3    H130355   1.689   4.219  17.008  0.5523  0.1236 -1.0044
 2980TIP3    H230356   1.776   4.308  17.094 -0.5129 -1.2515  1.6174
 2981TIP3   OH230357   5.223   3.026  16.153 -0.4342  0.2990  0.2623
 2981TIP3    H130358   5.234   2.960  16.221  0.2531  0.7812  0.6347
 2981TIP3    H230359   5.200   2.977  16.074  0.6788 -0.4406  0.3821
 2982TIP3   OH230360   0.656   4.722  11.068 -0.7694 -0.2107 -0.2936
 2982TIP3    H130361   0.661   4.627  11.055 -1.5478  0.0286 -2.6891
 2982TIP3    H230362   0.628   4.757  10.984 -0.8891  2.1416  0.6461
 2983TIP3   OH230363   5.595   0.062  16.128 -0.2484  0.0349 -0.1392
 2983TIP3    H130364   5.655   0.007  16.179  1.2884  1.0786 -0.7206
 2983TIP3    H230365   5.516   0.069  16.181  0.1661 -1.3285  0.6994
 2984TIP3   OH230366   0.927   1.765  13.313  0.1635  0.1655  0.4183
 2984TIP3    H130367   0.914   1.699  13.245 -0.6147 -0.8265  1.4821
 2984TIP3    H230368   0.970   1.837  13.268 -0.8423 -0.2093 -1.2550
 2985TIP3   OH230369   5.442   4.373  14.106 -0.3156 -0.0688 -0.2542
 2985TIP3    H130370   5.356   4.395  14.070 -0.7155  0.4844  0.9741
 2985TIP3    H230371   5.466   4.449  14.159  1.8246  0.6121 -2.0760
 2986TIP3   OH230372   2.316   3.907  14.386  0.1083  0.5291  0.2490
 2986TIP3    H130373   2.297   3.917  14.292  0.1032  0.3540  0.2314
 2986TIP3    H230374   2.290   3.991  14.424 -1.5560 -0.0076  0.3676
 2987TIP3   OH230375   2.269   3.880  11.473  0.4528 -0.5585 -0.0603
 2987TIP3    H130376   2.324   3.907  11.546  0.4091  2.3698 -0.9650
 2987TIP3    H230377   2.181   3.874  11.510  0.6646 -0.6404  0.4369
 2988TIP3   OH230378   4.509   6.567   0.001  0.1995 -0.8021  0.4136
 2988TIP3    H130379   4.423   6.545   0.036 -1.2212  0.7959 -1.8213
 2988TIP3    H230380   4.547   6.625   0.067 -1.1784 -0.1639  0.6909
 2989TIP3   OH230381   0.590   4.583  11.965  0.2299 -0.5530 -0.4584
 2989TIP3    H130382   0.552   4.496  11.971 -1.4171  0.2232  1.3882
 2989TIP3    H230383   0.627   4.598  12.052  1.1436  0.3234 -0.9830
 2990TIP3   OH230384   2.561   4.063  15.316  0.3441  0.2464  0.4772
 2990TIP3    H130385   2.605   4.146  15.331  0.9535  0.0067  0.0331
 2990TIP3    H230386   2.468   4.083  15.326  0.2701  1.5375 -2.1218
 2991TIP3   OH230387   1.807   1.842  16.108  0.0407  0.4698 -0.3870
 2991TIP3    H130388   1.723   1.807  16.078  0.3238  0.4390 -1.1484
 2991TIP3    H230389   1.862   1.765  16.123 -0.4792  0.3963  1.4476
 2992TIP3   OH230390   3.549   1.390  11.564  0.0769 -0.1590  0.3900
 2992TIP3    H130391   3.470   1.336  11.571 -0.5672  0.9298  1.9918
 2992TIP3    H230392   3.550   1.442  11.644  1.7505  0.7784 -0.1916
 2993TIP3   OH230393   4.578   4.983  13.874 -0.4304  0.3325  0.6487
 2993TIP3    H130394   4.557   4.980  13.780 -0.9422  0.5407  0.7532
 2993TIP3    H230395   4.493   4.979  13.917 -0.3095  1.8772  1.0759
 2994TIP3   OH230396   5.694   1.836   1.174  0.2083 -0.3266  0.0959
 2994TIP3    H130397   5.665   1.926   1.156  0.5549 -0.0233  0.9733
 2994TIP3    H230398   5.620   1.797   1.222  0.6839  0.0276  1.1613
 2995TIP3   OH230399   6.792   5.978   4.170 -0.9047  0.4679 -0.0202
 2995TIP3    H130400   6.796   5.890   4.208  1.1169  0.0637 -1.0271
 2995TIP3    H230401   6.713   5.977   4.116 -0.2985 -1.1627 -0.9487
 2996TIP3   OH230402   0.540   4.386  12.904 -0.1085 -0.4605 -0.0895
 2996TIP3    H130403   0.579   4.317  12.957  0.8386 -0.0376 -0.2112
 2996TIP3    H230404   0.475   4.341  12.850  1.9692 -1.7011 -1.7431
 2997TIP3   OH230405   0.597   4.134  13.438  0.1205 -0.3538 -0.0084
 2997TIP3    H130406   0.672   4.084  13.468  0.7013  0.7691  0.4464
 2997TIP3    H230407   0.528   4.114  13.502 -0.1620 -1.7718 -0.7003
 2998TIP3   OH230408   5.738   0.254   0.884 -0.7779  0.6610  0.7548
 2998TIP3    H130409   5.711   0.177   0.934  0.6347 -0.0731  0.4328
 2998TIP3    H230410   5.656   0.300   0.865 -1.6518 -0.7222  1.0094
 2999TIP3   OH230411   6.394   0.696   4.063  0.0562  0.6165  0.2236
 2999TIP3    H130412   6.406   0.627   4.128 -1.9750  0.6228  0.6508
 2999TIP3    H230413   6.392   0.649   3.979 -0.9683  0.1671  0.4840
 3000TIP3   OH230414   2.697   4.148   2.287  0.2626 -0.1851  0.4427
 3000TIP3    H130415   2.688   4.241   2.267 -0.4197 -0.3884 -0.2279
 3000TIP3    H230416   2.782   4.123   2.251 -0.0370 -0.0657 -0.3692
 3001TIP3   OH230417   1.319   5.210   5.975 -0.6611  0.1301 -0.2057
 3001TIP3    H130418   1.246   5.251   5.928 -0.1121  0.1893 -1.0313
 3001TIP3    H230419   1.365   5.159   5.909  0.7206  1.0070  0.0149
 3002TIP3   OH230420   3.619   4.147  14.187  0.7560 -0.1746  0.6747
 3002TIP3    H130421   3.628   4.188  14.274 -0.3958  1.1877  0.1977
 3002TIP3    H230422   3.646   4.215  14.126  0.5848 -0.7789 -0.0861
 3003TIP3   OH230423   2.910   0.246  16.283  0.1960  0.0215 -0.5969
 3003TIP3    H130424   2.936   0.333  16.255 -0.6595  0.6025  0.3446
 3003TIP3    H230425   2.862   0.260  16.365  1.8820 -1.5109  0.7351
 3004TIP3   OH230426   3.706   4.751  16.886  0.3327 -0.3477 -0.1706
 3004TIP3    H130427   3.728   4.769  16.977 -1.0148 -1.3460  0.3844
 3004TIP3    H230428   3.665   4.831  16.854  0.1718 -0.2326  0.3176
 3005TIP3   OH230429   6.447   1.221  13.793 -0.1388  0.0144 -0.1164
 3005TIP3    H130430   6.455   1.147  13.853 -0.6406 -0.5084 -0.6926
 3005TIP3    H230431   6.457   1.298  13.850  0.8959 -0.4853  0.4143
 3006TIP3   OH230432   1.727   5.466   5.593 -0.2341  0.0794 -0.0425
 3006TIP3    H130433   1.780   5.542   5.618  0.1446 -0.3736  0.5619
 3006TIP3    H230434   1.712   5.419   5.675 -0.4832 -0.4894 -0.4046
 3007TIP3   OH230435   1.056   1.353  14.908 -0.2062 -0.3074  0.3982
 3007TIP3    H130436   1.084   1.270  14.869 -0.0522 -0.7152  1.3620
 3007TIP3    H230437   1.124   1.375  14.971 -0.3814  0.4244  0.3448
 3008TIP3   OH230438   2.757   0.541  11.055 -0.5775  0.0415  0.4812
 3008TIP3    H130439   2.846   0.510  11.074 -0.8265  0.2400  2.0638
 3008TIP3    H230440   2.746   0.617  11.112 -1.1098  1.1813 -1.0634
 3009TIP3   OH230441   3.940   4.176  13.237  0.4151 -0.0711  0.3958
 3009TIP3    H130442   3.867   4.164  13.177  0.8186  1.9603 -0.5959
 3009TIP3    H230443   3.921   4.258  13.282  1.8209  0.2364  0.4819
 3010TIP3   OH230444   0.880   5.765  12.165  0.2279 -0.4366  0.0885
 3010TIP3    H130445   0.895   5.832  12.232 -1.0868  0.0964 -0.1079
 3010TIP3    H230446   0.959   5.765  12.112 -0.4138  2.3017 -1.0298
 3011TIP3   OH230447   0.329   4.889   2.233  0.5207 -0.1940 -0.6820
 3011TIP3    H130448   0.338   4.805   2.278  1.0303  0.5722  0.7001
 3011TIP3    H230449   0.377   4.878   2.151  0.0797 -1.4299 -0.7913
 3012TIP3   OH230450   4.734   4.554   2.689  0.3316  0.1979  0.0881
 3012TIP3    H130451   4.735   4.461   2.671  1.5227 -0.0732  1.3758
 3012TIP3    H230452   4.695   4.561   2.776 -0.8965  1.0350 -0.4917
 3013TIP3   OH230453   0.372   4.656   0.530 -0.2975 -0.0568 -0.3680
 3013TIP3    H130454   0.395   4.725   0.593 -2.6306 -0.5441  1.1445
 3013TIP3    H230455   0.308   4.697   0.472  1.9143  0.4154 -2.6101
 3014TIP3   OH230456   3.425   1.655   2.786  0.3535  0.1595 -0.2476
 3014TIP3    H130457   3.487   1.686   2.720  1.5636  2.0043  1.6171
 3014TIP3    H230458   3.393   1.735   2.828 -3.5756 -0.6791 -1.2624
 3015TIP3   OH230459   6.082   3.405   2.138 -0.3418 -0.1999  0.3042
 3015TIP3    H130460   6.136   3.417   2.216  1.6892  1.3368 -1.2074
 3015TIP3    H230461   6.138   3.354   2.078 -1.0400  0.3631 -0.8579
 3016TIP3   OH230462   2.566   2.794   1.091  0.3166  0.0823  0.1466
 3016TIP3    H130463   2.606   2.878   1.111  0.0342  0.1802  0.3102
 3016TIP3    H230464   2.475   2.815   1.070  0.1585 -0.2140  0.5195
 3017TIP3   OH230465   5.421   1.657  12.343  0.3170  0.0066  0.1863
 3017TIP3    H130466   5.371   1.629  12.266  0.6000 -1.0664  0.3790
 3017TIP3    H230467   5.486   1.718  12.308 -1.4545  1.8820  0.0141
 3018TIP3   OH230468   5.080   5.277  11.547  0.1096  0.0585  0.0101
 3018TIP3    H130469   5.150   5.332  11.511  0.0344  0.6659  0.7658
 3018TIP3    H230470   5.047   5.229  11.472 -0.3171  1.5904 -0.8256
 3019TIP3   OH230471   0.751   0.530  11.470 -0.0972 -0.1423  0.0011
 3019TIP3    H130472   0.734   0.447  11.427  0.0502  0.5045 -1.3585
 3019TIP3    H230473   0.684   0.536  11.538 -0.8557 -0.8407 -0.6638
 3020TIP3   OH230474   0.944   3.479   1.358 -0.2405  0.1453  0.1310
 3020TIP3    H130475   0.905   3.424   1.426 -1.4167  0.6185 -0.1315
 3020TIP3    H230476   0.976   3.417   1.293  0.5254 -0.2961  0.9007
 3021TIP3   OH230477   4.753   4.582   6.111  0.0143 -0.1820  0.4118
 3021TIP3    H130478   4.775   4.605   6.201  0.0008 -1.0971  0.6636
 3021TIP3    H230479   4.793   4.650   6.058  0.0949  0.3200  1.1060
 3022TIP3   OH230480   2.480   3.611  15.058 -0.2731 -0.1974 -0.1911
 3022TIP3    H130481   2.401   3.621  15.112 -0.2914  1.0207 -0.4069
 3022TIP3    H230482   2.542   3.674  15.096 -0.0811  0.2420 -1.2213
 3023TIP3   OH230483   2.020   4.685   6.487 -0.1057  0.2673  0.1443
 3023TIP3    H130484   2.097   4.635   6.516  0.4351  0.2260 -1.2459
 3023TIP3    H230485   2.052   4.774   6.475 -0.2075  0.2110 -0.6253
 3024TIP3   OH230486   2.522   3.511  13.312 -0.3141 -0.2102  0.0296
 3024TIP3    H130487   2.507   3.422  13.280 -2.0388  0.6224 -1.5869
 3024TIP3    H230488   2.590   3.546  13.255 -0.6904  0.0012 -0.2910
 3025TIP3   OH230489   5.217   6.769   2.960 -0.2541 -0.0818 -0.5477
 3025TIP3    H130490   5.141   6.784   2.903 -0.4984 -1.0962 -0.5118
 3025TIP3    H230491   5.247   6.681   2.938  0.3500 -0.0497  0.0917
 3026TIP3   OH230492   3.853   2.493  11.745  0.2700 -0.1423  0.1768
 3026TIP3    H130493   3.779   2.517  11.690 -0.4660 -0.3952  1.0347
 3026TIP3    H230494   3.824   2.511  11.834  0.1446 -2.9032  0.7805
 3027TIP3   OH230495   5.197   0.137  12.247  0.5003  0.0399  0.4814
 3027TIP3    H130496   5.134   0.187  12.299 -0.0323  0.0088 -0.1268
 3027TIP3    H230497   5.144   0.090  12.183  1.0159 -1.0925  0.8580
 3028TIP3   OH230498   6.466   0.594   2.992 -0.4320 -0.1209 -0.4230
 3028TIP3    H130499   6.440   0.551   3.073  1.2538 -0.2842  0.0626
 3028TIP3    H230500   6.497   0.524   2.936  3.6244  0.4200  0.8689
 3029TIP3   OH230501   6.294   2.388  16.711  0.1147  0.0509  0.3697
 3029TIP3    H130502   6.307   2.426  16.624 -1.7932  1.8520  0.7859
 3029TIP3    H230503   6.375   2.406  16.758  1.6111 -1.9426 -1.3251
 3030TIP3   OH230504   0.763   3.673   1.500 -0.3122 -0.1731  0.2407
 3030TIP3    H130505   0.779   3.626   1.581  0.6582  1.9628  1.3617
 3030TIP3    H230506   0.816   3.627   1.435  0.5611 -0.6591  1.2667
 3031TIP3   OH230507   1.864   6.725   0.014  0.4505 -0.2556  0.0962
 3031TIP3    H130508   1.781   6.757   0.048  1.7504  1.8098  1.5692
 3031TIP3    H230509   1.875   6.771  -0.070  0.5267  0.2010  0.3536
 3032TIP3   OH230510   1.108   0.843  13.969  0.2624 -0.1489 -0.0947
 3032TIP3    H130511   1.017   0.873  13.969 -0.2075 -1.1528  3.7931
 3032TIP3    H230512   1.103   0.751  13.941  0.0854 -0.1742  0.0189
 3033TIP3   OH230513   6.291   4.827   5.619  0.0153  0.3789 -0.0773
 3033TIP3    H130514   6.207   4.838   5.576  1.6586 -0.4264 -3.8672
 3033TIP3    H230515   6.340   4.907   5.598  0.5275  0.4828  1.3809
 3034TIP3   OH230516   6.044   4.795  14.449 -0.0716  0.3320 -0.4314
 3034TIP3    H130517   5.966   4.748  14.479  0.5534 -0.1797  0.4667
 3034TIP3    H230518   6.012   4.880  14.419 -0.9804  0.0946 -0.1477
 3035TIP3   OH230519   2.369   4.556  14.696  0.4765  0.6947 -0.1249
 3035TIP3    H130520   2.456   4.592  14.714  0.9254  0.0033 -0.8367
 3035TIP3    H230521   2.386   4.479  14.641 -0.4229 -0.5868  1.2953
 3036TIP3   OH230522   3.097   4.856   3.903  0.0851 -0.1014  0.5274
 3036TIP3    H130523   3.058   4.898   3.826 -0.4527  2.0604  1.9158
 3036TIP3    H230524   3.186   4.892   3.908  0.9025 -1.8322 -0.1945
 3037TIP3   OH230525   3.162   1.492   3.509  0.3691  0.3196 -0.5458
 3037TIP3    H130526   3.206   1.412   3.539  2.4437  1.4136 -0.4627
 3037TIP3    H230527   3.072   1.483   3.540  0.7377 -1.6379  0.0993
 3038TIP3   OH230528   3.402   0.822  16.399  0.8032  0.3056 -0.3554
 3038TIP3    H130529   3.351   0.756  16.351 -0.2120  0.8108 -0.0089
 3038TIP3    H230530   3.356   0.831  16.483  2.1205 -0.0204  0.4168
 3039TIP3   OH230531   0.831   4.897  11.604 -0.5093  0.1436 -0.8449
 3039TIP3    H130532   0.833   4.858  11.692 -0.3722  1.4541 -0.2353
 3039TIP3    H230533   0.778   4.837  11.552 -0.1815 -0.9157 -0.0014
 3040TIP3   OH230534   3.874   3.099   4.874  0.1001  0.1130 -0.6663
 3040TIP3    H130535   3.825   3.117   4.795  0.4285  1.3398 -0.6213
 3040TIP3    H230536   3.966   3.100   4.846  0.1489 -1.6722 -0.6649
 3041TIP3   OH230537   0.356   3.993  14.764 -0.6570 -0.8030 -1.0666
 3041TIP3    H130538   0.329   4.053  14.833 -0.8127 -2.7733  0.6781
 3041TIP3    H230539   0.446   4.020  14.743  0.0807 -1.2754  1.2410
 3042TIP3   OH230540   6.605   4.489  12.690  0.2056 -0.5030  0.0469
 3042TIP3    H130541   6.674   4.496  12.757 -0.1641  0.9985  0.3037
 3042TIP3    H230542   6.552   4.415  12.719  0.4298 -0.2826  1.0770
 3043TIP3   OH230543   5.188   4.745   1.402 -0.0427  0.1938 -0.3212
 3043TIP3    H130544   5.257   4.810   1.397 -0.2962  0.4642 -0.3433
 3043TIP3    H230545   5.184   4.707   1.314 -0.0170  0.2732 -0.3561
 3044TIP3   OH230546   5.684   4.935   2.655  0.7340  0.1784  0.1501
 3044TIP3    H130547   5.747   4.864   2.673 -0.2740 -0.6185  0.6233
 3044TIP3    H230548   5.730   4.992   2.593  1.0193 -1.6957 -1.4759
 3045TIP3   OH230549   4.440   4.247  11.432 -0.0635 -0.2068  0.8797
 3045TIP3    H130550   4.514   4.273  11.487 -0.3551  0.9630  0.7321
 3045TIP3    H230551   4.389   4.327  11.420 -1.5607 -1.0714  1.2682
 3046TIP3   OH230552   4.055   6.072   0.535  0.1284 -0.0697  0.1047
 3046TIP3    H130553   4.010   6.017   0.600 -0.8821  0.9916  0.3471
 3046TIP3    H230554   4.121   6.119   0.585  1.2614 -1.3082 -0.1725
 3047TIP3   OH230555   6.437   1.215  12.708  0.2638  0.2682 -0.0163
 3047TIP3    H130556   6.381   1.207  12.785  2.0557 -0.3982  1.2861
 3047TIP3    H230557   6.458   1.125  12.683 -0.9369  0.4355 -1.8443
 3048TIP3   OH230558   0.389   1.087   0.130 -0.1150  0.5660  0.7393
 3048TIP3    H130559   0.296   1.064   0.131  0.0190 -0.0330  2.3188
 3048TIP3    H230560   0.392   1.176   0.164 -0.1395  0.6830  0.4315
 3049TIP3   OH230561   2.719   1.205  12.780  0.5966  0.0674  0.3879
 3049TIP3    H130562   2.767   1.157  12.713 -1.5075  0.8245 -1.8191
 3049TIP3    H230563   2.671   1.137  12.827  0.9600 -0.3652  0.1487
 3050TIP3   OH230564   5.987   1.539   4.771 -0.0268  0.1311 -0.5022
 3050TIP3    H130565   5.911   1.528   4.827  0.6147 -1.0635  0.1568
 3050TIP3    H230566   6.011   1.631   4.782 -0.8506  0.3028 -0.0477
 3051TIP3   OH230567   0.052   4.342   2.939 -0.2823  0.0577 -0.3528
 3051TIP3    H130568  -0.028   4.298   2.911 -0.2223 -0.0622 -0.3374
 3051TIP3    H230569   0.067   4.408   2.872 -1.0185  0.8455  0.2480
 3052TIP3   OH230570   2.644   0.243   4.737 -0.1328  0.1391 -0.5621
 3052TIP3    H130571   2.678   0.209   4.820  0.4310  0.8269 -0.4980
 3052TIP3    H230572   2.666   0.336   4.738 -3.0208  0.9169 -0.0361
 3053TIP3   OH230573   3.452   0.276  16.354  0.4362 -0.0045  0.2011
 3053TIP3    H130574   3.453   0.337  16.280 -2.6658 -1.3857 -1.1565
 3053TIP3    H230575   3.378   0.219  16.337  0.8279 -1.7086  3.4138
 3054TIP3   OH230576   1.799   5.473   2.405 -0.1826  0.3294  0.3438
 3054TIP3    H130577   1.889   5.506   2.406  0.7017 -1.8047 -0.8934
 3054TIP3    H230578   1.752   5.534   2.347  0.9238  0.4333 -0.4720
 3055TIP3   OH230579   1.661   0.082   0.059  0.1250  0.1501 -0.0095
 3055TIP3    H130580   1.625   0.128   0.135  0.5160  3.0875 -1.4331
 3055TIP3    H230581   1.593   0.089  -0.007  0.5253 -0.6493 -0.5194
 3056TIP3   OH230582   4.388   0.186   3.861  0.1731  0.0836 -0.0211
 3056TIP3    H130583   4.303   0.200   3.819 -0.5319 -2.1819  0.5026
 3056TIP3    H230584   4.387   0.245   3.937 -0.1654  1.3530 -0.9756
 3057TIP3   OH230585   2.578   2.061  16.075  0.4608  0.0288 -0.2662
 3057TIP3    H130586   2.484   2.073  16.085  0.3389 -1.1500  0.2981
 3057TIP3    H230587   2.598   1.987  16.133  2.1652  1.8284  1.6276
 3058TIP3   OH230588   4.927   1.832   2.400  0.0999  0.6385  0.7881
 3058TIP3    H130589   4.973   1.759   2.439  1.2441  0.7053 -0.3797
 3058TIP3    H230590   4.840   1.797   2.379  0.3258 -0.1062  1.0583
 3059TIP3   OH230591   0.919   4.614   0.197 -0.0830  0.4574  0.3156
 3059TIP3    H130592   0.877   4.638   0.279 -1.9075 -0.1314 -0.4037
 3059TIP3    H230593   1.000   4.666   0.196  0.0833  0.3360  2.5336
 3060TIP3   OH230594   1.119   3.546   4.450  0.3461 -0.1522  0.1754
 3060TIP3    H130595   1.140   3.458   4.416  1.6769  0.4891 -0.7494
 3060TIP3    H230596   1.203   3.591   4.453 -0.2465  0.9210  1.1870
 3061TIP3   OH230597   2.407   0.952   5.945 -0.0104  0.8228  0.2389
 3061TIP3    H130598   2.360   0.876   5.980  1.7380 -0.6346 -0.3597
 3061TIP3    H230599   2.477   0.968   6.008  2.0795 -0.6935 -1.5284
 3062TIP3   OH230600   6.180   2.408  16.197 -0.2291  0.3402  0.2003
 3062TIP3    H130601   6.196   2.355  16.120  1.2212  0.0250  0.6974
 3062TIP3    H230602   6.138   2.488  16.163 -1.0519 -0.4584 -0.7081
 3063TIP3   OH230603   0.586   1.721  10.814 -0.2638  0.6384 -0.4870
 3063TIP3    H130604   0.504   1.730  10.862 -0.8399  0.7237 -1.4542
 3063TIP3    H230605   0.628   1.644  10.850 -0.9685  0.3592 -0.2595
 3064TIP3   OH230606   2.602   0.625   3.965  0.0612  0.5516  0.3185
 3064TIP3    H130607   2.682   0.606   3.915 -0.9995 -2.2295 -0.5403
 3064TIP3    H230608   2.613   0.575   4.046 -1.5082 -1.5212 -0.6347
 3065TIP3   OH230609   4.846   5.263   0.284  0.0917  0.3501 -0.0129
 3065TIP3    H130610   4.824   5.320   0.210 -1.6063 -0.6736 -0.3346
 3065TIP3    H230611   4.887   5.186   0.243 -1.3629 -0.4752  0.0034
 3066TIP3   OH230612   1.288   5.424   4.678  0.1496  0.0066  0.2197
 3066TIP3    H130613   1.358   5.361   4.696 -1.0859 -1.2942  0.6135
 3066TIP3    H230614   1.264   5.458   4.765 -0.6448 -0.6072  0.2511
 3067TIP3   OH230615   5.826   1.196  14.395  0.1841 -0.2437  0.6673
 3067TIP3    H130616   5.746   1.214  14.345 -0.6553  0.0633  2.0541
 3067TIP3    H230617   5.828   1.101  14.403 -1.1339 -0.1873  2.2450
 3068TIP3   OH230618   3.478   1.859  10.991 -0.3940  0.6431 -0.0601
 3068TIP3    H130619   3.512   1.802  10.923 -0.4154 -0.7766  1.0473
 3068TIP3    H230620   3.555   1.893  11.036 -0.3891  0.9811 -0.3228
 3069TIP3   OH230621   2.382   0.604   6.291  0.1648 -0.1847  0.8051
 3069TIP3    H130622   2.322   0.677   6.304 -1.0287 -0.6779 -1.3648
 3069TIP3    H230623   2.346   0.532   6.343 -0.0268  0.0946  1.0526
 3070TIP3   OH230624   4.916   3.712   3.792  0.1139 -0.1669 -0.4220
 3070TIP3    H130625   4.873   3.674   3.869 -1.4366 -0.5340 -1.4085
 3070TIP3    H230626   5.006   3.681   3.796 -0.0198 -0.4232  1.0728
 3071TIP3   OH230627   4.283   6.394  12.343  0.3054 -0.1328  0.7018
 3071TIP3    H130628   4.377   6.374  12.337  1.0295  2.4470  2.0842
 3071TIP3    H230629   4.254   6.400  12.252  2.0062  1.1240  0.1977
 3072TIP3   OH230630   6.084   3.570   6.024 -0.3693  0.1739 -0.4869
 3072TIP3    H130631   6.170   3.528   6.022 -0.0612  0.7920 -0.5205
 3072TIP3    H230632   6.042   3.543   5.943 -0.8369 -1.4084  0.2417
 3073TIP3   OH230633   5.117   3.963  16.207 -0.1662  0.6498 -0.0838
 3073TIP3    H130634   5.027   3.977  16.177  0.2481  0.7835 -1.3353
 3073TIP3    H230635   5.108   3.926  16.295 -1.5681 -3.0178 -1.5840
 3074TIP3   OH230636   2.175   5.753   3.466 -0.0878  0.0261 -0.5138
 3074TIP3    H130637   2.265   5.783   3.459 -0.0505 -0.0631 -0.4181
 3074TIP3    H230638   2.143   5.791   3.548  0.1746 -0.7567 -0.0407
 3075TIP3   OH230639   4.248   6.198  11.880  0.1809 -0.4561 -0.2579
 3075TIP3    H130640   4.281   6.116  11.918  0.3600  0.3784  1.4765
 3075TIP3    H230641   4.153   6.184  11.875 -0.0161 -0.1630  1.7261
 3076TIP3   OH230642   2.460   1.335   3.691  0.0452  1.0975 -0.0572
 3076TIP3    H130643   2.495   1.251   3.659  0.6739  1.2756  0.1441
 3076TIP3    H230644   2.534   1.376   3.736 -0.5759  1.2410  0.8777
 3077TIP3   OH230645   4.679   5.790   0.491  0.4739  0.4267 -0.2189
 3077TIP3    H130646   4.589   5.780   0.460  1.0439 -1.4045 -1.4276
 3077TIP3    H230647   4.720   5.849   0.427  0.2737  0.8478  0.0393
 3078TIP3   OH230648   6.659   5.437  15.097 -0.2750 -0.4728  0.3722
 3078TIP3    H130649   6.723   5.493  15.053 -1.6714  0.0228 -1.1356
 3078TIP3    H230650   6.702   5.352  15.104  0.9463  0.1329  0.4306
 3079TIP3   OH230651   2.463   3.155   2.339 -0.2290  0.3664 -0.3010
 3079TIP3    H130652   2.393   3.211   2.305 -2.9966 -2.1693  0.7122
 3079TIP3    H230653   2.499   3.204   2.413 -3.2921  0.5439  1.2485
 3080TIP3   OH230654   1.661   0.328   3.906 -0.6810 -0.0409 -0.7167
 3080TIP3    H130655   1.707   0.257   3.949 -1.3151  0.0991  0.2453
 3080TIP3    H230656   1.638   0.388   3.978 -0.5563  0.8997 -1.4436
 3081TIP3   OH230657   6.153   0.096   3.041 -0.1959  0.1458 -0.7361
 3081TIP3    H130658   6.153   0.015   2.989  0.5236 -0.6884  0.5242
 3081TIP3    H230659   6.245   0.120   3.047 -0.2524  0.1307  0.2942
 3082TIP3   OH230660   0.609   1.798   4.327  0.3020 -0.5060  0.0964
 3082TIP3    H130661   0.548   1.802   4.253  2.3070  1.1944 -1.6130
 3082TIP3    H230662   0.631   1.705   4.335 -2.8816 -1.2808  1.2182
 3083TIP3   OH230663   5.076   3.970   4.281  0.3170 -0.0598 -0.1368
 3083TIP3    H130664   5.137   3.897   4.291 -1.1371 -1.2499  0.3758
 3083TIP3    H230665   5.128   4.039   4.240  1.5127 -1.6733 -1.4773
 3084TIP3   OH230666   3.233   3.261  13.739 -0.0320  0.0092  0.3793
 3084TIP3    H130667   3.172   3.210  13.792  1.3811 -2.5567 -0.3120
 3084TIP3    H230668   3.183   3.284  13.661 -0.5932 -0.6537  0.5295
 3085TIP3   OH230669   2.665   4.527   4.682  0.1946  0.3443  0.2631
 3085TIP3    H130670   2.630   4.497   4.597  0.0823 -2.9074  1.3138
 3085TIP3    H230671   2.669   4.622   4.674 -0.1465  0.2062 -3.2555
 3086TIP3   OH230672   1.373   5.723  15.148  0.0084 -0.2293  0.3900
 3086TIP3    H130673   1.458   5.689  15.176  0.6745  0.7984 -0.3307
 3086TIP3    H230674   1.381   5.733  15.054 -0.2423  1.6444  0.5381
 3087TIP3   OH230675   5.577   6.317   4.374  0.1875 -0.2232 -0.2043
 3087TIP3    H130676   5.513   6.252   4.404  0.7751 -0.8431 -0.2676
 3087TIP3    H230677   5.567   6.318   4.279  0.4109 -0.4800 -0.2336
 3088TIP3   OH230678   0.721   5.616   2.752  0.2457 -1.1280 -0.1898
 3088TIP3    H130679   0.814   5.638   2.745  0.1295 -0.8239 -0.8436
 3088TIP3    H230680   0.678   5.674   2.689 -0.4062 -1.1480  0.2268
 3089TIP3   OH230681   2.309   1.698   4.240 -0.2025  0.1327 -0.0985
 3089TIP3    H130682   2.312   1.779   4.190 -1.6472 -0.3943 -1.0956
 3089TIP3    H230683   2.228   1.656   4.213  0.7410 -1.8840  0.0374
 3090TIP3   OH230684   0.927   1.196   3.517  0.4771 -0.8849 -0.3699
 3090TIP3    H130685   0.899   1.283   3.487  3.8080  0.9807  1.3561
 3090TIP3    H230686   0.859   1.170   3.580 -0.4913  0.5351 -0.7756
 3091TIP3   OH230687   1.215   5.646   4.291  0.1473 -0.3759  0.1482
 3091TIP3    H130688   1.292   5.701   4.277  0.7532 -1.2769 -0.1575
 3091TIP3    H230689   1.205   5.644   4.386  0.0461  0.3492  0.1570
 3092TIP3   OH230690   1.993   0.398   1.042  0.4889  0.1232  0.3516
 3092TIP3    H130691   1.999   0.474   1.100 -1.2941  0.2779  0.3898
 3092TIP3    H230692   1.944   0.333   1.092  1.1459 -0.7041 -0.0507
 3093TIP3   OH230693   2.937   2.159  12.772  0.3370 -0.3769  0.5421
 3093TIP3    H130694   2.916   2.228  12.836  0.0183 -1.1739  1.3152
 3093TIP3    H230695   2.856   2.145  12.724  1.0277  1.4683 -1.3091
 3094TIP3   OH230696   0.754   4.603   5.851  0.6063  0.3208 -0.6922
 3094TIP3    H130697   0.813   4.544   5.804 -2.8920 -1.8399 -2.7973
 3094TIP3    H230698   0.696   4.544   5.900 -1.0194  2.1891 -0.2516
 3095TIP3   OH230699   5.463   5.327   1.164 -0.4955  0.0666 -0.4520
 3095TIP3    H130700   5.378   5.372   1.170 -0.6429  0.1580 -2.5342
 3095TIP3    H230701   5.468   5.275   1.245 -2.8755 -0.5030 -0.5822
 3096TIP3   OH230702   4.940   4.330   3.918  0.2544 -0.0453 -0.7179
 3096TIP3    H130703   5.035   4.333   3.925  0.1491  0.1177  1.0457
 3096TIP3    H230704   4.911   4.418   3.943 -0.3534  0.0461 -1.6844
 3097TIP3   OH230705   2.834   2.226  11.463 -0.2761 -0.0561  0.4363
 3097TIP3    H130706   2.895   2.290  11.499 -0.2409 -0.1447  0.5327
 3097TIP3    H230707   2.887   2.147  11.451 -0.3987 -0.1671  0.6254
 3098TIP3   OH230708   1.335   0.715  13.123  0.3381 -0.0511  0.6115
 3098TIP3    H130709   1.245   0.746  13.125  1.1322  2.4263  1.5951
 3098TIP3    H230710   1.359   0.714  13.030 -1.0014 -1.8786  0.2348
 3099TIP3   OH230711   6.695   0.926  17.002 -0.1418 -0.4361 -0.0731
 3099TIP3    H130712   6.617   0.872  17.011 -0.1958 -0.1646  1.2882
 3099TIP3    H230713   6.662   1.014  16.984 -0.1292 -0.4035  0.0671
 3100TIP3   OH230714   1.131   5.085   1.227  0.1814 -0.1325 -0.6017
 3100TIP3    H130715   1.127   5.165   1.279 -0.9444 -0.0863 -0.7284
 3100TIP3    H230716   1.188   5.107   1.153 -1.2430  1.0355 -1.4109
 3101TIP3   OH230717   5.402   5.639  13.834 -0.1959  0.4559  0.0168
 3101TIP3    H130718   5.418   5.728  13.803 -0.3806  1.2747  2.1053
 3101TIP3    H230719   5.489   5.599  13.841 -0.0024  0.9168  0.2701
 3102TIP3   OH230720   0.332   2.872  16.736 -0.1791  0.4535  0.1670
 3102TIP3    H130721   0.275   2.796  16.746 -0.3556  0.7361  1.5011
 3102TIP3    H230722   0.416   2.836  16.708 -0.2691 -0.2220  0.7433
 3103TIP3   OH230723   5.367   0.903  13.239  0.0534  0.1341  0.0275
 3103TIP3    H130724   5.275   0.913  13.265 -0.0654  0.7941 -0.6412
 3103TIP3    H230725   5.408   0.987  13.261  0.6844 -0.4033  1.0153
 3104TIP3   OH230726   5.116   5.541  16.809  0.1552  0.5112  0.0799
 3104TIP3    H130727   5.115   5.447  16.826  2.0614  0.2187 -1.1558
 3104TIP3    H230728   5.184   5.553  16.744 -1.3029  2.5428 -1.1985
 3105TIP3   OH230729   0.101   4.605  11.879  0.0104 -0.5188  0.6069
 3105TIP3    H130730   0.140   4.610  11.966  1.4190  1.9837 -0.0621
 3105TIP3    H230731   0.141   4.677  11.830 -0.0349 -2.3574 -2.4192
 3106TIP3   OH230732   0.032   1.990  12.936  0.8669  0.6108 -0.4691
 3106TIP3    H130733   0.081   2.073  12.934  1.4923  0.2414 -0.9465
 3106TIP3    H230734  -0.038   2.002  12.872  0.0241  1.3189  0.5610
 3107TIP3   OH230735   3.099   3.769  12.944  0.9364  0.1502 -0.1875
 3107TIP3    H130736   3.057   3.784  13.029  1.3838 -0.5107  0.1577
 3107TIP3    H230737   3.071   3.844  12.891 -0.3746 -0.0796  0.1405
 3108TIP3   OH230738   2.153   5.206  12.890 -0.2396 -0.0387  0.0228
 3108TIP3    H130739   2.247   5.196  12.907 -0.4417 -0.2778  1.0394
 3108TIP3    H230740   2.133   5.140  12.823  0.3988  0.3241 -0.5377
 3109TIP3   OH230741   3.497   0.645   5.895  0.4391  0.1731  0.0997
 3109TIP3    H130742   3.560   0.708   5.860 -0.7413  1.0668 -0.4779
 3109TIP3    H230743   3.412   0.687   5.884 -0.1933 -0.5363  1.8589
 3110TIP3   OH230744   1.529   4.120   0.915 -0.5132  0.1615 -0.3657
 3110TIP3    H130745   1.497   4.157   0.997 -1.5189 -0.3291 -0.5280
 3110TIP3    H230746   1.485   4.171   0.847  1.0713  1.2423 -0.6469
 3111TIP3   OH230747   3.077   5.533  14.231 -0.1445  0.4475  0.2766
 3111TIP3    H130748   3.005   5.491  14.277  1.3227 -1.3540  1.0814
 3111TIP3    H230749   3.059   5.519  14.139 -0.2890 -0.9774  0.5006
 3112TIP3   OH230750   1.366   6.096   1.056  0.0432  0.8565  0.3442
 3112TIP3    H130751   1.455   6.112   1.025  0.1164 -2.6443 -1.7567
 3112TIP3    H230752   1.375   6.027   1.122 -1.0749  0.5353  0.1930
 3113TIP3   OH230753   4.176   4.969   3.190  0.4115  0.3270  0.1457
 3113TIP3    H130754   4.094   4.975   3.239  0.2140 -0.9756  0.0003
 3113TIP3    H230755   4.153   4.999   3.102 -0.6060 -2.5350 -0.6455
 3114TIP3   OH230756   1.685   4.233   3.221 -1.0013  0.9834  0.4637
 3114TIP3    H130757   1.705   4.248   3.128 -0.7440 -1.3885  0.0659
 3114TIP3    H230758   1.747   4.289   3.268  0.2001  0.7953 -0.8126
 3115TIP3   OH230759   3.831   5.110   2.843 -0.4643 -0.6103  0.5296
 3115TIP3    H130760   3.845   5.020   2.872  1.0838 -0.2114  1.0766
 3115TIP3    H230761   3.735   5.118   2.836 -0.5993 -2.4366 -0.0400
 3116TIP3   OH230762   1.690   6.560  11.048  0.5381  0.2193  0.4893
 3116TIP3    H130763   1.661   6.513  10.969  1.9568  2.2805 -1.3811
 3116TIP3    H230764   1.785   6.560  11.043  0.6266  1.5706  1.4529
 3117TIP3   OH230765   2.363   2.681   3.824 -0.2279 -0.3251  0.7579
 3117TIP3    H130766   2.329   2.752   3.879 -2.2707 -0.6699  0.0466
 3117TIP3    H230767   2.286   2.628   3.804  1.0222 -2.0184  0.1909
 3118TIP3   OH230768   4.034   6.763  15.730 -0.0278  0.2016 -0.6575
 3118TIP3    H130769   4.024   6.777  15.636  0.0458 -0.9073 -0.8441
 3118TIP3    H230770   3.948   6.733  15.759  0.6591 -2.2228 -0.9176
 3119TIP3   OH230771   6.367   2.803  10.518  0.2730 -0.3203 -0.2499
 3119TIP3    H130772   6.342   2.744  10.448 -1.5115 -0.7331  0.6524
 3119TIP3    H230773   6.369   2.890  10.477  1.5832 -0.8164 -1.2832
 3120TIP3   OH230774   1.409   5.958   2.567  0.2549  0.2519  0.1112
 3120TIP3    H130775   1.485   6.012   2.546  1.6504 -0.2313  3.3400
 3120TIP3    H230776   1.334   6.009   2.537  1.7386  1.5670 -1.5698
 3121TIP3   OH230777   5.363   6.069  11.692  0.1675  0.1856 -0.0045
 3121TIP3    H130778   5.394   5.994  11.639  0.1820  0.6954 -0.7389
 3121TIP3    H230779   5.434   6.134  11.684  0.0066  0.4050  0.3540
 3122TIP3   OH230780   5.763   5.840   3.147  0.0770  0.0568 -0.0789
 3122TIP3    H130781   5.838   5.801   3.192  2.6922  0.8436 -3.3634
 3122TIP3    H230782   5.771   5.934   3.166  0.3778  0.2222 -0.9642
 3123TIP3   OH230783   4.581   0.962  16.858 -0.6871  0.1905  0.1267
 3123TIP3    H130784   4.636   0.964  16.780 -0.5598  0.2278  0.2175
 3123TIP3    H230785   4.534   0.879  16.852 -0.2011 -0.1016  0.3421
 3124TIP3   OH230786   1.891   1.936  14.093 -0.0154  0.3032  0.2874
 3124TIP3    H130787   1.841   1.855  14.104 -1.4205  0.8744 -1.3812
 3124TIP3    H230788   1.976   1.907  14.058  0.4136 -0.5866  1.9645
 3125TIP3   OH230789   1.063   0.006   0.077  0.6188  0.7582  0.3226
 3125TIP3    H130790   1.077   0.051   0.160  4.8472 -0.5730  0.5996
 3125TIP3    H230791   1.054   0.076   0.013  0.3471  1.8676  1.5202
 3126TIP3   OH230792   6.044   1.461  16.883 -0.4483  0.2638  0.6949
 3126TIP3    H130793   6.128   1.435  16.920 -1.1149 -0.8786  1.4748
 3126TIP3    H230794   5.981   1.446  16.954 -1.6053 -0.9015 -0.5119
 3127TIP3   OH230795   4.655   2.291   0.477 -0.1848  0.4799  0.4281
 3127TIP3    H130796   4.645   2.345   0.556  1.4027  0.9282  0.3457
 3127TIP3    H230797   4.748   2.297   0.455 -0.5046 -0.0538 -1.1968
 3128TIP3   OH230798   0.019   4.290   2.368 -0.2371 -0.0440  0.5433
 3128TIP3    H130799   0.059   4.223   2.423  0.4148  0.3756  0.5859
 3128TIP3    H230800  -0.062   4.250   2.337 -0.2526 -0.5554  1.2148
 3129TIP3   OH230801   5.529   1.402  15.287  0.1897 -0.1083  0.0728
 3129TIP3    H130802   5.543   1.432  15.197 -1.1865  1.7706  0.4250
 3129TIP3    H230803   5.460   1.459  15.321 -0.3157 -1.6934  1.8831
 3130TIP3   OH230804   6.221   5.853  14.600 -0.4692  0.0967  0.1225
 3130TIP3    H130805   6.138   5.898  14.586 -0.8214 -0.6224 -0.1868
 3130TIP3    H230806   6.288   5.922  14.596 -1.0299  0.6453  0.1462
 3131TIP3   OH230807   3.165   1.922   4.834  0.1159  0.0819  0.2938
 3131TIP3    H130808   3.115   1.867   4.894  0.7704 -0.3110  0.4918
 3131TIP3    H230809   3.253   1.885   4.835  0.8018  1.6347  1.0814
 3132TIP3   OH230810   3.786   5.285   2.488 -0.5407 -0.4941  0.1845
 3132TIP3    H130811   3.800   5.259   2.397  0.3871  0.1108  0.1420
 3132TIP3    H230812   3.730   5.216   2.524 -0.5083 -1.0017 -0.7028
 3133TIP3   OH230813   1.833   2.524   0.704  0.2093 -0.0361  0.6663
 3133TIP3    H130814   1.842   2.614   0.673  0.8309 -0.1823  0.3949
 3133TIP3    H230815   1.739   2.511   0.714  0.0917  0.5157  0.3197
 3134TIP3   OH230816   0.948   4.399  16.457  0.6784 -0.5944  0.0350
 3134TIP3    H130817   1.002   4.329  16.493 -2.8171 -2.8493  1.4406
 3134TIP3    H230818   0.884   4.354  16.400 -1.5887  1.3918  0.8142
 3135TIP3   OH230819   1.504   0.912   3.081 -0.1345  0.2240 -0.9581
 3135TIP3    H130820   1.554   0.831   3.069  1.8175  0.5401  3.2066
 3135TIP3    H230821   1.428   0.886   3.133 -0.7664  0.7803 -1.5741
 3136TIP3   OH230822   4.950   2.300  16.845 -0.3099  0.7030 -0.4386
 3136TIP3    H130823   4.862   2.308  16.882 -1.0439  2.3736 -2.3462
 3136TIP3    H230824   4.987   2.222  16.887 -2.7808 -0.1930  0.2374
 3137TIP3   OH230825   5.977   6.509   0.814 -0.2534  0.1500 -0.3706
 3137TIP3    H130826   5.957   6.601   0.829 -0.2680 -0.0417  0.8415
 3137TIP3    H230827   6.015   6.507   0.726  0.0535  1.3526 -0.2758
 3138TIP3   OH230828   2.380   1.461   1.295 -0.1591 -0.2761  0.0855
 3138TIP3    H130829   2.327   1.498   1.366 -0.5876  2.5225 -1.5267
 3138TIP3    H230830   2.441   1.402   1.338 -3.3478 -2.3124  2.2485
 3139TIP3   OH230831   4.609   2.722  14.888 -0.0322 -0.3260 -0.2238
 3139TIP3    H130832   4.612   2.633  14.921  1.4924  0.4797  2.0453
 3139TIP3    H230833   4.690   2.733  14.839  0.0038 -0.0546 -0.1081
 3140TIP3   OH230834   3.430   3.098   2.252  0.1432  0.2890 -0.3512
 3140TIP3    H130835   3.365   3.027   2.257  1.3234 -0.7702  3.6055
 3140TIP3    H230836   3.384   3.175   2.284  0.2948 -0.0128  0.6152
 3141TIP3   OH230837   0.277   1.548  16.385 -0.1993 -0.0399 -0.0697
 3141TIP3    H130838   0.292   1.561  16.292  1.5100  1.8925  0.3889
 3141TIP3    H230839   0.339   1.480  16.411  0.6861  0.7679 -0.0239
 3142TIP3   OH230840   0.318   6.538   1.670  0.1806 -0.1195 -0.4354
 3142TIP3    H130841   0.406   6.539   1.631 -0.4008  0.3980 -1.8038
 3142TIP3    H230842   0.331   6.506   1.759  1.4443 -2.7088 -1.4445
 3143TIP3   OH230843   5.595   5.302  15.964  0.3560  0.1897  0.3871
 3143TIP3    H130844   5.543   5.367  16.012  1.4318 -0.2723  2.2778
 3143TIP3    H230845   5.531   5.236  15.937 -0.4132  0.9124  0.4047
 3144TIP3   OH230846   1.616   4.399  16.281 -0.2903 -0.2701 -0.1911
 3144TIP3    H130847   1.687   4.378  16.342 -0.3558  0.0614 -0.0018
 3144TIP3    H230848   1.536   4.373  16.328 -0.2019 -3.0062 -1.3361
 3145TIP3   OH230849   3.822   3.557  12.689  0.0978  0.5473 -0.0906
 3145TIP3    H130850   3.823   3.645  12.649 -2.0490 -0.2188 -2.0267
 3145TIP3    H230851   3.730   3.536  12.700  0.5917 -0.9161  1.7421
 3146TIP3   OH230852   6.489   1.845  16.939 -0.3374 -1.1206  0.2954
 3146TIP3    H130853   6.489   1.778  16.870 -2.7495 -0.8017 -0.1051
 3146TIP3    H230854   6.422   1.815  17.001 -0.8573  0.4769  0.5433
 3147TIP3   OH230855   0.553   4.447  11.556 -0.2753  0.2088 -0.5509
 3147TIP3    H130856   0.634   4.420  11.514  0.4854 -2.6518  2.3355
 3147TIP3    H230857   0.484   4.407  11.503  0.5230 -1.4270 -0.4175
 3148TIP3   OH230858   3.191   4.435   4.028  0.1544 -0.2824  0.3857
 3148TIP3    H130859   3.264   4.474   3.980  0.2185 -1.1741 -0.2591
 3148TIP3    H230860   3.224   4.352   4.061 -0.0609  0.0697  1.5443
 3149TIP3   OH230861   6.319   5.708   1.085 -0.0926 -0.5026  0.0776
 3149TIP3    H130862   6.385   5.777   1.085  0.9684 -1.5032  0.0491
 3149TIP3    H230863   6.368   5.627   1.096 -1.4507 -1.1327  2.0105
 3150TIP3   OH230864   1.518   0.440  10.468 -0.1222 -0.6463 -0.2585
 3150TIP3    H130865   1.601   0.476  10.436 -0.0691 -0.4478  0.0909
 3150TIP3    H230866   1.463   0.517  10.484 -0.3936 -0.7815 -0.5380
 3151TIP3   OH230867   5.510   1.477  16.295 -0.0950  0.9583  0.2181
 3151TIP3    H130868   5.560   1.557  16.311 -1.7902  2.0524  0.3020
 3151TIP3    H230869   5.458   1.466  16.375 -1.7314  1.2038 -0.7865
 3152TIP3   OH230870   4.368   4.001  13.840 -0.1566  0.0836  0.7098
 3152TIP3    H130871   4.276   3.996  13.865 -0.5891  0.5319 -0.7353
 3152TIP3    H230872   4.371   3.968  13.750  1.3978 -1.7519  1.3624
 3153TIP3   OH230873   6.530   2.857  10.772 -0.3318  0.7465 -0.1043
 3153TIP3    H130874   6.496   2.827  10.688  0.7907 -1.1834  0.0935
 3153TIP3    H230875   6.590   2.928  10.749 -0.6784  0.8123 -0.8501
 3154TIP3   OH230876   4.663   0.107  11.498  0.0074 -0.2643  0.7917
 3154TIP3    H130877   4.742   0.136  11.543  0.2895 -0.1990  0.2590
 3154TIP3    H230878   4.686   0.022  11.461  1.0670  1.2992 -2.4570
 3155TIP3   OH230879   1.247   0.310   1.181 -0.1269  0.0219  0.4442
 3155TIP3    H130880   1.333   0.302   1.139 -0.6110  0.9235 -0.7646
 3155TIP3    H230881   1.185   0.292   1.111 -0.9439  0.5294  1.0255
 3156TIP3   OH230882   6.447   1.379   2.375  0.4644 -0.1188 -0.2185
 3156TIP3    H130883   6.482   1.366   2.286  0.2160  0.4732 -0.4057
 3156TIP3    H230884   6.485   1.307   2.425  0.7986 -0.3285 -0.7499
 3157TIP3   OH230885   4.031   5.869   1.708  0.0259 -0.1226 -0.0490
 3157TIP3    H130886   4.002   5.858   1.798  2.1394  0.3786  0.7470
 3157TIP3    H230887   4.050   5.963   1.701  0.3633 -0.2471 -0.8647
 3158TIP3   OH230888   2.615   5.529   2.179  0.2227 -0.0909  0.2409
 3158TIP3    H130889   2.552   5.475   2.133  0.0103 -0.8407  1.3699
 3158TIP3    H230890   2.597   5.618   2.149  0.1115 -0.5416 -1.1074
 3159TIP3   OH230891   2.655   2.101   5.890 -0.4947  0.6409 -0.3877
 3159TIP3    H130892   2.642   2.038   5.819 -0.2860  0.3704 -0.1859
 3159TIP3    H230893   2.588   2.078   5.955  0.5428 -0.3547  0.3722
 3160TIP3   OH230894   6.251   3.698   1.456 -0.1562  0.2080  1.0778
 3160TIP3    H130895   6.181   3.635   1.478  1.6138 -1.0821  3.5034
 3160TIP3    H230896   6.313   3.647   1.405 -0.3124  0.9746  0.1037
 3161TIP3   OH230897   3.157   5.725   4.405 -0.1220  0.0518 -0.5250
 3161TIP3    H130898   3.248   5.737   4.432 -0.5884  0.5348  0.9347
 3161TIP3    H230899   3.110   5.707   4.486 -1.3433 -0.1472 -1.2486
 3162TIP3   OH230900   5.688   4.188  12.317  0.0016 -0.3143  0.3097
 3162TIP3    H130901   5.632   4.142  12.380 -2.7677  2.8099  0.3824
 3162TIP3    H230902   5.653   4.165  12.232 -1.4511  1.4953  0.3482
 3163TIP3   OH230903   2.518   4.386   6.213  0.1304 -0.4859  0.1255
 3163TIP3    H130904   2.548   4.368   6.302 -0.9166  0.1675  0.6205
 3163TIP3    H230905   2.537   4.305   6.165  1.3143 -0.6160  0.7603
 3164TIP3   OH230906   6.518   6.727  11.565 -0.0239  0.2194  0.8709
 3164TIP3    H130907   6.593   6.752  11.511  1.2632  0.2172  2.5615
 3164TIP3    H230908   6.489   6.644  11.527 -0.0585  0.8956 -0.6525
 3165TIP3   OH230909   4.302   1.075  11.922 -0.3106 -0.0473  0.0639
 3165TIP3    H130910   4.389   1.112  11.936 -0.0536 -0.6577  0.1063
 3165TIP3    H230911   4.313   1.012  11.851 -0.5969 -0.5332  0.4348
 3166TIP3   OH230912   3.594   4.378   1.514  0.0895  0.2875 -0.1635
 3166TIP3    H130913   3.660   4.447   1.510 -0.3231  0.8142  1.4241
 3166TIP3    H230914   3.514   4.423   1.542 -0.9041 -0.3909 -1.7533
 3167TIP3   OH230915   1.954   3.025   0.179 -0.1550  0.0113 -0.3255
 3167TIP3    H130916   2.000   3.109   0.180  0.6925 -0.4298 -0.7540
 3167TIP3    H230917   1.897   3.027   0.256  0.6830  0.5290  0.2917
 3168TIP3   OH230918   5.709   0.214  14.309  0.2535  0.0826  0.4597
 3168TIP3    H130919   5.745   0.190  14.223  0.7104  1.0313  0.3746
 3168TIP3    H230920   5.683   0.130  14.348 -2.1028 -0.2115 -1.5297
 3169TIP3   OH230921   2.883   0.918   4.104 -0.1482  0.1514 -0.2537
 3169TIP3    H130922   2.806   0.882   4.148  1.1137 -0.4182  1.6286
 3169TIP3    H230923   2.932   0.842   4.075 -0.4544  0.5167 -1.7889
 3170TIP3   OH230924   6.701   4.782   1.367 -0.4485 -0.9640 -0.3282
 3170TIP3    H130925   6.703   4.875   1.343  0.7112 -1.1408 -0.9934
 3170TIP3    H230926   6.620   4.748   1.328  0.3301 -0.7695 -2.2182
 3171TIP3   OH230927   5.290   5.143   1.973  0.2226 -0.2119  0.5350
 3171TIP3    H130928   5.254   5.228   1.995 -0.2225  0.1995 -1.5868
 3171TIP3    H230929   5.367   5.134   2.030 -0.3156  1.1119  1.5250
 3172TIP3   OH230930   4.925   2.280   0.518  0.1409  0.0775 -0.3908
 3172TIP3    H130931   4.979   2.209   0.483  1.0054  0.8073 -0.5717
 3172TIP3    H230932   4.875   2.240   0.589 -1.0144 -1.2387 -1.8609
 3173TIP3   OH230933   6.098   5.418   0.489 -0.1350  0.0578  0.5608
 3173TIP3    H130934   6.094   5.384   0.400  0.6268  1.0547  0.1245
 3173TIP3    H230935   6.006   5.422   0.518 -0.5026  0.9112 -0.6516
 3174TIP3   OH230936   6.468   0.531  14.598 -0.0105  0.3456 -0.1229
 3174TIP3    H130937   6.428   0.507  14.515 -0.1991  0.2437 -0.0051
 3174TIP3    H230938   6.528   0.460  14.618  0.2831  0.5331 -0.3355
 3175TIP3   OH230939   6.522   1.921   5.059  0.0639  0.0505 -0.4654
 3175TIP3    H130940   6.575   1.957   5.130 -0.2365 -0.9986  0.3113
 3175TIP3    H230941   6.548   1.829   5.054 -0.3438 -0.0261 -1.3241
 3176TIP3   OH230942   4.411   2.799  13.666  0.5337  0.1152 -0.4645
 3176TIP3    H130943   4.485   2.782  13.607  0.4012 -0.2560 -0.5262
 3176TIP3    H230944   4.407   2.894  13.672 -0.6397  0.2633 -2.5680
 3177TIP3   OH230945   0.681   5.481   1.467  0.0252  0.2105 -0.4302
 3177TIP3    H130946   0.704   5.454   1.556 -0.0717 -0.6479 -0.6543
 3177TIP3    H230947   0.625   5.557   1.479  0.4152  0.4079  0.2247
 3178TIP3   OH230948   1.227   5.980   3.344  0.2073  0.1409 -0.7999
 3178TIP3    H130949   1.248   5.897   3.387 -2.3951 -1.0557 -1.6588
 3178TIP3    H230950   1.157   6.018   3.396 -0.0870  0.7680 -1.6250
 3179TIP3   OH230951   2.729   0.802   0.351  0.0277  0.2342  0.3523
 3179TIP3    H130952   2.686   0.771   0.430  1.2393 -0.9195  0.6112
 3179TIP3    H230953   2.808   0.748   0.344  0.7431  1.3605 -0.8080
 3180TIP3   OH230954   4.487   1.806  16.895 -0.1652 -0.3195  0.2617
 3180TIP3    H130955   4.485   1.711  16.881  0.1510 -0.4992  1.3477
 3180TIP3    H230956   4.575   1.832  16.868  0.2874 -0.5955  1.3976
 3181TIP3   OH230957   1.398   0.448  10.877 -0.3574  0.2264 -0.2230
 3181TIP3    H130958   1.469   0.508  10.856 -0.5315 -0.3314 -2.7446
 3181TIP3    H230959   1.366   0.477  10.963  1.9032  1.4091  0.2904
 3182TIP3   OH230960   0.875   2.966  13.620 -0.2412  0.8037 -0.1728
 3182TIP3    H130961   0.879   2.993  13.712 -0.7023 -0.0480  0.1170
 3182TIP3    H230962   0.933   3.026  13.574 -1.4026  2.4093  0.3809
 3183TIP3   OH230963   5.500   1.914  14.998  0.3200  0.4715 -0.1712
 3183TIP3    H130964   5.521   1.826  14.965 -0.0735 -0.3305  1.5923
 3183TIP3    H230965   5.474   1.900  15.089 -0.9420  2.2836 -0.1958
 3184TIP3   OH230966   3.501   5.735   1.844 -0.8628 -0.2537 -0.3862
 3184TIP3    H130967   3.433   5.696   1.900 -1.6866  0.9546 -0.4911
 3184TIP3    H230968   3.483   5.829   1.848 -0.7614 -0.1085 -2.4456
 3185TIP3   OH230969   3.791   6.075  11.730  0.2704 -0.5792  0.1105
 3185TIP3    H130970   3.735   6.122  11.668 -0.3607 -1.7261 -0.2261
 3185TIP3    H230971   3.735   6.004  11.763  1.5482 -1.8312 -0.3163
 3186TIP3   OH230972   5.739   6.118   4.019 -0.3726 -0.1763 -0.4346
 3186TIP3    H130973   5.765   6.137   4.109 -0.5556  0.8172 -0.5779
 3186TIP3    H230974   5.749   6.202   3.973 -0.8649 -0.5246 -1.1959
 3187TIP3   OH230975   0.654   6.544  11.110 -0.0191 -0.4577  0.5115
 3187TIP3    H130976   0.592   6.556  11.182  0.7999 -1.2158  1.3726
 3187TIP3    H230977   0.609   6.486  11.049 -0.0830 -1.1783  1.2327
 3188TIP3   OH230978   5.918   5.821   1.467  0.0471  0.3468 -0.0564
 3188TIP3    H130979   5.997   5.846   1.516  0.5497 -0.1150 -0.6142
 3188TIP3    H230980   5.871   5.904   1.455  1.9277  1.2291 -2.3007
 3189TIP3   OH230981   3.143   3.031  11.509  0.1901 -0.1544  0.7147
 3189TIP3    H130982   3.190   3.004  11.430 -1.0753 -0.5040  0.0498
 3189TIP3    H230983   3.064   2.977  11.510 -0.2803  0.5151  1.7062
 3190TIP3   OH230984   2.450   3.877  10.877  0.1135 -0.1422  0.9091
 3190TIP3    H130985   2.513   3.949  10.887 -0.1993  0.0378  1.6202
 3190TIP3    H230986   2.503   3.798  10.876  0.3957  0.0468  0.9224
 3191TIP3   OH230987   4.695   2.230   4.453 -0.2862  0.5009  0.5050
 3191TIP3    H130988   4.671   2.282   4.530  1.7504  0.2823  1.3315
 3191TIP3    H230989   4.666   2.141   4.475 -0.2354  0.5467  0.7583
 3192TIP3   OH230990   0.067   0.804  13.270 -0.1707  0.0494 -0.8044
 3192TIP3    H130991   0.060   0.834  13.361  0.8845 -1.9199 -0.0310
 3192TIP3    H230992   0.008   0.729  13.265  1.0104 -0.8682 -1.2817
 3193TIP3   OH230993   6.487   3.431   2.992 -0.3545 -1.2158  0.2308
 3193TIP3    H130994   6.465   3.360   2.931 -2.0786 -2.2025  1.8989
 3193TIP3    H230995   6.549   3.391   3.053  1.6923 -0.1146 -1.0076
 3194TIP3   OH230996   1.689   4.619   2.485 -0.2172  0.7775  0.2372
 3194TIP3    H130997   1.745   4.611   2.562 -1.9523  1.2882  1.6300
 3194TIP3    H230998   1.696   4.534   2.440  1.0719  0.5951  0.7648
 3195TIP3   OH230999   4.485   3.131   1.716 -0.3431 -0.4851 -0.2065
 3195TIP3    H131000   4.476   3.046   1.759 -0.5333 -1.4096 -1.9899
 3195TIP3    H231001   4.548   3.179   1.770  1.3960 -2.5238 -0.2966
 3196TIP3   OH231002   6.819   3.564  12.082 -0.5494  0.1374 -0.2929
 3196TIP3    H131003   6.725   3.579  12.085 -0.7895 -1.1248  3.0336
 3196TIP3    H231004   6.857   3.639  12.126 -0.3131 -0.7090  1.0128
 3197TIP3   OH231005   4.051   2.117  14.660 -0.5180  0.0827  0.6408
 3197TIP3    H131006   3.960   2.091  14.643 -1.0043  1.5638  0.8014
 3197TIP3    H231007   4.095   2.108  14.576 -1.1418  0.5865  0.2507
 3198TIP3   OH231008   6.301   3.009  14.862 -0.3093  0.3159  0.0470
 3198TIP3    H131009   6.223   2.985  14.811 -0.4729  0.8180  0.0559
 3198TIP3    H231010   6.373   3.003  14.799 -0.4460  0.4804 -0.1271
 3199TIP3   OH231011   4.705   1.101   0.916  0.6596  0.6313 -0.5000
 3199TIP3    H131012   4.735   1.010   0.907  1.0975  0.7833 -0.6115
 3199TIP3    H231013   4.640   1.112   0.846 -0.2468  0.0653  0.2328
 3200TIP3   OH231014   2.567   1.944  13.016  0.4414 -0.3502  0.0498
 3200TIP3    H131015   2.652   1.906  12.993  0.6407  1.4825 -2.7598
 3200TIP3    H231016   2.555   1.923  13.109  4.5892  0.4506  0.9517
 3201TIP3   OH231017   2.357   2.142   0.833  0.1977 -0.2062  0.3733
 3201TIP3    H131018   2.416   2.068   0.849 -0.7924 -1.2950 -0.7345
 3201TIP3    H231019   2.302   2.112   0.761 -1.6165  0.8226  1.2748
 3202TIP3   OH231020   3.987   3.510  11.266  0.4623  0.0395 -0.0695
 3202TIP3    H131021   4.082   3.509  11.269  0.4404 -0.4798  0.8282
 3202TIP3    H231022   3.965   3.587  11.213  1.3152  2.1021  2.3952
 3203TIP3   OH231023   3.994   6.397   3.578  0.3189 -0.3320  0.3641
 3203TIP3    H131024   4.050   6.473   3.566  0.0702 -0.4252 -1.5778
 3203TIP3    H231025   4.050   6.333   3.623  1.6070 -0.2308 -1.0439
 3204TIP3   OH231026   3.908   5.680  15.852 -0.1277 -0.4179 -0.4356
 3204TIP3    H131027   3.841   5.747  15.866 -0.4744 -0.7775 -0.3645
 3204TIP3    H231028   3.859   5.602  15.826  0.2669 -0.6675 -0.4363
 3205TIP3   OH231029   0.902   4.949   0.139  0.1215  0.3495 -0.4528
 3205TIP3    H131030   0.948   4.923   0.219  1.6633  0.1139 -1.3625
 3205TIP3    H231031   0.953   5.023   0.106 -1.5749  1.6442 -0.2774
 3206TIP3   OH231032   0.066   0.229  13.180 -0.4192 -0.3571  0.3183
 3206TIP3    H131033   0.118   0.173  13.237 -2.7312 -3.7661 -0.5992
 3206TIP3    H231034   0.099   0.211  13.092 -2.1742 -1.6468 -0.1461
 3207TIP3   OH231035   1.859   5.159  16.542  0.6539  0.4552 -0.2920
 3207TIP3    H131036   1.767   5.186  16.539 -0.0940 -1.4265  2.6310
 3207TIP3    H231037   1.903   5.230  16.590  0.0216 -0.1897  1.3025
 3208TIP3   OH231038   3.373   6.169   2.600  0.4517 -0.6502 -0.5719
 3208TIP3    H131039   3.352   6.260   2.620  1.4048 -0.2469 -1.3570
 3208TIP3    H231040   3.302   6.141   2.542 -0.5331 -0.8225  0.6667
 3209TIP3   OH231041   5.422   6.209   2.682 -0.4885 -0.1049 -0.0357
 3209TIP3    H131042   5.398   6.247   2.766  1.1698  1.7887 -0.3222
 3209TIP3    H231043   5.351   6.149   2.661 -3.3990  2.8553  0.4780
 3210TIP3   OH231044   1.787   3.491  11.849  0.0357  0.4700 -0.8691
 3210TIP3    H131045   1.809   3.559  11.912  1.2034  0.8478 -1.6506
 3210TIP3    H231046   1.871   3.467  11.809 -0.3883 -1.2612 -0.7882
 3211TIP3   OH231047   2.407   2.086  12.255 -0.2643 -0.0290  0.2579
 3211TIP3    H131048   2.495   2.101  12.221 -0.9172  0.7574 -1.2143
 3211TIP3    H231049   2.393   1.992  12.245 -0.1047  0.0496 -0.8966
 3212TIP3   OH231050   1.734   2.136   0.960 -0.0185  0.3894 -0.5300
 3212TIP3    H131051   1.662   2.115   1.019 -1.5981  1.9048 -1.8197
 3212TIP3    H231052   1.769   2.051   0.933 -1.2209 -0.3770  0.2523
 3213TIP3   OH231053   5.405   3.992   5.535 -0.3597 -0.5480 -0.0261
 3213TIP3    H131054   5.315   4.015   5.513 -0.2436 -0.3673 -0.3115
 3213TIP3    H231055   5.442   3.958   5.453  0.7221  2.0784 -0.7287
 3214TIP3   OH231056   6.693   6.478   6.290 -0.2893  0.0391 -0.2227
 3214TIP3    H131057   6.696   6.492   6.385  2.3813 -2.9991  0.3069
 3214TIP3    H231058   6.739   6.553   6.252  0.1933  0.4040  1.0455
 3215TIP3   OH231059   2.747   5.678  14.304  0.1185 -0.4540  0.6991
 3215TIP3    H131060   2.744   5.594  14.258  1.6431 -0.2774  0.2150
 3215TIP3    H231061   2.753   5.743  14.234 -0.6039  0.0433  1.0860
 3216TIP3   OH231062   1.553   6.182  16.333  0.3491 -0.3005  0.1377
 3216TIP3    H131063   1.614   6.256  16.336 -0.2538  0.3129 -1.7126
 3216TIP3    H231064   1.566   6.144  16.247 -1.6428 -0.3673 -0.1676
 3217TIP3   OH231065   6.774   4.506   4.286 -0.0571  0.0971  0.2471
 3217TIP3    H131066   6.843   4.443   4.303 -0.3421 -0.3631 -0.2829
 3217TIP3    H231067   6.811   4.590   4.314  0.3664 -0.2782  0.8466
 3218TIP3   OH231068   0.110   4.161  14.312  0.7149  0.2802  0.2594
 3218TIP3    H131069   0.080   4.131  14.398  0.3514 -0.4905 -0.1237
 3218TIP3    H231070   0.068   4.101  14.250 -1.5360  2.6617 -0.6930
 3219TIP3   OH231071   5.788   1.754  14.727  0.5740  0.1771 -0.0236
 3219TIP3    H131072   5.858   1.763  14.791  1.2373 -0.0379 -0.7108
 3219TIP3    H231073   5.826   1.701  14.657 -1.2569 -2.9558  1.1083
 3220TIP3   OH231074   1.735   3.426   0.076 -0.3131 -0.0380 -0.2530
 3220TIP3    H131075   1.824   3.461   0.064  0.4595 -1.9771 -0.5456
 3220TIP3    H231076   1.689   3.451  -0.005  0.6221 -0.8264 -1.0534
 3221TIP3   OH231077   3.386   2.422  13.900 -0.3787 -0.4168  0.1305
 3221TIP3    H131078   3.389   2.333  13.936 -0.7286 -0.7875 -0.7247
 3221TIP3    H231079   3.294   2.437  13.879 -0.2410 -0.0534 -0.2227
 3222TIP3   OH231080   5.729   2.993   3.470 -0.2638 -0.2474  0.1587
 3222TIP3    H131081   5.703   2.954   3.553 -0.0850  0.8042  0.7378
 3222TIP3    H231082   5.745   2.919   3.412  0.9141 -1.0673  1.4609
 3223TIP3   OH231083   0.808   4.277   1.889  0.3000  0.5050  0.3474
 3223TIP3    H131084   0.794   4.228   1.808  1.4623  1.5968 -0.5597
 3223TIP3    H231085   0.721   4.290   1.924 -0.1892 -0.4655 -0.4344
 3224TIP3   OH231086   3.522   1.598  11.972 -0.0336 -0.6065 -0.5107
 3224TIP3    H131087   3.518   1.542  11.895 -0.3460 -0.9687 -0.2341
 3224TIP3    H231088   3.448   1.571  12.026  0.6056 -0.8782  0.2705
 3225TIP3   OH231089   2.337   4.134   0.105 -0.7841  0.6157 -0.6896
 3225TIP3    H131090   2.309   4.059   0.157  3.1419  0.2543  1.3202
 3225TIP3    H231091   2.283   4.206   0.135 -0.2105 -0.1054  2.3620
 3226TIP3   OH231092   5.429   0.193  12.606 -0.8441 -0.1497  0.2411
 3226TIP3    H131093   5.418   0.171  12.699 -0.5013  0.0793  0.3364
 3226TIP3    H231094   5.401   0.114  12.559  1.4656 -1.2616  0.6032
 3227TIP3   OH231095   2.140   3.068   3.434  0.3389  0.8599 -0.2675
 3227TIP3    H131096   2.067   3.016   3.399 -0.3484  0.9257  1.0124
 3227TIP3    H231097   2.157   3.133   3.366  0.1509 -0.0426 -1.1989
 3228TIP3   OH231098   4.220   1.764  16.022  0.3602  0.1323  0.0111
 3228TIP3    H131099   4.273   1.814  16.084  0.6927 -0.1284 -0.0580
 3228TIP3    H231100   4.138   1.812  16.016  0.8549  0.9466 -0.4244
 3229TIP3   OH231101   6.075   6.428  12.790  0.2709  0.4473 -0.2892
 3229TIP3    H131102   6.110   6.342  12.815  1.6335  0.8608 -0.6485
 3229TIP3    H231103   6.035   6.462  12.869 -1.6976 -1.1516 -0.5289
 3230TIP3   OH231104   2.603   3.767   2.954  0.4001  0.8988 -0.0744
 3230TIP3    H131105   2.575   3.846   2.908 -1.3675 -0.0533 -0.7248
 3230TIP3    H231106   2.660   3.721   2.891 -0.8494  0.3072 -0.8087
 3231TIP3   OH231107   6.678   5.769  12.288 -0.0226  0.4940 -0.4769
 3231TIP3    H131108   6.592   5.727  12.293  1.4469 -2.7933  0.0499
 3231TIP3    H231109   6.716   5.735  12.207  1.3403  0.6762  0.0653
 3232TIP3   OH231110   6.066   4.021  14.208  0.6109 -0.3342  0.3487
 3232TIP3    H131111   5.987   4.074  14.194  0.4141 -0.5290  0.7106
 3232TIP3    H231112   6.058   3.990  14.298  0.3986 -1.4936 -0.0534
 3233TIP3   OH231113   4.543   5.098  12.438  0.1099  0.8065 -0.0530
 3233TIP3    H131114   4.636   5.109  12.417 -0.3178 -0.7696 -3.4355
 3233TIP3    H231115   4.532   5.004  12.447 -1.2055  0.9731  0.2265
 3234TIP3   OH231116   1.437   6.470  15.860  0.2322  0.4695  0.0622
 3234TIP3    H131117   1.345   6.445  15.851  0.4331  0.1712 -1.6185
 3234TIP3    H231118   1.440   6.562  15.836  0.7410 -0.2733 -3.4073
 3235TIP3   OH231119   6.381   1.635  16.796 -0.8273 -0.1513 -0.1870
 3235TIP3    H131120   6.317   1.586  16.848  0.3094 -1.7147 -0.1768
 3235TIP3    H231121   6.423   1.568  16.742  1.8111  0.5418  0.8519
 3236TIP3   OH231122   4.980   3.533  10.956 -0.2956 -0.2368 -0.0388
 3236TIP3    H131123   4.994   3.469  11.026 -0.3138 -1.1429 -0.8295
 3236TIP3    H231124   5.065   3.539  10.912 -0.6034 -0.6439 -0.7050
 3237TIP3   OH231125   0.748   0.555  13.142 -0.0130 -0.3119  0.0360
 3237TIP3    H131126   0.793   0.485  13.095  0.4866 -0.5548  0.8502
 3237TIP3    H231127   0.788   0.635  13.109 -1.4933 -0.2910 -1.8688
 3238TIP3   OH231128   0.324   3.432   0.489 -0.1470  0.4435 -0.2194
 3238TIP3    H131129   0.343   3.464   0.577 -1.3673  2.1074 -0.5002
 3238TIP3    H231130   0.338   3.509   0.433  0.5967 -0.5801 -1.5025
 3239TIP3   OH231131   2.621   0.558   2.139 -0.1018 -0.7262  0.1831
 3239TIP3    H131132   2.716   0.560   2.150  0.2270 -0.6999 -2.0721
 3239TIP3    H231133   2.588   0.628   2.196  1.4264  0.4495 -0.3265
 3240TIP3   OH231134   2.249   2.973  14.384  0.3748  0.0650  0.3454
 3240TIP3    H131135   2.327   2.919  14.401 -1.4530 -2.9984 -0.2304
 3240TIP3    H231136   2.187   2.913  14.342 -1.6605  2.8473 -0.9343
 3241TIP3   OH231137   1.521   4.555  16.595  0.2096 -0.1788  0.5183
 3241TIP3    H131138   1.563   4.556  16.681  0.6399 -2.8112  0.4084
 3241TIP3    H231139   1.496   4.464  16.581 -1.3537  0.4691 -1.4653
 3242TIP3   OH231140   5.023   5.766   1.414  0.0587  0.4034 -0.5922
 3242TIP3    H131141   5.082   5.836   1.443  1.2645 -0.3615 -1.0852
 3242TIP3    H231142   5.081   5.691   1.400 -1.0726 -0.4261 -0.9657
 3243TIP3   OH231143   2.135   0.405  14.973  0.2756 -0.3601  0.0996
 3243TIP3    H131144   2.084   0.417  14.893  2.2405 -0.2650 -1.2166
 3243TIP3    H231145   2.104   0.323  15.011  0.9728 -1.7401 -2.1402
 3244TIP3   OH231146   4.226   5.641   5.300  0.9049  0.6126  0.1220
 3244TIP3    H131147   4.137   5.646   5.334 -0.3502 -0.5642 -2.6619
 3244TIP3    H231148   4.269   5.576   5.356 -0.7817 -0.6620  0.0267
 3245TIP3   OH231149   5.562   2.308  12.019 -0.2866  0.4835 -0.1184
 3245TIP3    H131150   5.537   2.218  11.998 -1.5994  1.1003 -1.3964
 3245TIP3    H231151   5.613   2.301  12.100  0.7872 -1.5258 -0.9147
 3246TIP3   OH231152   1.671   6.116  15.333  0.5105  0.5354  0.2400
 3246TIP3    H131153   1.736   6.054  15.300  0.1841  1.3109 -2.0937
 3246TIP3    H231154   1.587   6.080  15.304  0.1595  1.0405  0.6216
 3247TIP3   OH231155   2.809   3.602  16.834  0.3038  0.1807  0.3861
 3247TIP3    H131156   2.847   3.515  16.820  3.4555  1.5246 -0.1580
 3247TIP3    H231157   2.834   3.625  16.923  1.9234  1.5663 -0.3739
 3248TIP3   OH231158   2.151   0.064   1.044  0.1518  0.1009  0.1275
 3248TIP3    H131159   2.177   0.131   1.107  1.9877 -0.7170  0.3026
 3248TIP3    H231160   2.180  -0.018   1.084  0.0375 -0.5675 -1.1313
 3249TIP3   OH231161   0.899   4.783  15.665 -0.6262 -0.4207 -0.5705
 3249TIP3    H131162   0.841   4.856  15.687  2.4975  2.7099 -1.7467
 3249TIP3    H231163   0.948   4.767  15.745  1.0792  1.3511 -1.1610
 3250TIP3   OH231164   5.295   6.072  14.497  0.6620 -0.4614  0.5575
 3250TIP3    H131165   5.350   6.124  14.439 -0.0224 -0.8404 -0.4818
 3250TIP3    H231166   5.260   6.134  14.561  0.4396  0.2196 -0.2134
 3251TIP3   OH231167   0.853   4.710   0.620 -0.6088  0.0891  0.0423
 3251TIP3    H131168   0.771   4.686   0.578 -0.3461  0.5065 -0.7197
 3251TIP3    H231169   0.872   4.638   0.680 -0.4651 -1.0148 -1.2918
 3252TIP3   OH231170   2.576   3.259   2.554  0.4237  0.6117  0.3183
 3252TIP3    H131171   2.545   3.328   2.614  1.5246  1.1700  0.2732
 3252TIP3    H231172   2.620   3.197   2.611  0.5957  0.6284  0.2024
 3253TIP3   OH231173   4.087   1.000   6.351 -0.1531  0.0937 -0.2751
 3253TIP3    H131174   4.131   0.936   6.407  0.2826  1.2305  0.7314
 3253TIP3    H231175   4.024   0.949   6.301  0.8261 -1.2534 -0.1830
 3254TIP3   OH231176   5.178   1.844  15.502  0.3403  0.3024  0.4359
 3254TIP3    H131177   5.115   1.831  15.431  0.5408 -0.5137  0.3895
 3254TIP3    H231178   5.155   1.776  15.566  1.7241 -0.5905  0.0197
 3255TIP3   OH231179   2.510   3.263   1.217  0.3415 -0.5704  0.1248
 3255TIP3    H131180   2.446   3.207   1.175 -0.0298  0.2065 -0.3635
 3255TIP3    H231181   2.473   3.351   1.212  0.7683 -0.3091  1.1488
 3256TIP3   OH231182   5.195   0.674  14.319  0.4259 -0.6035 -0.2324
 3256TIP3    H131183   5.219   0.764  14.298  0.4465 -0.6036 -0.2089
 3256TIP3    H231184   5.109   0.681  14.359 -0.3625 -0.7515 -1.8098
 3257TIP3   OH231185   0.430   0.576   5.698  0.0100 -0.3281  0.0530
 3257TIP3    H131186   0.428   0.521   5.776  3.1335  0.0821  0.5412
 3257TIP3    H231187   0.424   0.666   5.731  1.4861 -0.1457 -0.1015
 3258TIP3   OH231188   4.723   4.759  10.463 -0.3214 -0.1584 -0.3868
 3258TIP3    H131189   4.634   4.783  10.488 -0.2107 -0.0692 -0.0694
 3258TIP3    H231190   4.730   4.666  10.483 -0.2361 -0.0891 -0.0955
 3259TIP3   OH231191   6.289   2.438   4.921 -0.1115  0.3758  0.5751
 3259TIP3    H131192   6.313   2.470   5.008  2.2932 -0.8463  0.4422
 3259TIP3    H231193   6.370   2.441   4.871 -1.1058 -0.3720 -1.1834
 3260TIP3   OH231194   2.614   3.836   3.206 -0.7170 -0.0900 -0.5509
 3260TIP3    H131195   2.632   3.770   3.139 -3.0212 -3.2458  1.6046
 3260TIP3    H231196   2.523   3.862   3.190  0.2408  3.0632 -1.5679
 3261TIP3   OH231197   3.568   6.725  11.507 -0.0963  0.2190  0.6791
 3261TIP3    H131198   3.652   6.681  11.493  0.1088  0.3065  1.5825
 3261TIP3    H231199   3.507   6.655  11.528 -0.3208  0.1248 -0.2708
 3262TIP3   OH231200   1.451   5.329   5.541 -0.9608  0.2407 -0.5366
 3262TIP3    H131201   1.538   5.368   5.533 -1.6672  1.6457 -2.0424
 3262TIP3    H231202   1.466   5.235   5.547  0.6615  0.4897 -0.4504
 3263TIP3   OH231203   1.151   0.146   1.619 -0.1220 -0.0575  0.4182
 3263TIP3    H131204   1.247   0.148   1.615 -0.1267  0.9602  0.6870
 3263TIP3    H231205   1.124   0.151   1.527  0.0691  2.6530  0.4258
 3264TIP3   OH231206   1.521   2.889   2.522  0.2289 -0.1254  0.3411
 3264TIP3    H131207   1.466   2.965   2.502  1.0182  0.4036  0.1595
 3264TIP3    H231208   1.610   2.919   2.508  0.5128 -1.9148 -2.6612
 3265TIP3   OH231209   0.252   3.756  15.923 -0.2675 -0.2952  0.0187
 3265TIP3    H131210   0.306   3.688  15.962 -0.4867 -0.3800  0.1693
 3265TIP3    H231211   0.194   3.785  15.993 -0.1816  0.0405 -0.0470
 3266TIP3   OH231212   5.514   2.783  16.024 -0.4368  0.5955 -0.0291
 3266TIP3    H131213   5.539   2.859  15.973  1.3670 -0.1857 -0.3805
 3266TIP3    H231214   5.536   2.806  16.114  1.4558  0.0129 -0.3020
 3267TIP3   OH231215   0.164   3.319  13.093 -0.3807  1.0385  0.0685
 3267TIP3    H131216   0.213   3.260  13.036 -0.7763  0.1157  0.6502
 3267TIP3    H231217   0.227   3.347  13.159 -0.1345  1.4334 -0.3387
 3268TIP3   OH231218   5.837   6.448  16.631 -0.0331 -0.3832  0.1942
 3268TIP3    H131219   5.895   6.374  16.652  0.3297 -0.3077 -0.4990
 3268TIP3    H231220   5.749   6.415  16.647  0.1833 -0.5930  0.9938
 3269TIP3   OH231221   1.578   3.987   0.661 -0.3900  0.2748  0.0687
 3269TIP3    H131222   1.635   3.997   0.738 -2.2559  1.0184  1.4429
 3269TIP3    H231223   1.493   3.963   0.698 -0.7901 -1.7739 -1.9619
 3270TIP3   OH231224   6.250   2.360  11.512 -0.0202  0.5534 -0.0076
 3270TIP3    H131225   6.190   2.306  11.461  0.4009  0.2310 -0.1704
 3270TIP3    H231226   6.197   2.433  11.543 -0.3755  0.5450 -0.5801
 3271TIP3   OH231227   1.267   5.885   2.129 -0.0152 -0.3438  0.1542
 3271TIP3    H131228   1.196   5.876   2.065 -0.1337 -1.4685  0.4311
 3271TIP3    H231229   1.305   5.971   2.110 -0.8907 -0.0948 -0.5640
 3272TIP3   OH231230   3.432   5.932  13.484  0.6506  0.0057  0.4876
 3272TIP3    H131231   3.378   6.005  13.515  0.0131 -0.6324  0.9170
 3272TIP3    H231232   3.478   5.901  13.562  1.4999  0.4233  0.1576
 3273TIP3   OH231233   1.536   5.102  10.764  0.3401 -0.0823  0.1250
 3273TIP3    H131234   1.470   5.055  10.815 -1.4753  0.8265 -1.2484
 3273TIP3    H231235   1.575   5.164  10.826 -0.1918 -0.5431  0.9364
 3274TIP3   OH231236   0.820   3.907   2.936 -0.5273  0.1715 -0.6064
 3274TIP3    H131237   0.879   3.951   2.997  0.1619  0.3433 -1.3804
 3274TIP3    H231238   0.812   3.818   2.971 -0.0851  0.2492 -0.2980
 3275TIP3   OH231239   5.387   2.917  14.114 -0.0866  0.0797  0.2606
 3275TIP3    H131240   5.480   2.891  14.113  0.5725  2.1957 -1.1279
 3275TIP3    H231241   5.342   2.848  14.067  1.0809 -0.1498 -0.5627
 3276TIP3   OH231242   6.196   3.354  15.269  0.0546 -0.3802 -0.3648
 3276TIP3    H131243   6.127   3.348  15.204  0.3048  1.9547 -0.8999
 3276TIP3    H231244   6.150   3.367  15.352 -0.1782  0.3768 -0.6086
 3277TIP3   OH231245   4.588   5.139  15.273 -0.2973  0.0974  0.1604
 3277TIP3    H131246   4.677   5.147  15.309 -0.3218  1.9445 -0.1306
 3277TIP3    H231247   4.583   5.048  15.244  1.5080 -0.0562  0.1955
 3278TIP3   OH231248   5.627   5.684   2.632 -0.4266 -0.0174  0.1661
 3278TIP3    H131249   5.721   5.671   2.620 -0.5086  0.3497 -1.0361
 3278TIP3    H231250   5.620   5.739   2.711  0.3648  0.0164  0.2176
 3279TIP3   OH231251   2.694   2.840  15.325  0.3486 -0.2973  0.2916
 3279TIP3    H131252   2.765   2.902  15.311 -0.0827  0.1918  0.2468
 3279TIP3    H231253   2.634   2.885  15.385  1.3144 -1.6686  2.3835
 3280TIP3   OH231254   3.828   1.274   3.002 -0.2624 -0.3614  0.0436
 3280TIP3    H131255   3.861   1.344   2.945 -0.4277 -1.7541 -1.8747
 3280TIP3    H231256   3.734   1.274   2.987 -0.0988 -1.9673 -1.2165
 3281TIP3   OH231257   0.241   0.008  14.788  0.7331 -0.2389 -0.4907
 3281TIP3    H131258   0.216  -0.079  14.817  1.5694 -0.3438 -0.0448
 3281TIP3    H231259   0.226   0.008  14.693 -0.4052 -0.4567 -0.3210
 3282TIP3   OH231260   1.399   0.338  12.433  0.7425  0.5198  0.3180
 3282TIP3    H131261   1.381   0.370  12.344 -0.2695  0.9125  0.6533
 3282TIP3    H231262   1.314   0.306  12.464  1.3628 -0.9177  0.6361
 3283TIP3   OH231263   2.681   4.940   1.188  0.4931  0.2490 -0.4424
 3283TIP3    H131264   2.603   4.958   1.240  0.9876  0.0824  0.3729
 3283TIP3    H231265   2.674   4.999   1.113 -1.8603 -1.7183 -1.9410
 3284TIP3   OH231266   3.573   5.175   0.156 -0.4142  0.2465  0.3820
 3284TIP3    H131267   3.567   5.174   0.251 -0.5059 -2.5640  0.4286
 3284TIP3    H231268   3.582   5.268   0.133  1.8626  0.8679  3.2313
 3285TIP3   OH231269   4.413   0.132   2.313 -0.7101 -0.0130  0.1114
 3285TIP3    H131270   4.393   0.172   2.228  2.2462  0.3536 -0.5353
 3285TIP3    H231271   4.378   0.044   2.307  0.8598 -0.5670 -2.2306
 3286TIP3   OH231272   4.291   0.323   2.546 -0.0123  0.0197  0.0599
 3286TIP3    H131273   4.348   0.260   2.502  1.3376  2.4649 -1.9277
 3286TIP3    H231274   4.220   0.339   2.483  0.5844  1.6757 -0.2518
 3287TIP3   OH231275   4.125   0.425   3.483  0.2333 -0.2006 -0.2926
 3287TIP3    H131276   4.196   0.489   3.487 -1.0523  1.2731 -0.2145
 3287TIP3    H231277   4.130   0.379   3.566 -0.1655  1.3114  0.5966
 3288TIP3   OH231278   6.510   5.623   5.486  0.0738  0.2926 -0.0551
 3288TIP3    H131279   6.473   5.691   5.542 -0.6728  0.1676 -0.3889
 3288TIP3    H231280   6.601   5.649   5.474 -0.0708  0.9561  0.2377
 3289TIP3   OH231281   2.829   2.117  15.165  0.3842  0.9702  0.7681
 3289TIP3    H131282   2.810   2.211  15.171  0.1545  0.9658  0.2295
 3289TIP3    H231283   2.904   2.104  15.223  0.6364  1.5530  0.5907
 3290TIP3   OH231284   2.436   1.270   0.742  0.0174  0.7019  0.0769
 3290TIP3    H131285   2.436   1.365   0.742 -0.6543  0.7232  0.9864
 3290TIP3    H231286   2.372   1.246   0.809  0.7504 -0.3881  0.4248
 3291TIP3   OH231287   6.343   5.173  16.964 -0.0899 -0.4526  0.5000
 3291TIP3    H131288   6.432   5.138  16.963  1.1598  1.8521  4.7536
 3291TIP3    H231289   6.293   5.109  17.014 -0.5459 -1.1111 -0.7654
 3292TIP3   OH231290   0.648   3.324   2.516  1.0003  0.4228 -0.2294
 3292TIP3    H131291   0.658   3.408   2.471 -0.8912  1.2342  0.7345
 3292TIP3    H231292   0.553   3.309   2.518  1.3083 -2.2770 -1.2756
 3293TIP3   OH231293   4.704   0.612  16.759 -0.1313 -0.4689  0.7435
 3293TIP3    H131294   4.622   0.653  16.734  0.2049 -0.3670 -0.2535
 3293TIP3    H231295   4.745   0.674  16.819  1.7439  2.2820 -2.9335
 3294TIP3   OH231296   2.896   4.321   2.537 -0.0833 -0.5445 -0.1214
 3294TIP3    H131297   2.971   4.262   2.523 -1.8636 -2.8670 -0.3866
 3294TIP3    H231298   2.887   4.367   2.453  0.8856 -0.4083 -0.1649
 3295TIP3   OH231299   0.481   1.382  13.037  0.0738  0.2434 -0.8664
 3295TIP3    H131300   0.544   1.453  13.024  1.8204 -1.2431 -0.7710
 3295TIP3    H231301   0.439   1.370  12.952 -1.2594  2.2499 -0.5680
 3296TIP3   OH231302   0.204   6.223  13.916  0.3712 -0.5929 -0.4744
 3296TIP3    H131303   0.237   6.134  13.910  0.8592 -0.4229 -0.4151
 3296TIP3    H231304   0.225   6.262  13.831  0.5641 -0.4043 -0.3416
 3297TIP3   OH231305   5.272   0.359   5.444  0.0078 -0.1372 -0.0790
 3297TIP3    H131306   5.225   0.442   5.445  0.8459  0.3688 -0.7012
 3297TIP3    H231307   5.326   0.362   5.523 -0.4642 -0.4021  0.2586
 3298TIP3   OH231308   4.546   6.586  15.166 -0.2201  0.1613 -0.4661
 3298TIP3    H131309   4.605   6.551  15.232  0.8937  1.9375 -0.4370
 3298TIP3    H231310   4.495   6.652  15.213 -0.8958 -0.0283 -0.9200
 3299TIP3   OH231311   2.383   5.644   0.216 -0.3804  0.1368  0.1302
 3299TIP3    H131312   2.438   5.707   0.171 -0.4228 -0.9674 -1.5817
 3299TIP3    H231313   2.294   5.663   0.186 -0.3078 -1.1640 -1.0298
 3300TIP3   OH231314   3.193   2.313   2.370  0.5588 -0.0573  0.0595
 3300TIP3    H131315   3.120   2.264   2.407 -1.5792  1.8663 -1.3266
 3300TIP3    H231316   3.152   2.375   2.309  3.4712  0.2974 -1.7252
 3301TIP3   OH231317   1.146   4.453  11.401  0.0950  0.2707  0.2734
 3301TIP3    H131318   1.225   4.494  11.365 -0.0832 -0.7906 -1.4384
 3301TIP3    H231319   1.082   4.524  11.406  0.3792  0.6152 -0.7703
 3302TIP3   OH231320   2.925   5.874   3.270 -0.1212  0.1175 -0.1631
 3302TIP3    H131321   2.954   5.831   3.189  0.3079  0.1966 -0.0515
 3302TIP3    H231322   2.966   5.824   3.340  0.3477  0.6776 -0.0306
 3303TIP3   OH231323   3.089   3.198   3.874  0.3958 -0.2311 -0.4234
 3303TIP3    H131324   3.051   3.264   3.932  0.3106 -2.3889  2.1528
 3303TIP3    H231325   3.015   3.148   3.841  0.4576  0.8750 -2.3876
 3304TIP3   OH231326   3.495   5.671   6.775  0.3839 -0.1973  0.1409
 3304TIP3    H131327   3.565   5.639   6.717 -0.5897 -0.3795 -0.9892
 3304TIP3    H231328   3.416   5.632   6.738 -0.5671  1.7011  0.1088
 3305TIP3   OH231329   6.770   5.988  15.966  0.8520  0.2972 -0.2867
 3305TIP3    H131330   6.849   5.961  16.012 -0.2809 -0.0318  1.5879
 3305TIP3    H231331   6.750   6.074  16.002 -1.0479 -0.7206  1.3246
 3306TIP3   OH231332   0.916   3.981   4.585  0.3424  0.5417  0.4748
 3306TIP3    H131333   0.822   3.973   4.597  0.3681 -0.4037  0.1668
 3306TIP3    H231334   0.951   3.895   4.608  0.5647 -1.0254 -4.4731
 3307TIP3   OH231335   3.291   6.166   5.289 -0.3004  0.2171  0.6110
 3307TIP3    H131336   3.329   6.253   5.279  0.0532 -0.0969 -1.2365
 3307TIP3    H231337   3.243   6.169   5.372  0.5370  1.8366  1.0706
 3308TIP3   OH231338   0.040   3.067  15.842  0.0709  0.2089 -0.0536
 3308TIP3    H131339   0.107   3.128  15.810 -0.5493  0.6707 -0.4823
 3308TIP3    H231340   0.090   2.996  15.882  0.8913 -0.3019 -1.8730
 3309TIP3   OH231341   2.186   0.236   1.783 -0.1552 -0.0598  0.0865
 3309TIP3    H131342   2.091   0.248   1.773 -0.5612 -2.5628  0.4381
 3309TIP3    H231343   2.199   0.223   1.877  0.3558 -1.0179 -0.1091
 3310TIP3   OH231344   6.260   1.238   1.990 -0.1330  0.4870 -0.1847
 3310TIP3    H131345   6.317   1.307   2.023 -0.7225  1.0266 -0.2803
 3310TIP3    H231346   6.292   1.158   2.032  0.5942  0.7990 -0.1247
 3311TIP3   OH231347   4.971   2.832  16.447  0.2762 -0.2654 -0.8613
 3311TIP3    H131348   4.955   2.905  16.506  1.3227 -0.8837  0.2373
 3311TIP3    H231349   5.065   2.839  16.427  0.5094 -1.6018 -0.2998
 3312TIP3   OH231350   3.923   4.055  12.618 -0.0823  0.3074  0.8139
 3312TIP3    H131351   3.968   4.134  12.650  0.2174  0.7793 -0.6946
 3312TIP3    H231352   3.920   4.066  12.523  0.2123 -1.6367  0.5381
 3313TIP3   OH231353   2.497   1.760  14.874  0.9136 -0.1444  0.3371
 3313TIP3    H131354   2.592   1.758  14.862  0.8186  2.0682 -1.2822
 3313TIP3    H231355   2.485   1.752  14.969  2.9076  2.2774  0.9018
 3314TIP3   OH231356   3.697   4.077  14.716 -0.6278  0.2592 -0.5407
 3314TIP3    H131357   3.754   4.121  14.777 -0.3127 -0.5654 -0.2272
 3314TIP3    H231358   3.629   4.037  14.770 -0.1116 -0.8286 -0.6715
 3315TIP3   OH231359   0.864   1.358   6.207 -0.1926 -0.2593  0.7082
 3315TIP3    H131360   0.830   1.410   6.134  0.2200  0.1172  0.7795
 3315TIP3    H231361   0.824   1.398   6.284  1.6673  1.2806  0.9554
 3316TIP3   OH231362   2.513   0.435   2.813 -0.3761  0.1857 -0.2153
 3316TIP3    H131363   2.436   0.465   2.764  0.2717  0.3288 -1.1558
 3316TIP3    H231364   2.522   0.498   2.884 -0.0272  1.2591 -1.1877
 3317TIP3   OH231365   1.841   3.729   1.888 -0.1667  0.3002 -0.5004
 3317TIP3    H131366   1.879   3.747   1.802  0.0069 -0.1098 -0.5133
 3317TIP3    H231367   1.917   3.718   1.945 -0.2589 -0.4724 -0.5152
 3318TIP3   OH231368   1.185   2.991   5.383 -1.1238  0.6173 -0.1888
 3318TIP3    H131369   1.265   3.028   5.421 -0.3475 -1.0532 -0.0805
 3318TIP3    H231370   1.168   3.045   5.306  0.1381  0.9891 -0.2340
 3319TIP3   OH231371   1.027   0.214  11.022 -0.7931 -0.3958  0.1095
 3319TIP3    H131372   1.038   0.142  10.960  1.7263  1.2497 -1.5713
 3319TIP3    H231373   0.971   0.276  10.976 -0.3768  0.0494  0.1876
 3320TIP3   OH231374   3.607   5.632  13.855 -0.6551 -0.7762  0.3808
 3320TIP3    H131375   3.587   5.540  13.837 -0.0741 -0.9602  0.6392
 3320TIP3    H231376   3.703   5.636  13.854 -0.6813  0.0502 -0.7120
 3321TIP3   OH231377   1.692   4.303   2.952 -0.2484 -0.2374  0.3343
 3321TIP3    H131378   1.770   4.358   2.955 -1.1407  1.0436  0.4603
 3321TIP3    H231379   1.639   4.339   2.880 -0.3870 -1.5857 -0.2807
 3322TIP3   OH231380   3.730   3.672  16.901 -0.3366 -0.1726  0.4361
 3322TIP3    H131381   3.713   3.578  16.890 -2.0812 -0.1205  2.2025
 3322TIP3    H231382   3.774   3.679  16.986 -0.4326  0.6191  0.4287
 3323TIP3   OH231383   2.343   1.472   0.127 -0.1243 -0.4026 -0.1047
 3323TIP3    H131384   2.315   1.459   0.036  0.4335 -0.0525 -0.3274
 3323TIP3    H231385   2.434   1.500   0.120  1.3271 -4.2672  0.7038
 3324TIP3   OH231386   5.006   2.894   1.589  0.2593  0.3592  0.5732
 3324TIP3    H131387   4.985   2.970   1.535  1.0925 -1.5924 -2.7546
 3324TIP3    H231388   5.101   2.888   1.586  0.2068 -0.7440  0.8912
 3325TIP3   OH231389   0.862   2.934  10.675 -0.1562  0.1598  0.7992
 3325TIP3    H131390   0.905   2.869  10.730  1.4851  0.7475  0.2688
 3325TIP3    H231391   0.811   2.882  10.612  0.3190 -0.5812  1.0080
 3326TIP3   OH231392   5.701   6.305  13.551 -0.6877  0.2423  0.2309
 3326TIP3    H131393   5.653   6.256  13.484 -1.9947  0.3130  1.0929
 3326TIP3    H231394   5.685   6.257  13.632  0.3963  0.4913  0.6040
 3327TIP3   OH231395   2.412   4.522   4.188  0.1893  0.3583  0.2478
 3327TIP3    H131396   2.322   4.555   4.185 -0.4638 -1.3745 -0.0791
 3327TIP3    H231397   2.458   4.575   4.123 -1.5993 -1.3833 -2.6711
 3328TIP3   OH231398   4.372   3.880  16.719 -0.2401  0.2113 -0.2121
 3328TIP3    H131399   4.361   3.902  16.812 -2.1469 -1.2831 -0.0316
 3328TIP3    H231400   4.300   3.820  16.700  1.5797 -1.5570 -2.0057
 3329TIP3   OH231401   5.682   4.952   1.705 -0.4460 -0.1628 -0.8266
 3329TIP3    H131402   5.711   5.017   1.769 -0.7241 -1.2325  0.3971
 3329TIP3    H231403   5.592   4.931   1.730  0.3390 -2.6306  0.1656
 3330TIP3   OH231404   3.759   0.443  13.424  0.4305  0.5886 -0.3241
 3330TIP3    H131405   3.745   0.371  13.363  2.0119  0.6382 -0.7780
 3330TIP3    H231406   3.851   0.468  13.412  0.0742  2.3107  0.2204
 3331TIP3   OH231407   2.307   1.348   2.459 -0.2543 -0.1489 -0.1946
 3331TIP3    H131408   2.268   1.371   2.544  0.8129 -2.1287  0.9020
 3331TIP3    H231409   2.244   1.288   2.419 -0.6881  0.6691 -0.7662
 3332TIP3   OH231410   3.948   0.688  14.936  1.0782 -0.1284  0.1267
 3332TIP3    H131411   3.987   0.711  14.852 -1.1115 -3.1903 -1.9331
 3332TIP3    H231412   3.856   0.713  14.928  1.3032  2.0393  2.7936
 3333TIP3   OH231413   6.743   1.950   0.987  0.6075  0.3901  0.0125
 3333TIP3    H131414   6.697   2.033   0.971 -1.9657 -0.4627  2.2701
 3333TIP3    H231415   6.789   1.963   1.069  0.8379 -0.1908 -0.0189
 3334TIP3   OH231416   0.241   3.395  16.983  0.2357 -0.0508  0.0377
 3334TIP3    H131417   0.291   3.317  16.957  1.8862  0.2697  1.9572
 3334TIP3    H231418   0.159   3.361  17.017 -0.3617 -0.6943 -1.9059
 3335TIP3   OH231419   3.172   1.657   5.342  0.7265  0.0411 -0.1273
 3335TIP3    H131420   3.222   1.713   5.401  0.8139  0.7635 -0.8710
 3335TIP3    H231421   3.090   1.639   5.389  0.2379  1.6678 -0.2902
 3336TIP3   OH231422   1.759   3.091  11.976 -0.1248 -0.7522 -0.8431
 3336TIP3    H131423   1.732   3.061  12.063  1.1049  2.1681  0.6636
 3336TIP3    H231424   1.691   3.153  11.949  1.4403  1.4074 -0.0763
 3337TIP3   OH231425   2.894   1.713  11.853  0.5507  0.2528 -0.2641
 3337TIP3    H131426   2.856   1.799  11.872 -0.7045 -0.3944  0.2016
 3337TIP3    H231427   2.989   1.728  11.856  0.3503  1.5420  0.1390
 3338TIP3   OH231428   0.781   6.127  10.788 -0.1856 -0.4995 -0.1637
 3338TIP3    H131429   0.726   6.189  10.741 -0.1782 -0.2118  0.2011
 3338TIP3    H231430   0.762   6.143  10.881 -2.0445 -2.6992 -0.0643
 3339TIP3   OH231431   6.244   1.819   2.237  0.2467 -0.1898 -0.3219
 3339TIP3    H131432   6.200   1.833   2.320  2.6754 -1.3044  1.2686
 3339TIP3    H231433   6.297   1.897   2.224  0.2806 -0.2501 -0.5535
 3340TIP3   OH231434   1.628   2.437  10.970 -0.8375  0.2967  0.0253
 3340TIP3    H131435   1.673   2.430  11.055 -1.5378 -1.1062  0.3125
 3340TIP3    H231436   1.547   2.484  10.990  0.0315  1.9923 -0.3157
 3341TIP3   OH231437   0.219   2.676   6.036 -0.3828 -0.3519  0.0730
 3341TIP3    H131438   0.305   2.685   6.078  0.1036 -0.7987 -0.7950
 3341TIP3    H231439   0.174   2.610   6.088 -0.9244  1.1691  1.6389
 3342TIP3   OH231440   6.439   5.199  16.557  0.1902  0.2209 -0.6054
 3342TIP3    H131441   6.373   5.159  16.501 -0.0563 -1.7243  0.9648
 3342TIP3    H231442   6.412   5.291  16.562 -1.9814 -0.3460 -0.6615
 3343TIP3   OH231443   2.821   3.680  11.967 -1.1619 -0.2541 -0.3081
 3343TIP3    H131444   2.824   3.629  11.886  1.8532  0.7548 -0.9559
 3343TIP3    H231445   2.814   3.614  12.037  2.7915 -1.8125 -1.0943
 3344TIP3   OH231446   5.720   2.095  13.626  0.0332  0.0018 -0.3866
 3344TIP3    H131447   5.659   2.080  13.555  0.2158  2.1818 -1.0768
 3344TIP3    H231448   5.739   2.189  13.622  2.1943 -0.3181  0.7932
 3345TIP3   OH231449   5.271   0.825  14.757  0.0047  0.1240  0.2422
 3345TIP3    H131450   5.267   0.752  14.696  0.4115  0.2418  0.0730
 3345TIP3    H231451   5.238   0.789  14.840 -0.7881  0.0352 -0.1088
 3346TIP3   OH231452   0.093   3.247   6.227 -0.0731  0.3188  0.1127
 3346TIP3    H131453   0.088   3.152   6.241  1.7207  0.5801  3.7580
 3346TIP3    H231454   0.091   3.258   6.132 -1.6511 -3.2302 -0.4141
 3347TIP3   OH231455   3.572   3.494  13.267  0.1510  0.8337 -0.4004
 3347TIP3    H131456   3.570   3.520  13.175  0.8860  1.4009 -0.2646
 3347TIP3    H231457   3.485   3.517  13.300 -1.0322 -1.6116 -1.5188
 3348TIP3   OH231458   3.956   0.453   5.201 -0.6177  0.2800  0.3532
 3348TIP3    H131459   3.916   0.495   5.126 -1.3926 -1.5932 -0.3375
 3348TIP3    H231460   3.907   0.487   5.277 -0.7239  1.1512 -0.0949
 3349TIP3   OH231461   0.428   1.806  15.331 -0.1743  0.5845 -0.1247
 3349TIP3    H131462   0.347   1.814  15.281  0.8332  1.3904 -1.7626
 3349TIP3    H231463   0.480   1.742  15.281 -0.0019 -0.3293  1.1940
 3350TIP3   OH231464   1.492   3.465  11.702  0.0215  0.2939 -0.0762
 3350TIP3    H131465   1.442   3.517  11.765 -1.1547 -0.8248 -0.0523
 3350TIP3    H231466   1.573   3.443  11.748 -0.4315  0.2434  0.7206
 3351TIP3   OH231467   1.089   5.588   2.247  0.4469  0.6156 -0.3079
 3351TIP3    H131468   1.184   5.596   2.242  0.4919  1.3775  1.1869
 3351TIP3    H231469   1.073   5.496   2.265  0.9008  0.5279 -0.3379
 3352TIP3   OH231470   5.139   5.095  15.089 -0.7823 -0.2758 -0.1185
 3352TIP3    H131471   5.195   5.076  15.164  0.1393 -1.0269 -0.9657
 3352TIP3    H231472   5.142   5.015  15.036  0.3575  0.9362 -2.0318
 3353TIP3   OH231473   2.772   5.630   0.957  0.1669 -0.4466  0.1491
 3353TIP3    H131474   2.841   5.566   0.976 -0.6299 -1.7755 -1.2096
 3353TIP3    H231475   2.781   5.648   0.863 -1.5533 -0.9675 -0.1507
 3354TIP3   OH231476   2.778   4.381   2.155 -0.4600  0.0307 -0.5096
 3354TIP3    H131477   2.787   4.301   2.103  0.2649 -0.1254 -0.1706
 3354TIP3    H231478   2.848   4.438   2.123 -0.3588  0.1453 -0.0909
 3355TIP3   OH231479   0.180   5.737  13.696  0.4660  0.2446 -0.0135
 3355TIP3    H131480   0.248   5.730  13.628 -1.0952 -0.6993 -1.5739
 3355TIP3    H231481   0.167   5.647  13.727 -1.3863  0.0402 -1.1824
 3356TIP3   OH231482   5.010   2.159  11.034  0.1952 -0.0350  0.2820
 3356TIP3    H131483   5.040   2.245  11.064  2.6094 -0.5349 -0.4365
 3356TIP3    H231484   5.084   2.101  11.052 -0.5498 -1.5273 -1.1723
 3357TIP3   OH231485   0.916   5.053   5.788  0.6300  0.4880  0.0488
 3357TIP3    H131486   0.925   4.974   5.842 -0.9496  1.7842  2.3708
 3357TIP3    H231487   0.961   5.121   5.837  1.8356  1.1330 -1.8547
 3358TIP3   OH231488   3.902   5.375  16.928  0.0875 -0.3295  0.3055
 3358TIP3    H131489   3.964   5.331  16.869 -1.1337 -1.9802  0.1587
 3358TIP3    H231490   3.897   5.317  17.004 -1.4987 -0.4081  0.1695
 3359TIP3   OH231491   0.260   3.175  15.407  0.4900 -0.6441 -0.4855
 3359TIP3    H131492   0.269   3.262  15.368 -0.0669 -0.1552  0.4426
 3359TIP3    H231493   0.262   3.115  15.332 -0.5227  0.2595 -1.2631
 3360TIP3   OH231494   3.562   2.599   0.018  0.0300 -0.0511 -0.3844
 3360TIP3    H131495   3.522   2.521   0.057  0.3935 -1.5769 -2.8733
 3360TIP3    H231496   3.583   2.573  -0.072 -0.1522  3.0393 -1.4298
 3361TIP3   OH231497   3.921   4.307  11.761  0.2230 -0.3383  0.3712
 3361TIP3    H131498   3.937   4.245  11.689  1.6648  0.6808 -0.2325
 3361TIP3    H231499   3.922   4.252  11.839  1.7032 -1.0924 -0.1255
 3362TIP3   OH231500   4.764   0.161   1.486 -0.0745 -0.7427 -0.1209
 3362TIP3    H131501   4.840   0.216   1.469 -1.0417  0.4178 -0.8506
 3362TIP3    H231502   4.798   0.089   1.539  1.4163  0.0325  0.0341
 3363TIP3   OH231503   2.400   2.686  15.521 -0.3440 -0.2888  0.1098
 3363TIP3    H131504   2.455   2.644  15.588  0.0295 -0.3149 -0.2107
 3363TIP3    H231505   2.335   2.735  15.571 -0.3435 -0.6727  0.4903
 3364TIP3   OH231506   4.968   4.321   1.242 -0.0979  0.6299  0.6821
 3364TIP3    H131507   5.032   4.259   1.210 -1.1483  0.1884 -0.6561
 3364TIP3    H231508   4.910   4.269   1.299 -2.7353 -0.4765 -2.6799
 3365TIP3   OH231509   2.464   4.494  12.208  0.0192  0.2023 -0.5150
 3365TIP3    H131510   2.439   4.406  12.236 -0.2585  0.0386 -1.2609
 3365TIP3    H231511   2.481   4.541  12.290 -0.3477 -0.3865 -0.0925
 3366TIP3   OH231512   3.162   1.649   2.637 -0.8425 -0.1471 -0.7784
 3366TIP3    H131513   3.148   1.611   2.724 -0.0956 -1.0177 -1.0251
 3366TIP3    H231514   3.215   1.728   2.654 -1.5796  0.2619 -0.3549
 3367TIP3   OH231515   1.475   5.739  16.794 -0.0154  0.1799 -0.2499
 3367TIP3    H131516   1.413   5.788  16.740 -1.1209 -2.3966 -1.5216
 3367TIP3    H231517   1.537   5.702  16.732  1.6281  1.0686  0.8147
 3368TIP3   OH231518   3.619   5.840  12.094 -0.1776  0.1607  0.1810
 3368TIP3    H131519   3.602   5.796  12.177 -1.7060 -2.5674 -1.4590
 3368TIP3    H231520   3.555   5.911  12.091  0.2476  0.6402  1.4901
 3369TIP3   OH231521   2.179   1.654  15.448  0.5209 -0.6376  0.3634
 3369TIP3    H131522   2.141   1.604  15.521 -0.7253 -0.2014  0.0266
 3369TIP3    H231523   2.124   1.732  15.441 -0.1785 -1.2583 -1.8498
 3370TIP3   OH231524   0.080   2.755  14.215  0.0135  0.1327  0.0671
 3370TIP3    H131525   0.036   2.730  14.133  0.1334  2.0823 -0.6470
 3370TIP3    H231526   0.053   2.688  14.278 -2.1501  0.0031 -0.9122
 3371TIP3   OH231527   3.800   1.989  14.588 -0.1981  0.7842  0.0545
 3371TIP3    H131528   3.788   1.896  14.605  1.6285  0.3630 -0.7517
 3371TIP3    H231529   3.772   2.001  14.497 -0.2996  0.9922  0.1118
 3372TIP3   OH231530   5.281   4.383  12.536 -0.5601 -0.2151  0.4138
 3372TIP3    H131531   5.263   4.441  12.609 -1.6523  0.1841 -0.1588
 3372TIP3    H231532   5.374   4.397  12.517 -0.6100  0.7401  0.8091
 3373TIP3   OH231533   5.399   0.046  14.071  0.1228  0.1614  0.6812
 3373TIP3    H131534   5.354   0.109  14.128 -1.8543 -0.5016 -0.0286
 3373TIP3    H231535   5.463   0.004  14.128 -0.9460  0.3723  2.1229
 3374TIP3   OH231536   2.773   5.559   2.495 -0.3217 -0.0141 -0.3836
 3374TIP3    H131537   2.829   5.631   2.522 -1.8803  0.8142  0.8006
 3374TIP3    H231538   2.829   5.504   2.440  0.9590  1.9924 -1.1841
 3375TIP3   OH231539   4.659   1.379  14.709 -0.0419 -0.1007 -0.0290
 3375TIP3    H131540   4.628   1.289  14.718 -0.2246  0.0065  0.4093
 3375TIP3    H231541   4.744   1.371  14.665 -0.9665 -0.3510 -1.8871
 3376TIP3   OH231542   5.557   1.616  14.188 -0.1356 -0.1914  0.3169
 3376TIP3    H131543   5.491   1.578  14.245  0.3351 -0.6652  0.5487
 3376TIP3    H231544   5.629   1.552  14.187  0.4157  0.4162  0.2459
 3377TIP3   OH231545   4.887   0.078  13.768  0.5792  0.6879  0.3860
 3377TIP3    H131546   4.940   0.126  13.705 -1.4051  0.0310 -1.9281
 3377TIP3    H231547   4.878  -0.009  13.731 -0.9414  0.3702  1.3889
 3378TIP3   OH231548   4.138   5.340  16.050 -0.0363 -0.3229 -0.2598
 3378TIP3    H131549   4.139   5.436  16.052 -0.5225 -0.2997  2.0912
 3378TIP3    H231550   4.209   5.314  16.108 -0.4968 -1.3693 -0.1341
 3379TIP3   OH231551   5.772   5.361   2.287 -0.3179  0.4622  0.5812
 3379TIP3    H131552   5.741   5.449   2.307 -0.5330  0.9692 -1.7020
 3379TIP3    H231553   5.845   5.374   2.227 -2.1650 -0.8845 -2.1784
 3380TIP3   OH231554   3.149   6.389   5.804 -0.0195 -0.3400  0.5292
 3380TIP3    H131555   3.205   6.392   5.727 -0.4925 -0.3272  0.1883
 3380TIP3    H231556   3.195   6.442   5.869 -0.5955  1.3209 -0.3802
 3381TIP3   OH231557   0.634   4.149   6.330  0.2747 -0.2223 -0.3389
 3381TIP3    H131558   0.668   4.238   6.330 -0.7186  0.2261  1.7702
 3381TIP3    H231559   0.579   4.144   6.408  0.0553 -2.6041 -0.5570
 3382TIP3   OH231560   6.246   0.034   2.368  0.0195  0.1973  0.2276
 3382TIP3    H131561   6.189  -0.043   2.363 -0.2817  0.4521 -0.4274
 3382TIP3    H231562   6.260   0.060   2.277  1.6097 -0.1551  0.3416
 3383TIP3   OH231563   2.477   3.373  16.810 -0.4605 -0.0251  0.1089
 3383TIP3    H131564   2.559   3.323  16.810 -0.0907  0.5665  1.2334
 3383TIP3    H231565   2.423   3.329  16.744  0.0872 -1.5270  0.6233
 3384TIP3   OH231566   5.302   3.535  12.093 -0.4298 -0.1005 -0.1517
 3384TIP3    H131567   5.217   3.577  12.104 -0.5420 -0.0170 -1.2213
 3384TIP3    H231568   5.360   3.605  12.064  0.2082  0.0048  1.2665
 3385TIP3   OH231569   4.656   5.495   0.910  0.2192  0.3383 -0.0856
 3385TIP3    H131570   4.562   5.495   0.928 -0.1472  2.3823 -1.5888
 3385TIP3    H231571   4.675   5.406   0.882 -1.0797 -0.3244  0.9913
 3386TIP3   OH231572   0.097   2.872   0.778  0.1298  0.4938 -0.2554
 3386TIP3    H131573   0.042   2.818   0.836  0.4062 -0.6352 -1.0086
 3386TIP3    H231574   0.164   2.907   0.836 -1.0590  1.4836  0.5852
 3387TIP3   OH231575   1.407   1.117   5.252  0.2998 -0.0505  0.1084
 3387TIP3    H131576   1.459   1.155   5.182 -0.3295  0.9155  0.1495
 3387TIP3    H231577   1.387   1.190   5.310  0.1780 -0.6979  0.9040
 3388TIP3   OH231578   2.137   4.309   4.583 -0.0008  1.1427  0.4198
 3388TIP3    H131579   2.058   4.355   4.613 -0.5368 -0.0095  0.8502
 3388TIP3    H231580   2.105   4.224   4.553  1.1289  0.5111  0.9514
 3389TIP3   OH231581   1.998   3.658   6.421 -0.2880  0.3587  0.2158
 3389TIP3    H131582   1.951   3.575   6.432  0.5193  0.1305  2.4851
 3389TIP3    H231583   1.941   3.723   6.461  0.2249  0.4683  0.7775
 3390TIP3   OH231584   6.717   4.965  15.758 -0.2693 -0.1704 -0.5841
 3390TIP3    H131585   6.779   4.970  15.830  0.5736 -1.3431 -1.1956
 3390TIP3    H231586   6.690   5.056  15.743  0.9189  0.3030  0.0237
 3391TIP3   OH231587   6.463   5.131   3.097  0.4662  0.6957  0.0655
 3391TIP3    H131588   6.474   5.191   3.023 -0.7296  0.2412 -0.5126
 3391TIP3    H231589   6.485   5.045   3.062 -0.9014  0.3569 -0.0252
 3392TIP3   OH231590   3.412   3.395   3.411 -0.0374  0.1948  0.5265
 3392TIP3    H131591   3.341   3.389   3.347 -1.3120 -0.8948  1.9564
 3392TIP3    H231592   3.368   3.422   3.492  1.1764 -0.5544  1.4626
 3393TIP3   OH231593   4.800   5.058   2.217  0.2839 -0.7720  0.5236
 3393TIP3    H131594   4.709   5.084   2.200  0.7140  0.1672 -0.4697
 3393TIP3    H231595   4.852   5.135   2.193  1.3486 -1.2784  1.1185
 3394TIP3   OH231596   5.058   4.724   4.809 -0.1127  0.2164 -0.1908
 3394TIP3    H131597   5.029   4.784   4.879 -0.8678  1.5123 -1.5617
 3394TIP3    H231598   4.980   4.673   4.787 -0.2106  0.6589 -0.8969
 3395TIP3   OH231599   4.734   5.813   5.631 -0.0975  0.9691 -0.7018
 3395TIP3    H131600   4.709   5.752   5.561 -1.7220  0.8073 -0.0105
 3395TIP3    H231601   4.670   5.883   5.627 -0.5774  0.6775  0.9589
 3396TIP3   OH231602   3.586   6.401   2.436 -0.3988  0.1266 -0.4279
 3396TIP3    H131603   3.673   6.401   2.476 -0.2913 -2.0858 -0.5607
 3396TIP3    H231604   3.575   6.490   2.402  1.5887  0.5903  0.0288
 3397TIP3   OH231605   2.144   5.941  12.155  0.2263 -0.3061  0.4334
 3397TIP3    H131606   2.150   5.911  12.064  1.3259 -2.9795  1.2753
 3397TIP3    H231607   2.070   5.891  12.192  0.2916  0.1422  1.2004
 3398TIP3   OH231608   5.453   4.155   4.626 -0.4877 -0.2175 -0.3871
 3398TIP3    H131609   5.364   4.191   4.622 -0.2263  1.2359  3.2021
 3398TIP3    H231610   5.510   4.231   4.616  0.2449 -0.5838  0.8691
 3399TIP3   OH231611   1.276   6.303  11.355  0.0430  0.1553  0.2217
 3399TIP3    H131612   1.230   6.219  11.354 -1.9431  1.1709  0.9784
 3399TIP3    H231613   1.208   6.367  11.376  1.5698  1.9248 -0.0057
 3400TIP3   OH231614   6.401   1.076   5.501  0.7568 -0.7985  0.3389
 3400TIP3    H131615   6.344   1.003   5.476  0.5404  0.1038 -2.0663
 3400TIP3    H231616   6.424   1.058   5.592 -1.6821 -2.2681  0.7498
 3401TIP3   OH231617   0.408   3.913  14.242 -0.2244  0.7847  0.5033
 3401TIP3    H131618   0.497   3.894  14.211 -0.8497  0.6404 -1.3541
 3401TIP3    H231619   0.406   3.879  14.331  1.2069 -0.3849  0.1330
 3402TIP3   OH231620   2.381   6.098   5.532  0.3641  0.3150 -0.1164
 3402TIP3    H131621   2.376   6.156   5.608  0.7087 -1.2294  1.1189
 3402TIP3    H231622   2.295   6.056   5.528 -0.2123  1.5284 -1.5677
 3403TIP3   OH231623   6.486   2.887  16.060 -0.4408  0.0066 -0.0746
 3403TIP3    H131624   6.477   2.836  16.140 -1.3830  1.2338  0.6459
 3403TIP3    H231625   6.568   2.935  16.070 -0.8714  0.6402  0.4535
 3404TIP3   OH231626   5.760   0.324   4.720 -0.0870  0.7347  0.5488
 3404TIP3    H131627   5.678   0.323   4.770 -1.7415  1.1998 -1.9695
 3404TIP3    H231628   5.749   0.255   4.655  0.8930  1.7246 -0.7161
 3405TIP3   OH231629   0.447   0.230   0.205  0.0554 -0.0844 -0.2367
 3405TIP3    H131630   0.359   0.245   0.240 -0.3564  1.1992 -1.7240
 3405TIP3    H231631   0.506   0.271   0.269 -0.5122  0.1656  0.1259
 3406TIP3   OH231632   0.971   2.074   3.045  0.8344 -0.0742 -0.0469
 3406TIP3    H131633   0.889   2.095   3.090  0.5248  0.2971 -0.7662
 3406TIP3    H231634   1.014   2.010   3.102  0.0754 -0.2267  0.3692
 3407TIP3   OH231635   6.315   0.417   2.301  0.0302 -0.1699 -0.3032
 3407TIP3    H131636   6.225   0.394   2.323  0.6189  0.0582  2.7820
 3407TIP3    H231637   6.343   0.475   2.372  2.5581 -0.1227 -1.2401
 3408TIP3   OH231638   1.767   2.293   2.253  0.3471  0.7248 -0.2546
 3408TIP3    H131639   1.763   2.361   2.319  0.3291  0.0964  0.4053
 3408TIP3    H231640   1.770   2.211   2.303  1.2076  0.2758 -1.0072
 3409TIP3   OH231641   5.656   1.416   0.969  0.2787 -0.8959  0.0282
 3409TIP3    H131642   5.709   1.493   0.950  1.5557 -1.9742 -0.9759
 3409TIP3    H231643   5.594   1.411   0.896  0.8576 -1.3821 -0.4285
 3410TIP3   OH231644   6.583   1.302   4.244 -0.4245  0.6324  0.9258
 3410TIP3    H131645   6.535   1.366   4.296 -1.0305  0.5909  0.4238
 3410TIP3    H231646   6.602   1.347   4.162  0.9873  0.8801  1.3461
 3411TIP3   OH231647   2.879   2.947   5.275  0.2977  0.0618 -0.4111
 3411TIP3    H131648   2.939   2.992   5.334  1.6920 -1.0409 -0.9215
 3411TIP3    H231649   2.935   2.917   5.203 -0.9373 -0.7337 -1.0706
 3412TIP3   OH231650   4.883   4.566  16.653  0.5817 -0.5536 -0.2918
 3412TIP3    H131651   4.978   4.557  16.658  0.6107 -1.2892 -1.5916
 3412TIP3    H231652   4.866   4.588  16.561 -0.5987 -2.0105 -0.4635
 3413TIP3   OH231653   3.955   4.943   2.282  0.2982 -0.1032  0.0084
 3413TIP3    H131654   3.962   5.019   2.224 -0.8678 -0.3703 -0.5091
 3413TIP3    H231655   3.961   4.980   2.370 -0.8651  0.6865 -0.2161
 3414TIP3   OH231656   4.170   1.528  13.579  0.3805  0.2066 -0.6574
 3414TIP3    H131657   4.158   1.486  13.494 -1.1997  0.1628 -0.4349
 3414TIP3    H231658   4.200   1.617  13.558 -1.4029  0.6821 -1.3502
 3415TIP3   OH231659   3.484   4.233  15.085 -0.2869 -0.5576  1.0085
 3415TIP3    H131660   3.571   4.196  15.073  0.0860  0.4413  0.5612
 3415TIP3    H231661   3.464   4.215  15.177 -0.8062 -3.2518  0.4527
 3416TIP3   OH231662   5.060   1.437  10.883  0.3613 -0.3532  0.8846
 3416TIP3    H131663   4.966   1.450  10.895  0.5675  0.1405  2.1798
 3416TIP3    H231664   5.067   1.385  10.803 -1.0607 -1.1987  1.2600
 3417TIP3   OH231665   5.557   1.289   0.448  0.2630  0.5121 -0.3762
 3417TIP3    H131666   5.510   1.350   0.390  0.8283  0.4397 -0.9151
 3417TIP3    H231667   5.644   1.281   0.409 -0.0191 -1.2144 -0.7412
 3418TIP3   OH231668   1.885   5.427   0.696  0.7469 -0.7372  0.0971
 3418TIP3    H131669   1.945   5.486   0.743  0.7516 -1.1864  0.6610
 3418TIP3    H231670   1.821   5.401   0.762  2.0210 -3.1399  0.4744
 3419TIP3   OH231671   4.041   5.296  16.461 -0.0979  0.1017  0.4321
 3419TIP3    H131672   3.973   5.233  16.437  0.9726 -2.3510  3.1823
 3419TIP3    H231673   4.120   5.263  16.418 -0.0377  1.1736 -0.2969
 3420TIP3   OH231674   2.962   4.863  14.473 -0.3472 -0.0200  0.0679
 3420TIP3    H131675   2.950   4.842  14.566  2.7442  2.9938  1.3766
 3420TIP3    H231676   3.054   4.847  14.456 -0.5566  0.7503 -2.1292
 3421TIP3   OH231677   4.210   1.670   2.498  0.3986  0.2242 -0.6766
 3421TIP3    H131678   4.178   1.580   2.510 -1.3028  0.8677 -0.0506
 3421TIP3    H231679   4.303   1.660   2.480  0.4594 -1.6135  0.3757
 3422TIP3   OH231680   2.936   0.840  13.701  0.2886  1.0288  0.0461
 3422TIP3    H131681   3.009   0.901  13.708  0.3815  1.0376 -0.9839
 3422TIP3    H231682   2.966   0.762  13.748  1.2704  0.7482 -1.0153
 3423TIP3   OH231683   2.753   0.908  15.225  0.5977  0.0278 -0.1050
 3423TIP3    H131684   2.819   0.963  15.183  0.4361  1.4880  1.4215
 3423TIP3    H231685   2.762   0.823  15.183  1.8519  0.8211 -1.5551
 3424TIP3   OH231686   3.164   1.642   4.626 -0.5922 -0.0014  0.1853
 3424TIP3    H131687   3.194   1.555   4.655 -0.8689 -0.4337 -0.7794
 3424TIP3    H231688   3.244   1.694   4.620  0.3085 -1.4679 -3.4767
 3425TIP3   OH231689   5.133   5.120   3.711  0.0175 -0.6469 -0.3129
 3425TIP3    H131690   5.122   5.187   3.778  0.5205 -1.2770  0.4090
 3425TIP3    H231691   5.209   5.149   3.661  1.2931 -1.5079  1.0481
 3426TIP3   OH231692   5.069   6.599  11.941 -0.0190  0.7145 -0.0211
 3426TIP3    H131693   5.126   6.559  12.006 -0.7724 -0.0076  0.2125
 3426TIP3    H231694   4.989   6.547  11.944 -0.4799  1.3596 -0.7414
 3427TIP3   OH231695   4.755   0.645   0.639 -0.2257 -0.2065 -0.7013
 3427TIP3    H131696   4.776   0.552   0.638 -2.1790 -0.7276  1.1584
 3427TIP3    H231697   4.667   0.650   0.602 -1.0128  0.5981  1.1704
 3428TIP3   OH231698   0.953   4.871  16.500 -0.2489 -0.2173  0.5017
 3428TIP3    H131699   0.985   4.823  16.423 -0.1316 -1.1926  1.1534
 3428TIP3    H231700   1.032   4.887  16.552 -0.3246  0.4823  0.4153
 3429TIP3   OH231701   6.341   4.658   5.856 -0.3041  0.3889  0.3018
 3429TIP3    H131702   6.356   4.718   5.783 -1.9602  2.2485  1.3827
 3429TIP3    H231703   6.299   4.712   5.922 -0.6648 -1.7083  1.8683
 3430TIP3   OH231704   6.599   6.522  13.159 -0.5850  0.1844 -0.4667
 3430TIP3    H131705   6.507   6.541  13.142 -0.7448 -1.0871 -1.1182
 3430TIP3    H231706   6.647   6.588  13.110 -1.1325  1.4355  0.6102
 3431TIP3   OH231707   1.942   3.999   3.300  0.7038 -0.1878 -0.1686
 3431TIP3    H131708   1.889   4.009   3.379 -0.4274 -0.1725 -0.8977
 3431TIP3    H231709   2.001   3.926   3.319 -0.5813 -1.1806  0.1687
 3432TIP3   OH231710   0.567   0.572  11.806 -0.5802 -0.2915  0.0248
 3432TIP3    H131711   0.555   0.573  11.711  3.1093  0.4156 -0.5712
 3432TIP3    H231712   0.617   0.492  11.822  1.0293  0.8644  0.9773
 3433TIP3   OH231713   1.912   5.067  11.057 -0.5491 -0.2578  0.0114
 3433TIP3    H131714   1.843   5.117  11.101 -0.0579 -0.1444  0.6747
 3433TIP3    H231715   1.876   4.979  11.049 -0.4140 -0.4504  1.2544
 3434TIP3   OH231716   2.043   2.376   0.822 -0.1559  0.0470  0.1188
 3434TIP3    H131717   1.969   2.413   0.774  0.5914  0.8316 -0.4449
 3434TIP3    H231718   2.006   2.350   0.907 -0.9216  1.1217  0.1312
 3435TIP3   OH231719   5.738   3.564  15.522 -0.3399  0.2589  0.5994
 3435TIP3    H131720   5.753   3.559  15.427 -2.5388 -0.6520  0.2330
 3435TIP3    H231721   5.716   3.475  15.548 -0.6689  0.6643  1.8015
 3436TIP3   OH231722   5.442   6.729   1.274 -0.0946 -0.3946 -0.1271
 3436TIP3    H131723   5.524   6.689   1.304 -0.1608 -1.2303 -1.0090
 3436TIP3    H231724   5.411   6.671   1.205 -0.4053  0.9891 -1.1945
 3437TIP3   OH231725   2.403   3.433   4.480  0.4712 -0.1687 -0.0910
 3437TIP3    H131726   2.494   3.463   4.486  0.6150 -0.3704 -1.1164
 3437TIP3    H231727   2.353   3.511   4.455  0.6881 -0.5129 -1.6759
 3438TIP3   OH231728   5.520   0.254  14.859 -0.4189  0.3299 -0.1201
 3438TIP3    H131729   5.595   0.222  14.808  0.6507  1.3585  0.7272
 3438TIP3    H231730   5.443   0.223  14.811  0.5328 -1.3047 -0.6753
 3439TIP3   OH231731   1.904   3.444   3.679 -0.1814 -0.4401 -0.0339
 3439TIP3    H131732   1.945   3.412   3.760 -0.2299  1.1813  0.6780
 3439TIP3    H231733   1.907   3.540   3.687  2.7331 -0.0350 -3.4309
 3440TIP3   OH231734   3.177   4.122   3.853  0.4385  0.2806 -0.3195
 3440TIP3    H131735   3.123   4.058   3.808  1.4260 -0.2613 -0.7756
 3440TIP3    H231736   3.128   4.204   3.847 -1.2519 -0.5695  1.0110
 3441TIP3   OH231737   1.128   6.310  14.555 -0.1151 -0.1497 -0.2207
 3441TIP3    H131738   1.151   6.402  14.544 -0.8769 -0.0081 -0.6909
 3441TIP3    H231739   1.212   6.265  14.559  0.3131  0.2040 -3.0988
 3442TIP3   OH231740   5.164   2.592  12.230 -0.2563 -0.2536  0.6950
 3442TIP3    H131741   5.176   2.511  12.280 -0.7209 -0.5872  0.2728
 3442TIP3    H231742   5.119   2.564  12.150  0.4558  0.2840  0.1027
 3443TIP3   OH231743   6.143   4.895   0.021  0.3347 -0.2259  0.0787
 3443TIP3    H131744   6.119   4.980  -0.016 -1.0020 -1.4058 -1.9404
 3443TIP3    H231745   6.127   4.832  -0.049  0.5921 -2.2645  1.7290
 3444TIP3   OH231746   5.041   0.608   5.318  0.7100 -0.6977  0.2810
 3444TIP3    H131747   5.112   0.549   5.295  0.2497 -1.3201  0.4195
 3444TIP3    H231748   5.083   0.693   5.329  1.2859 -0.8559 -0.5719
 3445TIP3   OH231749   5.841   4.761  15.820 -0.1296  0.0829  0.1010
 3445TIP3    H131750   5.780   4.722  15.882  1.1084 -3.6151 -0.6890
 3445TIP3    H231751   5.786   4.793  15.748 -1.4834  3.3872  2.3577
 3446TIP3   OH231752   1.189   2.221   0.265 -0.5613 -0.0520 -0.1992
 3446TIP3    H131753   1.127   2.246   0.333 -0.2748 -1.4265  0.6078
 3446TIP3    H231754   1.183   2.126   0.260  0.7345 -0.1314 -0.8268
 3447TIP3   OH231755   0.934   3.251  14.393  0.2258 -0.4824  0.7299
 3447TIP3    H131756   0.921   3.178  14.453 -1.5363 -1.2233 -0.4974
 3447TIP3    H231757   0.888   3.324  14.434  0.6277 -0.4666  1.1691
 3448TIP3   OH231758   3.958   2.337   3.422 -0.3006 -0.4110 -0.8938
 3448TIP3    H131759   3.890   2.273   3.401  0.5499 -0.7309 -2.9152
 3448TIP3    H231760   4.007   2.348   3.341  0.3907  1.8643 -0.2535
 3449TIP3   OH231761   4.508   3.436  16.676  0.0228 -0.4248  0.1924
 3449TIP3    H131762   4.569   3.465  16.607  0.2969  1.7310  1.2541
 3449TIP3    H231763   4.434   3.496  16.668 -0.1847 -0.5000  1.4236
 3450TIP3   OH231764   2.625   1.574  16.882 -0.2055  0.3891  0.0492
 3450TIP3    H131765   2.580   1.489  16.889  1.6851 -0.7545 -0.8721
 3450TIP3    H231766   2.625   1.593  16.788  0.2672  0.9077  0.1514
 3451TIP3   OH231767   4.015   6.273  15.130 -0.1876  0.0158 -0.0175
 3451TIP3    H131768   3.935   6.250  15.177 -0.8811  0.7863 -0.7826
 3451TIP3    H231769   4.004   6.237  15.042  1.0680 -1.3551  0.3484
 3452TIP3   OH231770   1.492   0.679  12.836  0.5182  0.3925 -0.5216
 3452TIP3    H131771   1.465   0.709  12.749  0.0145  0.8447 -0.2164
 3452TIP3    H231772   1.568   0.623  12.819  0.1589  0.1193 -1.2884
 3453TIP3   OH231773   1.365   5.152   3.794  0.2601  0.0196 -0.7493
 3453TIP3    H131774   1.357   5.246   3.778  0.3554 -0.0813 -1.4590
 3453TIP3    H231775   1.449   5.142   3.839 -0.5468  0.4400  0.9383
 3454TIP3   OH231776   2.972   4.624   4.034  0.0858 -0.0944  0.0398
 3454TIP3    H131777   3.044   4.564   4.015 -0.5349 -0.4907 -1.2299
 3454TIP3    H231778   3.015   4.705   4.061  1.0814  0.0193 -1.6908
 3455TIP3   OH231779   4.135   0.925   4.672 -0.1340 -0.2921 -0.0254
 3455TIP3    H131780   4.148   0.840   4.630 -0.9455  0.0872 -1.1005
 3455TIP3    H231781   4.040   0.932   4.683 -0.0107  0.1149  0.8392
 3456TIP3   OH231782   1.731   0.352  10.849 -0.1331 -0.4631  0.1947
 3456TIP3    H131783   1.801   0.400  10.803  0.5027 -0.2136  1.3822
 3456TIP3    H231784   1.682   0.420  10.895 -0.2600 -0.7893  0.5395
 3457TIP3   OH231785   0.514   0.992   1.501  0.0551  0.7810 -0.0267
 3457TIP3    H131786   0.520   1.019   1.410 -0.8110  0.0373 -0.3240
 3457TIP3    H231787   0.479   0.903   1.498 -0.0637  0.7700  1.0263
 3458TIP3   OH231788   0.284   3.418  10.525 -0.1937  0.5630  0.3854
 3458TIP3    H131789   0.357   3.468  10.561  0.2150  0.7269 -0.6399
 3458TIP3    H231790   0.321   3.375  10.447 -1.1411  0.5017 -0.0382
 3459TIP3   OH231791   2.307   0.601  14.414  0.4931  0.1669  0.7023
 3459TIP3    H131792   2.392   0.616  14.456  1.5532 -0.2756 -1.1228
 3459TIP3    H231793   2.282   0.687  14.380  1.3001 -0.0718 -0.5776
 3460TIP3   OH231794   3.392   2.346   2.720  0.0425 -0.0645  0.8472
 3460TIP3    H131795   3.413   2.273   2.662  0.9901  1.1747 -0.4382
 3460TIP3    H231796   3.307   2.323   2.758  0.5210 -2.0251  0.8459
 3461TIP3   OH231797   6.123   5.843   6.460  0.3549  0.2637  0.2440
 3461TIP3    H131798   6.039   5.828   6.417 -0.3740 -1.0718  1.9860
 3461TIP3    H231799   6.122   5.936   6.483 -0.1214  0.5194 -0.7610
 3462TIP3   OH231800   4.242   1.786   3.198  0.0648 -0.2860  0.0191
 3462TIP3    H131801   4.206   1.727   3.133  0.8121 -0.5247 -0.1851
 3462TIP3    H231802   4.167   1.809   3.254 -0.3722 -0.8542 -0.3275
 3463TIP3   OH231803   3.237   0.806  14.631 -0.1348 -0.2871  0.6692
 3463TIP3    H131804   3.261   0.855  14.710 -0.4405 -1.0914  1.2793
 3463TIP3    H231805   3.148   0.833  14.612 -0.6448 -1.2501  1.5492
 3464TIP3   OH231806   2.639   2.383  13.664 -0.0155 -0.4337  0.3515
 3464TIP3    H131807   2.685   2.407  13.744 -0.4073 -0.9366  0.7350
 3464TIP3    H231808   2.554   2.352  13.694 -0.2867 -0.3295 -0.2858
 3465TIP3   OH231809   3.031   1.123   5.063  0.5962  0.3085  0.2783
 3465TIP3    H131810   3.098   1.191   5.059 -0.3651  1.2465 -0.6641
 3465TIP3    H231811   2.954   1.163   5.022  0.2090 -1.5848 -0.9752
 3466TIP3   OH231812   6.115   1.357  11.177  0.5473  0.1392 -0.2955
 3466TIP3    H131813   6.124   1.341  11.083  2.8945 -1.4952  0.1083
 3466TIP3    H231814   6.045   1.298  11.204  0.7420 -0.3617 -0.8488
 3467TIP3   OH231815   6.496   5.836  15.546 -0.3078 -0.4290  0.9770
 3467TIP3    H131816   6.493   5.844  15.451  3.3437 -0.9844  0.6707
 3467TIP3    H231817   6.440   5.762  15.567 -0.2071 -1.0650 -0.8840
 3468TIP3   OH231818   6.674   3.780   4.673  0.0329 -0.6018  0.8345
 3468TIP3    H131819   6.632   3.779   4.759 -3.0545 -0.7319 -0.5592
 3468TIP3    H231820   6.640   3.702   4.629  1.0672 -0.2021 -0.7458
 3469TIP3   OH231821   4.470   4.934  16.217  0.1071 -0.0385  0.4334
 3469TIP3    H131822   4.507   4.909  16.132  0.7341 -0.0241  0.6947
 3469TIP3    H231823   4.515   5.016  16.239 -1.6256  1.1446 -0.2213
 3470TIP3   OH231824   5.205   4.376   0.725  0.0727  0.4377 -0.0583
 3470TIP3    H131825   5.195   4.355   0.818 -0.9007 -2.0526 -0.6548
 3470TIP3    H231826   5.202   4.472   0.722  0.8100  0.6130  2.5272
 3471TIP3   OH231827   4.006   2.026   2.596 -0.1376 -0.0146  0.0189
 3471TIP3    H131828   3.914   2.043   2.619 -0.4510 -0.9108 -0.4935
 3471TIP3    H231829   4.049   2.010   2.679 -0.1403  1.7256  0.3907
 3472TIP3   OH231830   5.012   0.985  13.518  0.7138 -0.0947  0.3525
 3472TIP3    H131831   5.080   0.926  13.486  0.9570  0.1057  0.4888
 3472TIP3    H231832   5.007   1.054  13.452  0.7738 -0.0108  0.4361
 3473TIP3   OH231833   5.988   1.461  16.404 -0.3150 -0.3305 -0.3232
 3473TIP3    H131834   6.009   1.489  16.315  1.8159 -1.8355 -0.3738
 3473TIP3    H231835   5.900   1.425  16.398 -1.1655  1.7583 -1.2560
 3474TIP3   OH231836   6.699   6.754  11.359 -0.1167  0.8181 -0.1035
 3474TIP3    H131837   6.725   6.760  11.268  3.2488  1.1481  0.7470
 3474TIP3    H231838   6.653   6.670  11.365  0.6330  0.2316 -1.8916
 3475TIP3   OH231839   0.477   5.502  11.612  0.1529  0.0288 -0.5330
 3475TIP3    H131840   0.484   5.425  11.556 -0.0720 -0.1805 -0.2760
 3475TIP3    H231841   0.424   5.473  11.687  2.0071 -0.2540  0.7463
 3476TIP3   OH231842   0.500   1.233   1.334 -0.4359 -0.1099 -0.1533
 3476TIP3    H131843   0.449   1.221   1.414 -1.2612 -2.3468 -0.9343
 3476TIP3    H231844   0.437   1.261   1.268 -0.2283 -0.5397 -0.5474
 3477TIP3   OH231845   6.337   5.757  16.916 -0.6494 -0.0169 -0.1766
 3477TIP3    H131846   6.327   5.820  16.988 -1.8837  0.5288 -0.7905
 3477TIP3    H231847   6.254   5.762  16.869  0.6841  0.8825 -2.6346
 3478TIP3   OH231848   6.638   6.412  16.780  0.3938  0.2492  0.1323
 3478TIP3    H131849   6.625   6.496  16.735  2.4172  0.3728 -0.2966
 3478TIP3    H231850   6.552   6.369  16.774 -0.0197  1.2032 -1.9069
 3479TIP3   OH231851   0.012   5.212   0.342  0.1344 -0.0622  0.2865
 3479TIP3    H131852  -0.007   5.233   0.251  0.2280  2.4464  0.7874
 3479TIP3    H231853  -0.069   5.228   0.389  0.6171  0.5960  0.9221
 3480TIP3   OH231854   3.660   0.427   1.810 -0.0252 -0.1972  0.4299
 3480TIP3    H131855   3.725   0.452   1.875 -0.8647 -1.2716  1.7538
 3480TIP3    H231856   3.611   0.508   1.793 -0.9684 -0.2240  2.5869
 3481TIP3   OH231857   4.519   3.653  16.998 -0.4253 -0.1883  0.5756
 3481TIP3    H131858   4.455   3.602  16.949 -0.3427 -1.6714  1.9165
 3481TIP3    H231859   4.478   3.739  17.008 -2.4689 -1.2166  1.7824
 3482TIP3   OH231860   4.579   6.453   4.653 -0.1021 -0.0648 -0.0790
 3482TIP3    H131861   4.489   6.440   4.684  0.7002 -1.9919  1.7072
 3482TIP3    H231862   4.584   6.400   4.573 -0.5284  0.0124 -0.1628
 3483TIP3   OH231863   0.335   0.502   0.803  0.1928 -0.0173 -0.2027
 3483TIP3    H131864   0.381   0.461   0.876 -0.6097 -0.4185  0.0840
 3483TIP3    H231865   0.396   0.495   0.729  0.2120 -1.4253 -0.0741
 3484TIP3   OH231866   2.283   4.946   0.198 -0.3865 -0.2501 -0.4555
 3484TIP3    H131867   2.206   4.970   0.147 -0.7102  0.8603  0.5001
 3484TIP3    H231868   2.335   5.026   0.203  0.1323 -0.6093  0.0782
 3485TIP3   OH231869   4.010   0.083   4.762 -0.1105 -0.6599  0.1302
 3485TIP3    H131870   3.935   0.141   4.769 -0.3794 -1.0789  0.8595
 3485TIP3    H231871   4.001   0.041   4.677 -0.1420  0.0473 -0.2195
 3486TIP3   OH231872   0.497   0.188  16.828 -0.0491  0.4746  0.2917
 3486TIP3    H131873   0.449   0.174  16.747 -0.5729  1.8842  0.3333
 3486TIP3    H231874   0.585   0.214  16.800  0.3313 -0.8115  0.2119
 3487TIP3   OH231875   0.402   0.902  10.566 -0.2702  0.2153  0.1749
 3487TIP3    H131876   0.371   0.933  10.481 -2.1720  0.2241  0.8139
 3487TIP3    H231877   0.324   0.862  10.606  0.6061  0.1159  1.8593
 3488TIP3   OH231878   3.325   3.245   6.223 -0.1836 -0.1479  0.5232
 3488TIP3    H131879   3.308   3.153   6.200  1.2383 -0.1113 -0.8198
 3488TIP3    H231880   3.327   3.246   6.319 -2.9106 -0.9755  0.6982
 3489TIP3   OH231881   1.423   2.228  11.855 -0.3315  0.8054  0.4932
 3489TIP3    H131882   1.388   2.260  11.772 -0.3067  1.8734  0.8792
 3489TIP3    H231883   1.489   2.293  11.881  0.5899 -0.1766  0.7241
 3490TIP3   OH231884   0.708   1.899  11.211 -0.4504 -0.2697  0.6344
 3490TIP3    H131885   0.667   1.814  11.196  0.3561 -0.8433  1.5800
 3490TIP3    H231886   0.792   1.878  11.253  0.0714  0.9578  0.2495
 3491TIP3   OH231887   0.919   0.086   1.737  0.1943 -0.3217 -0.3535
 3491TIP3    H131888   1.005   0.106   1.701  0.8380 -2.8629 -0.3931
 3491TIP3    H231889   0.864   0.072   1.661  0.0853 -0.0356 -0.3284
 3492TIP3   OH231890   4.188   4.793  14.870  0.8004 -0.1736  0.5783
 3492TIP3    H131891   4.218   4.726  14.809  1.3308  0.1793  0.4527
 3492TIP3    H231892   4.184   4.873  14.818  1.3484  0.1495  1.0321
 3493TIP3   OH231893   4.310   6.332   2.436  0.3441 -0.0034  0.5812
 3493TIP3    H131894   4.317   6.398   2.505  0.5692 -0.4262  0.9770
 3493TIP3    H231895   4.278   6.379   2.360  0.7186  0.6068  0.7910
 3494TIP3   OH231896   4.850   5.592  14.557 -0.0391  0.2362  0.5569
 3494TIP3    H131897   4.893   5.588  14.642  2.0593 -0.8769 -0.4715
 3494TIP3    H231898   4.859   5.504  14.521 -1.8383  0.4003 -0.4154
 3495TIP3   OH231899   1.965   1.358   2.762  0.0417 -0.6207 -0.4382
 3495TIP3    H131900   2.054   1.324   2.770  0.1803 -0.4419 -1.0964
 3495TIP3    H231901   1.931   1.359   2.851  1.5893  1.6884  0.2224
 3496TIP3   OH231902   1.194   1.694   2.238  0.0950 -0.1484  0.6012
 3496TIP3    H131903   1.230   1.647   2.163 -0.2027 -0.6123  0.7424
 3496TIP3    H231904   1.270   1.737   2.278  0.2700  0.0112  0.1004
 3497TIP3   OH231905   1.105   4.169   3.172  0.5911  0.1620  0.5082
 3497TIP3    H131906   1.104   4.138   3.262 -0.1990  3.4050  1.7463
 3497TIP3    H231907   1.194   4.203   3.158  0.4689  0.4210  0.3464
 3498TIP3   OH231908   2.413   4.928  15.837  0.0657 -0.5303 -0.1724
 3498TIP3    H131909   2.446   4.853  15.788 -0.4325 -0.7739 -0.1365
 3498TIP3    H231910   2.492   4.971  15.871  0.3427 -1.1735  0.0062
 3499TIP3   OH231911   4.509   5.045   2.592 -0.1797 -0.3102  0.7204
 3499TIP3    H131912   4.544   4.985   2.658  0.7226 -0.7900 -0.1634
 3499TIP3    H231913   4.584   5.098   2.567  0.4282 -2.3819 -2.3538
 3500TIP3   OH231914   3.514   5.799   1.575 -0.9136 -0.8859 -0.0347
 3500TIP3    H131915   3.529   5.865   1.644  0.8784 -0.9292 -0.3478
 3500TIP3    H231916   3.475   5.725   1.622 -1.4313 -0.2310  0.6062
 3501TIP3   OH231917   1.852   0.271   2.474  0.6596 -0.1946 -0.4253
 3501TIP3    H131918   1.865   0.359   2.437  1.4666 -0.7135 -1.4465
 3501TIP3    H231919   1.853   0.214   2.397  0.4648 -1.1277  0.2616
 3502TIP3   OH231920   2.067   1.562  11.567  0.5227 -0.0392  0.3565
 3502TIP3    H131921   2.150   1.528  11.536  1.0903  2.6682 -1.4373
 3502TIP3    H231922   2.013   1.570  11.488 -1.2570 -1.0783  1.3769
 3503TIP3   OH231923   4.951   4.296   0.888  0.3487  0.0362  0.5137
 3503TIP3    H131924   5.003   4.366   0.929 -0.9472  0.1724  1.9868
 3503TIP3    H231925   4.894   4.341   0.826  0.7424  0.0697  0.1678
 3504TIP3   OH231926   0.574   1.166   4.924  0.0270  0.0379  0.2360
 3504TIP3    H131927   0.536   1.202   5.005  0.0748  0.8513 -0.0996
 3504TIP3    H231928   0.498   1.141   4.871 -0.0048 -1.5246  0.9700
 3505TIP3   OH231929   0.187   3.029  13.373  0.3271 -0.0829  0.3621
 3505TIP3    H131930   0.240   2.989  13.304  0.6373 -0.1469  0.6369
 3505TIP3    H231931   0.098   3.025  13.340  0.5151  0.2131 -0.1983
 3506TIP3   OH231932   3.152   6.308   0.601  0.1499  0.3917 -0.5700
 3506TIP3    H131933   3.168   6.385   0.547  1.3000  0.4672 -0.1315
 3506TIP3    H231934   3.238   6.270   0.616 -0.4417 -1.3247 -1.2659
 3507TIP3   OH231935   0.098   1.107   0.615  0.1688 -0.3358  0.1266
 3507TIP3    H131936   0.017   1.155   0.634  1.5241  2.7698 -1.1927
 3507TIP3    H231937   0.073   1.043   0.548 -1.1300  0.9358 -0.6714
 3508TIP3   OH231938   6.297   6.095   0.502  0.4233 -0.4534  0.0960
 3508TIP3    H131939   6.371   6.095   0.441  0.8540  0.1509  0.6006
 3508TIP3    H231940   6.227   6.141   0.455 -0.6887 -3.5511 -1.5599
 3509TIP3   OH231941   5.497   6.381  14.617  0.2112 -0.2893 -0.5256
 3509TIP3    H131942   5.535   6.306  14.663 -0.7463 -0.0823  0.6386
 3509TIP3    H231943   5.418   6.402  14.666  1.0525  2.2341 -0.1169
 3510TIP3   OH231944   1.403   0.303   0.137 -0.1788  0.0079 -0.1747
 3510TIP3    H131945   1.405   0.396   0.115 -2.8372  0.5705  1.4514
 3510TIP3    H231946   1.473   0.292   0.202  1.1160  0.4920 -1.4326
 3511TIP3   OH231947   0.860   5.141  12.781 -0.3479  0.0173 -0.0233
 3511TIP3    H131948   0.927   5.133  12.848  0.7933 -0.5027 -1.1736
 3511TIP3    H231949   0.779   5.157  12.829 -0.0230 -2.6821  1.6493
 3512TIP3   OH231950   1.724   3.272  14.851 -0.1704  0.1112  0.5124
 3512TIP3    H131951   1.668   3.196  14.836  0.2743 -0.2129  0.4779
 3512TIP3    H231952   1.788   3.243  14.916 -0.7042  0.8152  1.3753
 3513TIP3   OH231953   6.014   1.818  11.557 -0.2187  0.2322 -0.4733
 3513TIP3    H131954   6.087   1.839  11.617  0.1070  0.2223 -0.8635
 3513TIP3    H231955   5.953   1.768  11.611 -0.1591  0.6448 -0.0126
 3514TIP3   OH231956   2.612   4.219  13.261  0.3593 -0.1680 -0.1626
 3514TIP3    H131957   2.569   4.137  13.285  0.5159 -0.6800 -1.5455
 3514TIP3    H231958   2.656   4.200  13.179  0.7410  1.1979 -0.2989
 3515TIP3   OH231959   2.655   4.252  12.213  0.1373  0.4998  0.3129
 3515TIP3    H131960   2.643   4.328  12.157 -0.7621  0.5058  0.4975
 3515TIP3    H231961   2.679   4.288  12.299 -0.2256  0.5764  0.3838
 3516TIP3   OH231962   3.969   4.132   3.248  0.4455 -0.5996  0.1042
 3516TIP3    H131963   3.915   4.102   3.321  0.8577 -1.3653  0.1074
 3516TIP3    H231964   4.054   4.152   3.288  0.2857  0.2679  0.0417
 3517TIP3   OH231965   6.756   0.171  11.936  0.6863  0.2233  0.1684
 3517TIP3    H131966   6.749   0.255  11.980  0.6244 -0.6378  1.9004
 3517TIP3    H231967   6.841   0.173  11.892  1.5232  0.5032  1.7491
 3518TIP3   OH231968   2.115   5.726  12.715 -0.2526  0.4799 -0.0594
 3518TIP3    H131969   2.112   5.646  12.662 -0.2848  0.2465  0.2918
 3518TIP3    H231970   2.103   5.797  12.651  1.6210  0.3213 -0.6433
 3519TIP3   OH231971   4.383   3.935   2.006 -0.1551 -0.5276  0.2253
 3519TIP3    H131972   4.375   4.028   1.988 -0.4163 -0.5832  0.0432
 3519TIP3    H231973   4.400   3.929   2.100 -0.6667 -0.3225  0.3303
 3520TIP3   OH231974   5.205   2.855  16.660  0.0817  0.1677 -0.4485
 3520TIP3    H131975   5.213   2.946  16.688  0.9814  0.6094 -2.0338
 3520TIP3    H231976   5.229   2.803  16.737 -0.8048  1.2371  0.5859
 3521TIP3   OH231977   4.197   3.175  14.868 -0.2409  0.1576 -0.4640
 3521TIP3    H131978   4.293   3.170  14.868 -0.1975 -0.1057  2.1051
 3521TIP3    H231979   4.170   3.104  14.810  1.1053 -0.1418 -0.7647
 3522TIP3   OH231980   3.874   6.185   4.161 -0.3943  0.5552 -0.5444
 3522TIP3    H131981   3.792   6.235   4.166 -1.3373 -1.0140  0.7478
 3522TIP3    H231982   3.868   6.122   4.233  1.5820 -0.1717 -0.9545
 3523TIP3   OH231983   4.834   1.286  16.815  0.0314 -0.0142  0.2015
 3523TIP3    H131984   4.837   1.291  16.720  1.6273 -0.4816  0.1819
 3523TIP3    H231985   4.770   1.217  16.834 -0.2853  0.0712 -0.5285
 3524TIP3   OH231986   2.119   1.851   3.265  0.7420  0.1790 -0.0152
 3524TIP3    H131987   2.073   1.794   3.328  0.3877  1.1155  0.5996
 3524TIP3    H231988   2.202   1.807   3.249  0.3199 -0.7033  0.1625
 3525TIP3   OH231989   5.306   5.100  11.486  0.0926  0.2043  0.1543
 3525TIP3    H131990   5.391   5.082  11.525  0.3681  1.5154  0.2106
 3525TIP3    H231991   5.299   5.195  11.487 -1.3668  0.1187  0.1124
 3526TIP3   OH231992   4.483   5.561   0.573 -0.3525 -0.3070 -0.1412
 3526TIP3    H131993   4.480   5.633   0.510 -3.0736  1.1759  1.4678
 3526TIP3    H231994   4.477   5.482   0.520 -1.1956  0.8124 -1.8099
 3527TIP3   OH231995   1.872   0.977   4.871  0.5119 -0.1254  0.5743
 3527TIP3    H131996   1.955   0.963   4.916  0.1492  0.7991  1.5584
 3527TIP3    H231997   1.865   1.072   4.861  1.3591 -0.3080 -2.9965
 3528TIP3   OH231998   1.541   5.955   1.534 -0.3804  0.0413  0.1327
 3528TIP3    H131999   1.502   5.953   1.447  0.9952 -0.1768 -0.5100
 3528TIP3    H232000   1.467   5.946   1.594 -1.2840 -0.4627 -1.0186
 3529TIP3   OH232001   2.053   6.164  11.904  0.3881 -0.2487  0.1299
 3529TIP3    H132002   1.984   6.195  11.962  1.4681 -0.2596  1.4531
 3529TIP3    H232003   2.134   6.199  11.941  1.0527  0.4458 -1.8431
 3530TIP3   OH232004   1.821   5.275   2.718 -0.3223  0.2158 -0.4448
 3530TIP3    H132005   1.748   5.278   2.657 -0.1577 -2.1119 -0.8565
 3530TIP3    H232006   1.784   5.301   2.802 -1.8041 -1.4661 -0.5317
 3531TIP3   OH232007   3.713   5.482   5.309  0.3464 -0.3020 -0.1365
 3531TIP3    H132008   3.707   5.423   5.384 -0.5137 -0.6307 -0.4439
 3531TIP3    H232009   3.698   5.569   5.346  0.1473 -0.4381  0.1086
 3532TIP3   OH232010   1.699   5.856   0.432 -0.0842  0.5705  0.6607
 3532TIP3    H132011   1.693   5.800   0.355 -1.8715  1.3664  0.1766
 3532TIP3    H232012   1.764   5.922   0.408 -1.0598  1.1754 -0.4464
 3533TIP3   OH232013   6.283   0.005  13.108  0.5376 -0.5229  0.0096
 3533TIP3    H132014   6.316   0.021  13.197  0.9157  0.8804 -0.3592
 3533TIP3    H232015   6.218   0.074  13.094 -0.0082 -1.1422 -0.5678
 3534TIP3   OH232016   2.463   1.963   6.096  0.1041 -0.1738 -0.3094
 3534TIP3    H132017   2.505   1.878   6.112  0.0747 -0.0876  0.2662
 3534TIP3    H232018   2.401   1.973   6.169  1.0107  0.9112  0.3461
 3535TIP3   OH232019   1.526   3.105  14.756  0.3297 -0.1369  0.3190
 3535TIP3    H132020   1.497   3.188  14.718 -2.9301 -0.8535  0.9395
 3535TIP3    H232021   1.537   3.047  14.681 -0.0683  0.0988  0.0761
 3536TIP3   OH232022   0.702   2.432   3.998 -0.0298 -0.0168  0.2489
 3536TIP3    H132023   0.780   2.383   3.969  0.7166  0.7130  0.9490
 3536TIP3    H232024   0.678   2.485   3.923  0.9177  0.6755  0.4113
 3537TIP3   OH232025   3.037   1.753   2.022 -0.2824  0.0145  0.2143
 3537TIP3    H132026   3.107   1.736   2.086  0.5966 -1.6899 -1.1156
 3537TIP3    H232027   3.058   1.697   1.948 -1.5371  1.5783 -1.4093
 3538TIP3   OH232028   1.098   1.697   0.025 -0.3054  0.2730  0.3512
 3538TIP3    H132029   1.060   1.614  -0.007  1.1738 -0.2779 -0.0568
 3538TIP3    H232030   1.098   1.754  -0.052  0.6919 -0.1107  0.0512
 3539TIP3   OH232031   0.019   5.374  17.054 -0.4634  0.1758 -0.0330
 3539TIP3    H132032   0.063   5.388  16.970  0.7267 -2.1491  0.1244
 3539TIP3    H232033   0.084   5.329  17.108 -1.6435  0.4693  1.7025
 3540TIP3   OH232034   5.978   2.177   4.922  0.2291  0.2179 -0.6610
 3540TIP3    H132035   5.915   2.170   4.994  0.7713 -0.6550 -0.2623
 3540TIP3    H232036   6.032   2.098   4.928  0.6875  0.4339 -1.6477
 3541TIP3   OH232037   0.246   2.528  11.851  0.1140  0.4448  0.0023
 3541TIP3    H132038   0.224   2.546  11.760  0.5442  2.2487  0.2027
 3541TIP3    H232039   0.201   2.597  11.900  3.2617  2.2016  0.7222
 3542TIP3   OH232040   1.864   1.290  11.968 -0.4376 -0.8901 -0.1947
 3542TIP3    H132041   1.776   1.275  12.003 -0.3278 -2.0859 -0.4023
 3542TIP3    H232042   1.850   1.351  11.895 -1.2827 -2.0744 -1.0546
 3543TIP3   OH232043   4.678   3.756   5.198 -0.5177  0.1523 -0.7960
 3543TIP3    H132044   4.591   3.779   5.165 -1.1469 -2.2868 -1.0189
 3543TIP3    H232045   4.670   3.762   5.293 -0.7338  0.5017 -0.8327
 3544TIP3   OH232046   0.888   3.932  17.046  0.1830  0.1787 -0.4320
 3544TIP3    H132047   0.886   3.871  17.119  1.4465  0.3000 -0.2764
 3544TIP3    H232048   0.828   4.002  17.072 -1.0786 -0.8368 -0.5024
 3545TIP3   OH232049   0.814   0.508  15.097  0.2288  0.2883  0.4794
 3545TIP3    H132050   0.749   0.463  15.044  0.8560  0.3154 -0.3377
 3545TIP3    H232051   0.769   0.586  15.130  0.4855  1.6696 -2.1006
 3546TIP3   OH232052   4.062   1.526  12.401  0.2940 -0.3428  0.6427
 3546TIP3    H132053   4.084   1.521  12.494  1.0690 -0.1311  0.4751
 3546TIP3    H232054   3.972   1.561  12.399 -0.5722 -2.4115  1.3751
 3547TIP3   OH232055   5.348   4.865   1.750 -0.3490  0.0946 -0.5704
 3547TIP3    H132056   5.312   4.929   1.812  0.3503  0.7304 -0.8152
 3547TIP3    H232057   5.286   4.866   1.676 -0.2293  0.6381 -0.6642
 3548TIP3   OH232058   1.607   6.523  13.600 -0.1125  0.0831  0.4212
 3548TIP3    H132059   1.690   6.507  13.556 -0.0988  0.9309  0.1207
 3548TIP3    H232060   1.603   6.455  13.668  0.4548 -0.4442 -0.0569
 3549TIP3   OH232061   1.184   2.357   3.447 -0.0332  0.6686  0.1534
 3549TIP3    H132062   1.226   2.295   3.507 -1.9041 -1.3895 -0.4995
 3549TIP3    H232063   1.233   2.351   3.366  1.4190  2.1339  0.8622
 3550TIP3   OH232064   5.975   3.046  15.627 -0.5063  0.0749 -0.0844
 3550TIP3    H132065   6.048   3.007  15.579  1.5160  2.0734  1.1658
 3550TIP3    H232066   5.907   2.979  15.625  0.3492 -0.9121 -3.5058
 3551TIP3   OH232067   5.874   3.754   4.304  0.3430  0.0206  0.0650
 3551TIP3    H132068   5.822   3.817   4.255  0.9965  0.5763  0.0750
 3551TIP3    H232069   5.860   3.776   4.396 -1.8979 -1.8129  0.2586
 3552TIP3   OH232070   5.797   5.395   5.532 -0.2913  0.5305 -0.1935
 3552TIP3    H132071   5.830   5.419   5.619 -0.3199  1.8445 -0.5242
 3552TIP3    H232072   5.704   5.417   5.535 -0.3083  0.5087 -0.5398
 3553TIP3   OH232073   1.519   1.559  10.426 -0.1834 -0.0348  0.3115
 3553TIP3    H132074   1.426   1.538  10.439 -0.2324  0.3948  0.7095
 3553TIP3    H232075   1.519   1.653  10.405  0.0359 -0.3671 -1.2868
 3554TIP3   OH232076   6.383   2.502   4.488 -0.1257 -0.0234  0.1317
 3554TIP3    H132077   6.374   2.407   4.494  4.5209 -0.6293  1.2327
 3554TIP3    H232078   6.360   2.523   4.397  1.2572 -2.6453 -0.9207
 3555TIP3   OH232079   2.355   1.524  12.745  0.6098  0.3207 -0.0021
 3555TIP3    H132080   2.289   1.584  12.779 -1.2657 -0.1230 -2.5465
 3555TIP3    H232081   2.374   1.555  12.657  0.6344 -1.9553 -0.8792
 3556TIP3   OH232082   3.044   5.500   0.408  0.3535 -0.2641 -0.1381
 3556TIP3    H132083   3.001   5.450   0.477  0.9791 -1.1221 -0.3457
 3556TIP3    H232084   3.085   5.573   0.453 -0.8511  0.2738  0.1329
 3557TIP3   OH232085   1.284   6.362   1.128 -0.1568  0.0605 -0.0140
 3557TIP3    H132086   1.375   6.375   1.154  0.4634 -0.3888 -1.8277
 3557TIP3    H232087   1.276   6.267   1.114 -1.0040  0.0512  0.4758
 3558TIP3   OH232088   1.015   0.050  12.057  0.2063 -0.2738 -0.6445
 3558TIP3    H132089   1.045   0.114  11.993  2.6689 -2.3734 -1.7525
 3558TIP3    H232090   1.003  -0.030  12.007  2.0897 -1.9755  1.4299
 3559TIP3   OH232091   0.860   1.498  10.976 -0.7159 -0.1886  0.1490
 3559TIP3    H132092   0.830   1.514  11.066 -0.2903 -0.6865  0.3877
 3559TIP3    H232093   0.926   1.566  10.961 -0.0734 -0.7056  0.5773
 3560TIP3   OH232094   3.011   5.910  11.880 -0.2365 -0.3757 -0.5071
 3560TIP3    H132095   3.043   5.970  11.947 -1.7668 -1.0107  0.8533
 3560TIP3    H232096   3.077   5.842  11.875  0.4115  0.2370 -0.4228
 3561TIP3   OH232097   4.305   0.585  16.952  0.2170 -0.3450  0.7449
 3561TIP3    H132098   4.314   0.494  16.979 -1.0810 -0.2456  1.5971
 3561TIP3    H232099   4.262   0.581  16.867  0.0171 -0.5289  0.8546
 3562TIP3   OH232100   2.104   0.854  15.009 -0.0120  0.2145  0.1266
 3562TIP3    H132101   2.082   0.945  14.989  0.3712  0.0284 -1.2515
 3562TIP3    H232102   2.138   0.819  14.927  0.0365 -1.1209  0.6885
 3563TIP3   OH232103   3.772   5.255   4.606 -0.0212  1.1287  0.5297
 3563TIP3    H132104   3.718   5.186   4.566  1.7326  0.2626 -0.4353
 3563TIP3    H232105   3.716   5.291   4.676 -1.0348 -1.2016  1.0220
 3564TIP3   OH232106   1.168   4.810   3.136 -0.5291 -0.1639  0.5999
 3564TIP3    H132107   1.084   4.777   3.103  0.0614 -0.7945 -0.3029
 3564TIP3    H232108   1.146   4.894   3.177 -1.4492  0.1749 -0.5347
 3565TIP3   OH232109   0.293   3.673  14.802  0.3135 -0.0683  0.3010
 3565TIP3    H132110   0.199   3.668  14.785  0.3571 -0.4221  0.1497
 3565TIP3    H232111   0.316   3.765  14.786  0.2380 -0.2548 -0.9513
 3566TIP3   OH232112   0.313   3.702   2.776 -0.0244  0.0840  0.2041
 3566TIP3    H132113   0.262   3.623   2.796  0.1110  0.0793  0.5443
 3566TIP3    H232114   0.384   3.672   2.721  0.7672 -0.2599  1.3807
 3567TIP3   OH232115   0.647   6.606  16.872 -0.4439  0.2652 -0.6347
 3567TIP3    H132116   0.713   6.579  16.936 -1.5263  1.2975  0.9827
 3567TIP3    H232117   0.685   6.581  16.787  1.1147 -0.9894  0.3655
 3568TIP3   OH232118   5.926   2.827  13.433 -0.0826  0.9673  0.4034
 3568TIP3    H132119   5.961   2.743  13.404 -1.5402  0.4972 -0.1215
 3568TIP3    H232120   6.003   2.879  13.456  1.0666  0.4988 -1.9811
 3569TIP3   OH232121   3.945   0.968   3.845  0.6097 -0.4282 -0.2228
 3569TIP3    H132122   3.862   0.944   3.887  0.3836 -0.4371 -0.6753
 3569TIP3    H232123   3.932   1.058   3.815  0.2489 -0.9221 -1.5858
 3570TIP3   OH232124   4.519   3.657   1.106 -0.0677  0.0099  0.0372
 3570TIP3    H132125   4.431   3.649   1.067  0.9216  0.4092 -2.4480
 3570TIP3    H232126   4.548   3.744   1.080  1.5337 -0.5829 -0.2445
 3571TIP3   OH232127   5.061   2.250   1.598  0.4494 -0.3997 -0.0878
 3571TIP3    H132128   5.001   2.241   1.672  1.1988 -1.7376  0.4033
 3571TIP3    H232129   5.014   2.211   1.525 -0.1464  0.5800 -0.2315
 3572TIP3   OH232130   4.843   5.849  16.165 -0.0204 -0.0301 -0.0772
 3572TIP3    H132131   4.840   5.768  16.113  1.6139  0.4386 -0.9674
 3572TIP3    H232132   4.898   5.827  16.240  0.4114  0.2364 -0.3116
 3573TIP3   OH232133   1.418   1.827  12.561  0.3461 -0.1683 -0.4242
 3573TIP3    H132134   1.431   1.921  12.572  1.2476 -0.3145 -0.1549
 3573TIP3    H232135   1.366   1.819  12.481  0.5065  0.5449 -0.6069
 3574TIP3   OH232136   5.091   0.210   4.218 -0.0663  0.4291  0.1277
 3574TIP3    H132137   5.112   0.247   4.132 -2.8057 -0.1866 -0.8942
 3574TIP3    H232138   5.073   0.287   4.273  1.2870  0.8041  0.1080
 3575TIP3   OH232139   0.595   6.095   4.330 -0.5283 -0.4875  0.0739
 3575TIP3    H132140   0.505   6.116   4.306 -0.4973 -0.8370 -0.3681
 3575TIP3    H232141   0.626   6.038   4.259  0.4350  0.6068 -0.4196
 3576TIP3   OH232142   0.620   5.401   0.424  0.0724 -0.1030 -0.6768
 3576TIP3    H132143   0.595   5.411   0.516  0.2402 -1.2226 -0.4896
 3576TIP3    H232144   0.602   5.486   0.384 -2.4741 -0.3397 -0.2005
 3577TIP3   OH232145   3.489   3.252  11.927  0.0156 -0.4550 -0.1970
 3577TIP3    H132146   3.449   3.236  11.841 -0.1117 -1.1396 -0.0168
 3577TIP3    H232147   3.570   3.299  11.907  0.3552 -1.2452 -0.7625
 3578TIP3   OH232148   1.438   1.228  16.282  0.3759 -0.4463 -0.1203
 3578TIP3    H132149   1.376   1.289  16.322  0.8939  0.0272 -0.0333
 3578TIP3    H232150   1.469   1.273  16.204 -0.1067 -1.0790 -0.6877
 3579TIP3   OH232151   0.553   2.417  13.166 -0.5606  0.3113  0.3647
 3579TIP3    H132152   0.634   2.368  13.178  0.7937  2.3836  0.3034
 3579TIP3    H232153   0.511   2.378  13.089  0.9788 -0.0478 -0.3190
 3580TIP3   OH232154   5.382   2.495   6.246  0.0324 -0.6321 -0.2302
 3580TIP3    H132155   5.326   2.482   6.170  0.1143 -1.3795 -0.1662
 3580TIP3    H232156   5.341   2.567   6.294 -0.8513 -1.1375 -0.2090
 3581TIP3   OH232157   5.527   1.271   5.813  0.0430  0.1069  0.4167
 3581TIP3    H132158   5.517   1.245   5.721  2.7621 -1.5473  0.4700
 3581TIP3    H232159   5.528   1.189   5.862 -0.0303  0.8756  1.7762
 3582TIP3   OH232160   0.948   3.585   5.995  0.2801  0.0169  0.6475
 3582TIP3    H132161   1.035   3.552   5.973  0.9195  1.4456  0.9142
 3582TIP3    H232162   0.914   3.523   6.060  0.6101 -1.1850 -0.3034
 3583TIP3   OH232163   6.284   6.787  14.041 -0.0382 -0.2251  0.5187
 3583TIP3    H132164   6.285   6.868  13.990 -2.2724 -0.6997 -0.4288
 3583TIP3    H232165   6.284   6.816  14.132 -3.5706  1.1366  0.2682
 3584TIP3   OH232166   0.679   2.839   4.381 -0.0844 -0.2043 -0.0649
 3584TIP3    H132167   0.629   2.768   4.422  1.2915 -0.5030  1.2090
 3584TIP3    H232168   0.766   2.833   4.422  0.7556  0.7700 -1.6271
 3585TIP3   OH232169   3.404   0.552   4.800  0.1581 -0.0774 -0.5761
 3585TIP3    H132170   3.430   0.618   4.864 -1.8095 -1.9133  2.4236
 3585TIP3    H232171   3.466   0.480   4.814 -0.9371 -0.9179  0.1250
 3586TIP3   OH232172   3.725   5.419   4.004 -0.4519  0.0520  0.3053
 3586TIP3    H132173   3.815   5.408   4.037 -0.3700  0.0074  0.0701
 3586TIP3    H232174   3.733   5.486   3.937 -0.8326  1.0790  1.2464
 3587TIP3   OH232175   0.080   6.609  10.724 -0.3681 -0.0366 -0.3733
 3587TIP3    H132176   0.001   6.609  10.778 -0.1489 -1.6317  0.0093
 3587TIP3    H232177   0.049   6.589  10.636 -0.2749 -2.7696  0.1174
 3588TIP3   OH232178   1.468   3.587  14.446  0.0428  0.6297 -0.1788
 3588TIP3    H132179   1.493   3.636  14.367 -0.9131 -0.4121 -1.1610
 3588TIP3    H232180   1.377   3.562  14.431 -0.2182  0.5746  1.3652
 3589TIP3   OH232181   1.165   3.052   1.466 -0.3230  0.5689 -0.2613
 3589TIP3    H132182   1.203   2.977   1.420 -1.6975 -0.4630  0.2150
 3589TIP3    H232183   1.230   3.121   1.456  1.9788 -1.2530  1.0275
 3590TIP3   OH232184   4.155   3.919   5.556  0.4658  0.2229  0.4973
 3590TIP3    H132185   4.248   3.937   5.541  0.4210  0.4704  0.5129
 3590TIP3    H232186   4.141   3.940   5.648 -0.1032  2.3496 -0.0264
 3591TIP3   OH232187   6.756   0.209  13.472 -0.2906  0.0165  0.4637
 3591TIP3    H132188   6.812   0.286  13.459 -0.9893  0.3074 -1.0585
 3591TIP3    H232189   6.802   0.157  13.538  0.5079  1.4352  1.0825
 3592TIP3   OH232190   6.288   2.367  12.560  0.1349 -0.1155 -0.5841
 3592TIP3    H132191   6.246   2.282  12.570  1.8951 -0.9970 -0.3333
 3592TIP3    H232192   6.314   2.392  12.648 -1.5509  1.3705 -0.4490
 3593TIP3   OH232193   2.016   4.214   0.541 -0.3829  0.1420 -0.2636
 3593TIP3    H132194   1.976   4.132   0.514 -1.1768  0.2136  0.6534
 3593TIP3    H232195   1.981   4.231   0.628  0.2083  1.1635 -0.2035
 3594TIP3   OH232196   3.772   5.539  12.756 -0.0165  0.0913  0.6509
 3594TIP3    H132197   3.695   5.519  12.810 -0.8111  2.0928  0.3493
 3594TIP3    H232198   3.841   5.560  12.819 -0.3990  0.5899  0.9072
 3595TIP3   OH232199   2.410   4.914  11.373 -0.2557 -0.1801  0.2637
 3595TIP3    H132200   2.374   4.909  11.284 -1.6922  2.4001  0.5863
 3595TIP3    H232201   2.333   4.928  11.428  0.8741  1.6731  1.4736
 3596TIP3   OH232202   5.832   2.672  11.078 -0.5253  0.4475 -0.5337
 3596TIP3    H132203   5.768   2.634  11.018 -0.9807 -1.1747  0.8853
 3596TIP3    H232204   5.917   2.644  11.043 -0.7456  0.0893 -0.7890
 3597TIP3   OH232205   1.797   0.259   4.769 -0.2771  0.0643  0.4539
 3597TIP3    H132206   1.834   0.347   4.757 -0.6281  0.1984  0.3117
 3597TIP3    H232207   1.841   0.224   4.846  2.1816 -0.8916 -1.2829
 3598TIP3   OH232208   0.857   1.667   1.405  0.1708  0.2981  0.4586
 3598TIP3    H132209   0.883   1.683   1.314 -1.0608  2.6127  0.4374
 3598TIP3    H232210   0.780   1.611   1.398  0.1160  0.4166  0.1049
 3599TIP3   OH232211   3.124   5.709   4.063  0.3757  0.1399 -0.5122
 3599TIP3    H132212   3.072   5.755   3.997 -0.5377 -0.6213 -0.3390
 3599TIP3    H232213   3.214   5.737   4.046 -0.2795  3.5511  0.8563
 3600TIP3   OH232214   0.904   2.687   5.196  0.2123  0.1016 -0.1226
 3600TIP3    H132215   0.930   2.749   5.264  1.4519 -1.9845  1.4075
 3600TIP3    H232216   0.818   2.655   5.223  0.2821 -0.0258 -0.0513
 3601TIP3   OH232217   5.465   0.367   5.663  0.6346  0.0203  0.3524
 3601TIP3    H132218   5.498   0.450   5.697 -3.2439  1.5483  0.8048
 3601TIP3    H232219   5.500   0.301   5.722  1.3999  1.6488  1.7897
 3602TIP3   OH232220   4.601   4.466  11.189  0.9526 -0.1835  0.1283
 3602TIP3    H132221   4.580   4.556  11.214 -0.4067 -1.0536  2.4594
 3602TIP3    H232222   4.519   4.433  11.151  1.4018 -0.4855 -0.5908
 3603TIP3   OH232223   3.808   0.876   3.248 -0.0071  0.1506  0.7121
 3603TIP3    H132224   3.866   0.804   3.224  0.7871  0.6405  1.1060
 3603TIP3    H232225   3.832   0.947   3.189 -2.5656 -0.6364 -1.4924
 3604TIP3   OH232226   2.310   5.655   6.490  0.5516  0.1483  0.5721
 3604TIP3    H132227   2.400   5.672   6.518  1.2225  0.5079 -1.6172
 3604TIP3    H232228   2.313   5.568   6.451 -0.1203  0.0657  0.6918
 3605TIP3   OH232229   3.852   6.645   5.591  0.1960  0.1111  0.0829
 3605TIP3    H132230   3.880   6.681   5.507  1.4500  0.8481  0.7853
 3605TIP3    H232231   3.907   6.689   5.656 -1.2032  0.0717  1.3698
 3606TIP3   OH232232   0.975   5.906  10.569  0.0204 -0.0972  0.6204
 3606TIP3    H132233   0.982   5.973  10.501 -1.9744 -0.6993 -0.2655
 3606TIP3    H232234   1.065   5.886  10.593  1.2326 -2.5429 -4.5481
 3607TIP3   OH232235   2.123   0.319  11.507 -0.2132  0.7740 -0.0558
 3607TIP3    H132236   2.213   0.349  11.520 -0.3004  0.9235  0.2248
 3607TIP3    H232237   2.129   0.255  11.437 -0.0023  1.3464 -0.5729
 3608TIP3   OH232238   4.767   1.232   1.715 -0.7577 -0.2972 -0.2076
 3608TIP3    H132239   4.762   1.318   1.758 -2.2975 -0.6540  0.4134
 3608TIP3    H232240   4.697   1.235   1.649 -0.8887 -1.0961 -0.1143
 3609TIP3   OH232241   4.891   2.340   3.149 -0.2666  0.0686 -0.2430
 3609TIP3    H132242   4.877   2.358   3.242  1.2288  1.6635 -0.2544
 3609TIP3    H232243   4.958   2.271   3.148  1.8457  1.9808 -0.0191
 3610TIP3   OH232244   1.683   4.922  16.257 -0.3241 -0.6531 -0.3596
 3610TIP3    H132245   1.772   4.902  16.284 -0.6927 -1.2436  0.4530
 3610TIP3    H232246   1.672   4.872  16.176  0.6882  0.9074 -1.5164
 3611TIP3   OH232247   0.740   4.288   3.833  0.3754 -0.6437  1.0665
 3611TIP3    H132248   0.834   4.291   3.850  0.6562 -3.6723  0.4748
 3611TIP3    H232249   0.733   4.270   3.739 -0.8855  0.8368  0.8250
 3612TIP3   OH232250   1.717   6.067   1.711  0.2865 -0.2649  0.3889
 3612TIP3    H132251   1.787   6.094   1.652 -0.5921  0.9551 -0.1349
 3612TIP3    H232252   1.654   6.022   1.655 -0.4232  0.6599  0.4327
 3613TIP3   OH232253   2.948   4.292  14.741 -0.1843 -0.3482 -0.2667
 3613TIP3    H132254   2.914   4.357  14.680 -0.2221 -0.9766 -0.9349
 3613TIP3    H232255   3.007   4.341  14.798 -0.0307  0.2345 -0.9048
 3614TIP3   OH232256   3.723   6.216  12.110  0.3731 -0.2684 -0.1498
 3614TIP3    H132257   3.747   6.124  12.112 -1.8443 -0.9090 -0.5539
 3614TIP3    H232258   3.805   6.263  12.124  2.0081 -2.2332 -2.3893
 3615TIP3   OH232259   4.379   1.733  12.026 -0.1308 -0.3172  0.5163
 3615TIP3    H132260   4.323   1.749  11.950  0.7907 -1.7204 -0.5070
 3615TIP3    H232261   4.319   1.702  12.094 -0.6607 -1.7794 -0.5539
 3616TIP3   OH232262   1.439   5.034  16.201 -0.2391 -0.1800  0.0832
 3616TIP3    H132263   1.499   4.991  16.262 -1.1591 -1.1486  0.3363
 3616TIP3    H232264   1.496   5.071  16.133  0.6051 -1.7355 -0.0956
 3617TIP3   OH232265   3.028   6.664   3.032  0.1893 -0.2420 -0.2488
 3617TIP3    H132266   3.071   6.700   3.110 -1.8922 -1.4136  1.5692
 3617TIP3    H232267   3.041   6.569   3.040  0.0268 -0.3665 -1.3999
 3618TIP3   OH232268   0.559   1.989  14.768  0.4131 -0.1284 -0.2931
 3618TIP3    H132269   0.604   2.025  14.692  1.9022 -0.1471  0.5429
 3618TIP3    H232270   0.626   1.940  14.816 -0.4902 -0.1802  0.9927
 3619TIP3   OH232271   0.124   4.404  13.325  0.6917 -0.2923 -0.2222
 3619TIP3    H132272   0.210   4.378  13.292  1.9031  0.8638  1.8511
 3619TIP3    H232273   0.082   4.321  13.350  1.0970 -0.8841 -1.4186
 3620TIP3   OH232274   3.511   2.123   4.900 -0.1840  0.0499 -0.4004
 3620TIP3    H132275   3.581   2.142   4.837  1.3067 -1.5897  0.6483
 3620TIP3    H232276   3.511   2.028   4.907 -0.7530  0.1467  1.5612
 3621TIP3   OH232277   0.995   1.891   5.241 -0.1350  0.1860  0.1554
 3621TIP3    H132278   1.026   1.961   5.184 -3.1149  1.6858  0.1805
 3621TIP3    H232279   0.903   1.879   5.217 -0.2435 -2.4024  1.4963
 3622TIP3   OH232280   1.791   0.185  11.265  0.0436  0.7978  0.3436
 3622TIP3    H132281   1.884   0.185  11.240 -0.1791 -0.0913 -0.5217
 3622TIP3    H232282   1.768   0.092  11.273 -0.9501  0.9893 -0.1409
 3623TIP3   OH232283   6.007   2.915   5.209 -0.3458 -0.2010 -0.1195
 3623TIP3    H132284   5.940   2.970   5.168 -0.3915 -0.7902 -0.8472
 3623TIP3    H232285   6.002   2.832   5.163 -0.4032 -0.8915  1.1081
 3624TIP3   OH232286   1.928   0.993  12.511 -0.0882 -0.2583  0.8166
 3624TIP3    H132287   2.006   1.048  12.517 -0.6746  0.5449  1.4619
 3624TIP3    H232288   1.922   0.950  12.596 -0.6522  0.1240  0.9766
 3625TIP3   OH232289   1.871   4.708  17.034  0.1797 -0.3298 -0.1746
 3625TIP3    H132290   1.846   4.703  17.126  1.5653  1.5624  0.3911
 3625TIP3    H232291   1.947   4.651  17.027  0.5741  0.1450  0.0923
 3626TIP3   OH232292   6.236   6.456   0.530 -0.2527  0.3913 -0.0036
 3626TIP3    H132293   6.195   6.534   0.568  0.8650  0.6910  0.6348
 3626TIP3    H232294   6.239   6.393   0.601  1.3474  0.7600  0.3068
 3627TIP3   OH232295   3.642   2.151  13.860 -0.7403 -0.8172  0.1942
 3627TIP3    H132296   3.586   2.162  13.782  0.1438  2.6872 -0.1188
 3627TIP3    H232297   3.731   2.147  13.825 -0.3223  0.9199  0.9686
 3628TIP3   OH232298   0.366   5.516   3.940 -0.1139  0.1636 -0.2283
 3628TIP3    H132299   0.342   5.597   3.986 -0.1931  0.4336 -0.7397
 3628TIP3    H232300   0.302   5.452   3.970  0.4255  0.0767  0.7874
 3629TIP3   OH232301   1.115   2.059  11.171 -0.7714  0.3998  0.0731
 3629TIP3    H132302   1.047   2.071  11.104 -0.6561 -1.6093 -0.4487
 3629TIP3    H232303   1.149   1.971  11.156  0.2072  0.4085  1.9260
 3630TIP3   OH232304   2.432   5.784   2.150 -0.3236 -0.0419 -0.2298
 3630TIP3    H132305   2.341   5.810   2.137 -0.4670 -0.6314 -0.4574
 3630TIP3    H232306   2.441   5.771   2.244 -0.8394 -1.2609 -0.3358
 3631TIP3   OH232307   0.903   3.218  14.116 -0.1459 -0.2129  0.0724
 3631TIP3    H132308   0.877   3.206  14.208 -1.4246 -0.8387 -0.3496
 3631TIP3    H232309   0.957   3.297  14.117  0.5519 -0.6645  1.4812
 3632TIP3   OH232310   2.358   4.220  13.530 -0.4839  0.2551 -0.5104
 3632TIP3    H132311   2.282   4.270  13.500 -0.2564  0.1222 -1.3340
 3632TIP3    H232312   2.396   4.184  13.450  1.4683  1.7256 -0.3048
 3633TIP3   OH232313   0.297   3.125   5.043 -0.2131 -0.3715  0.6755
 3633TIP3    H132314   0.327   3.105   5.131 -2.4062 -1.4085  1.2765
 3633TIP3    H232315   0.219   3.179   5.056 -0.9400 -1.0678 -0.5778
 3634TIP3   OH232316   1.404   4.880   6.571  0.3677  0.1640 -0.8719
 3634TIP3    H132317   1.362   4.817   6.630  1.0468 -1.6284 -2.1946
 3634TIP3    H232318   1.352   4.960   6.580 -2.0100 -1.2700 -0.8176
 3635TIP3   OH232319   2.671   5.899  11.445  0.1778 -0.6729 -0.7652
 3635TIP3    H132320   2.636   5.844  11.515 -2.2661 -0.9432 -2.1166
 3635TIP3    H232321   2.715   5.971  11.491  0.8735 -2.1528  1.0147
 3636TIP3   OH232322   4.939   4.901  16.964 -0.2172 -0.2042  0.1724
 3636TIP3    H132323   5.004   4.856  16.909  0.5563  0.5858  0.4177
 3636TIP3    H232324   4.980   4.985  16.986 -0.8678 -0.1494  1.2528
 3637TIP3   OH232325   4.411   6.066   4.987  0.3182 -0.2608 -0.1950
 3637TIP3    H132326   4.334   6.115   5.016  0.3826 -0.3240  0.0869
 3637TIP3    H232327   4.382   6.019   4.908  0.6978  1.5259 -1.4715
 3638TIP3   OH232328   2.573   1.210   2.665  0.1231 -0.0509  0.1424
 3638TIP3    H132329   2.537   1.145   2.605  1.0617 -0.0120 -0.4904
 3638TIP3    H232330   2.513   1.210   2.740 -0.3592 -1.0289 -0.2243
 3639TIP3   OH232331   4.298   5.430  12.043  0.2980 -0.4683 -0.3274
 3639TIP3    H132332   4.364   5.410  12.110 -0.2071  1.0316  0.6790
 3639TIP3    H232333   4.259   5.345  12.022  1.8596 -1.2427 -0.2136
 3640TIP3   OH232334   3.774   3.579  14.429 -0.6358  0.0801  0.2059
 3640TIP3    H132335   3.868   3.590  14.439  0.0600 -3.1730 -1.3198
 3640TIP3    H232336   3.758   3.592  14.336 -1.4510 -0.6749  0.2255
 3641TIP3   OH232337   3.154   4.377  11.519  0.1237 -0.2844  0.4106
 3641TIP3    H132338   3.123   4.425  11.443  1.0475  2.4020  1.6151
 3641TIP3    H232339   3.076   4.363  11.573  0.0512  1.2913  0.7492
 3642TIP3   OH232340   0.790   0.095   4.572 -0.2438 -0.2272  0.3384
 3642TIP3    H132341   0.718   0.138   4.525  0.4596  1.0636  0.4063
 3642TIP3    H232342   0.807   0.015   4.522 -1.6322 -0.4915  0.2506
 3643TIP3   OH232343   5.800   2.185   3.944 -0.0600 -0.9040  0.0044
 3643TIP3    H132344   5.833   2.134   4.018  1.2990  0.1596  0.1632
 3643TIP3    H232345   5.747   2.254   3.983  0.8557 -0.1987  0.0020
 3644TIP3   OH232346   0.890   5.183   4.472  0.3555 -0.0773 -0.1631
 3644TIP3    H132347   0.982   5.188   4.499 -0.1170  1.9178  1.3699
 3644TIP3    H232348   0.888   5.219   4.383  0.8836  1.6875  0.4854
 3645TIP3   OH232349   0.861   1.826   2.539 -0.0473 -0.2261  0.3955
 3645TIP3    H132350   0.774   1.789   2.554 -0.5827  1.1093  0.7372
 3645TIP3    H232351   0.894   1.843   2.627  0.6207 -0.8314  0.2678
 3646TIP3   OH232352   0.646   2.648  14.910 -0.1787 -0.2404  0.1804
 3646TIP3    H132353   0.581   2.697  14.961  0.7228  1.2001  0.0176
 3646TIP3    H232354   0.594   2.592  14.853 -1.2636  0.1240  0.7744
 3647TIP3   OH232355   1.383   4.968  13.970  0.0930  0.4080 -0.4261
 3647TIP3    H132356   1.478   4.963  13.964  0.1547  1.2960 -0.2429
 3647TIP3    H232357   1.354   4.878  13.955  0.9411  0.1779 -0.7562
 3648TIP3   OH232358   0.027   4.215  11.449 -0.0961 -0.2582  0.5863
 3648TIP3    H132359  -0.049   4.269  11.428 -0.6692 -0.7084  1.4198
 3648TIP3    H232360   0.048   4.171  11.366 -0.7965 -0.1871  0.3604
 3649TIP3   OH232361   5.403   1.864   2.715 -0.2964 -0.0965 -0.6657
 3649TIP3    H132362   5.360   1.938   2.672  0.2007 -0.2522 -1.4411
 3649TIP3    H232363   5.496   1.879   2.701 -0.1084 -0.0322  0.5641
 3650TIP3   OH232364   6.610   3.665  16.022 -0.1186 -0.1087 -0.7958
 3650TIP3    H132365   6.543   3.596  16.024  1.1638 -1.4613  2.2314
 3650TIP3    H232366   6.687   3.622  15.984 -0.2799  0.7297 -2.0966
 3651TIP3   OH232367   6.160   2.472  15.865  0.4610  0.1556  0.2296
 3651TIP3    H132368   6.118   2.392  15.897 -1.0404  0.2311 -1.3886
 3651TIP3    H232369   6.087   2.531  15.845  1.4913  1.4560  0.2075
 3652TIP3   OH232370   3.879   1.912  14.016  0.0458 -0.5546 -0.1425
 3652TIP3    H132371   3.824   1.920  13.938  2.0244  1.1023 -1.5004
 3652TIP3    H232372   3.912   1.822  14.013  0.3652 -0.4149 -1.4598
 3653TIP3   OH232373   5.679   3.923   1.228 -0.5301  0.3716  0.9437
 3653TIP3    H132374   5.589   3.939   1.199 -0.5775 -0.1089  0.8158
 3653TIP3    H232375   5.733   3.942   1.151 -0.4994  0.8448  1.0752
 3654TIP3   OH232376   3.489   4.928  16.667 -0.1364  0.2049 -0.8335
 3654TIP3    H132377   3.509   5.012  16.710 -1.0223  1.9143 -3.5388
 3654TIP3    H232378   3.404   4.903  16.703 -0.3427  1.0077 -0.7367
 3655TIP3   OH232379   5.493   1.536  10.930  0.1470 -0.4114 -0.2815
 3655TIP3    H132380   5.547   1.613  10.949 -0.5818  0.1723 -0.5559
 3655TIP3    H232381   5.551   1.462  10.949  1.1873  0.2004 -0.9770
 3656TIP3   OH232382   1.208   4.535  15.244  0.0885  0.0972  0.0632
 3656TIP3    H132383   1.190   4.463  15.184  0.5292 -1.0704  1.2730
 3656TIP3    H232384   1.127   4.585  15.248 -0.8993 -1.5224  0.7617
 3657TIP3   OH232385   5.593   4.485  12.197 -0.4851  0.4505 -0.1285
 3657TIP3    H132386   5.508   4.459  12.162 -0.5218  0.3146  0.0626
 3657TIP3    H232387   5.657   4.441  12.140 -0.5457 -0.5790  0.5665
 3658TIP3   OH232388   1.714   2.339  12.651 -0.4415 -0.8012  0.4788
 3658TIP3    H132389   1.776   2.393  12.603  0.0437 -0.4783  1.4464
 3658TIP3    H232390   1.757   2.321  12.735 -2.0819  0.3201  1.6142
 3659TIP3   OH232391   6.408   2.183   2.958 -0.0899 -0.2183  0.2187
 3659TIP3    H132392   6.366   2.221   3.035 -1.4970 -2.1814  0.4876
 3659TIP3    H232393   6.475   2.124   2.994 -1.3787 -1.8621  0.0430
 3660TIP3   OH232394   6.041   2.467  12.684 -0.3428 -0.2136 -0.3096
 3660TIP3    H132395   5.980   2.526  12.727 -0.0011  0.2744 -0.4851
 3660TIP3    H232396   6.002   2.449  12.599 -0.6273 -0.5378 -0.1126
 3661TIP3   OH232397   3.209   3.368   1.610 -0.0966  0.0473 -0.1647
 3661TIP3    H132398   3.184   3.458   1.590  0.5817  0.2267 -0.2510
 3661TIP3    H232399   3.267   3.342   1.538  0.8270  0.0359  0.5509
 3662TIP3   OH232400   6.820   6.654   4.261 -0.2918 -0.5278  0.1566
 3662TIP3    H132401   6.915   6.667   4.271 -0.5129  0.7019  1.0374
 3662TIP3    H232402   6.803   6.672   4.169  0.0915  1.3262  0.3915
 3663TIP3   OH232403   6.523   3.620  11.618 -0.8995 -0.5328 -0.3118
 3663TIP3    H132404   6.583   3.694  11.624  0.4620 -1.6569  0.6465
 3663TIP3    H232405   6.494   3.620  11.527 -0.2975  0.6980 -0.5175
 3664TIP3   OH232406   3.704   5.954  15.174  0.4156 -0.1722  0.1483
 3664TIP3    H132407   3.789   5.952  15.219  2.1590 -2.2285 -2.8420
 3664TIP3    H232408   3.706   5.878  15.116 -3.2429  0.1056 -0.5878
 3665TIP3   OH232409   4.219   3.945  12.375  0.2207 -0.3894  0.3971
 3665TIP3    H132410   4.209   4.024  12.322  2.0159 -0.5613 -0.2558
 3665TIP3    H232411   4.308   3.950  12.409 -0.4631 -0.8980  2.4392
 3666TIP3   OH232412   6.813   3.005  14.623  0.3522  0.0632 -0.2552
 3666TIP3    H132413   6.886   3.036  14.675  0.5546  1.4836 -1.3307
 3666TIP3    H232414   6.810   3.063  14.547 -1.0152 -0.8406 -0.9537
 3667TIP3   OH232415   2.880   5.290  14.062  0.0199 -0.5051  0.2940
 3667TIP3    H132416   2.891   5.293  14.157 -1.5507 -0.7033  0.5179
 3667TIP3    H232417   2.892   5.381  14.034 -1.8710  0.0388  1.0339
 3668TIP3   OH232418   4.810   2.539  16.824  0.2317  0.0943  0.3054
 3668TIP3    H132419   4.822   2.557  16.917  1.2834  2.4453 -0.2042
 3668TIP3    H232420   4.891   2.496  16.798  0.1646 -0.0655  0.3576
 3669TIP3   OH232421   5.392   1.561   1.826 -1.0548 -0.1977 -0.2233
 3669TIP3    H132422   5.436   1.541   1.743 -0.1294 -2.2878  0.6988
 3669TIP3    H232423   5.429   1.644   1.854  0.6861 -0.8162 -0.5825
 3670TIP3   OH232424   1.563   5.638   2.034  0.5228 -0.6037  0.7334
 3670TIP3    H132425   1.647   5.612   2.073  1.3409  1.0368  0.1640
 3670TIP3    H232426   1.534   5.561   1.985  1.7971 -1.1360  0.7759
 3671TIP3   OH232427   0.496   0.436  17.060 -0.2756 -0.4409  0.0865
 3671TIP3    H132428   0.587   0.447  17.086  0.4528 -0.6593 -2.2115
 3671TIP3    H232429   0.472   0.519  17.019 -1.0369 -0.4771  0.4297
 3672TIP3   OH232430   0.440   1.175  13.294  0.8295  0.7684  0.1497
 3672TIP3    H132431   0.469   1.139  13.378 -0.0496  1.7053  0.8850
 3672TIP3    H232432   0.390   1.105  13.253  1.0295  0.3977  0.5362
 3673TIP3   OH232433   5.397   3.593  16.441 -0.2671 -0.5316 -0.4677
 3673TIP3    H132434   5.372   3.685  16.439  1.1615 -0.1186 -0.2832
 3673TIP3    H232435   5.469   3.589  16.504 -0.8963 -1.9400  0.2043
 3674TIP3   OH232436   4.906   5.849  12.297 -0.0515  0.3014  0.0118
 3674TIP3    H132437   4.943   5.764  12.321  0.1876  0.4957  0.3394
 3674TIP3    H232438   4.966   5.884  12.231 -0.1713  0.2000 -0.1514
 3675TIP3   OH232439   2.114   5.427  13.330 -0.3878 -0.3167 -0.5878
 3675TIP3    H132440   2.067   5.508  13.314  0.3546  0.2860  0.1753
 3675TIP3    H232441   2.198   5.439  13.286 -1.3324 -1.8658 -2.9998
 3676TIP3   OH232442   4.572   4.518  12.845 -0.0695  0.2418  0.1510
 3676TIP3    H132443   4.616   4.458  12.785 -1.2214 -1.1060  0.6083
 3676TIP3    H232444   4.572   4.472  12.929 -0.8182  0.9740  0.5599
 3677TIP3   OH232445   1.508   5.902   0.210  0.4355  0.3000 -0.1611
 3677TIP3    H132446   1.484   5.928   0.122 -2.1324 -0.5407  0.2121
 3677TIP3    H232447   1.578   5.837   0.198 -0.6542 -0.6503 -1.6544
 3678TIP3   OH232448   3.637   0.117   1.474  0.5842 -0.0991  0.0794
 3678TIP3    H132449   3.709   0.134   1.536 -0.9323 -0.8349  2.1373
 3678TIP3    H232450   3.588   0.199   1.472 -0.5436 -0.6906  1.5461
 3679TIP3   OH232451   2.578   4.731  15.720  0.3219 -0.4845  0.0861
 3679TIP3    H132452   2.668   4.763  15.726  0.9376 -1.9360 -0.7426
 3679TIP3    H232453   2.571   4.667  15.791 -0.1742 -0.1167  0.3679
 3680TIP3   OH232454   3.345   4.882  11.170  0.0388  0.1823  0.2662
 3680TIP3    H132455   3.376   4.823  11.239  1.9373  1.7243  0.8309
 3680TIP3    H232456   3.331   4.824  11.094  1.6791 -1.0486  0.8258
 3681TIP3   OH232457   6.513   3.693   2.969  0.3628 -1.2654  0.5284
 3681TIP3    H132458   6.458   3.716   2.894  1.2207 -0.5747  0.0963
 3681TIP3    H232459   6.497   3.600   2.982  0.8873 -1.6290 -1.1120
 3682TIP3   OH232460   1.830   6.209   4.845  0.0231  0.0700 -0.7090
 3682TIP3    H132461   1.884   6.243   4.916 -0.8305 -0.3991  0.1896
 3682TIP3    H232462   1.887   6.212   4.768  0.7657  1.1563 -0.1414
 3683TIP3   OH232463   2.994   6.456  15.687 -0.5330 -0.4715  0.0911
 3683TIP3    H132464   3.057   6.516  15.648 -1.0063 -0.3026 -0.4272
 3683TIP3    H232465   2.951   6.415  15.612 -1.4094 -0.1943  0.4385
 3684TIP3   OH232466   2.846   3.977   3.180  0.4346 -0.1777  0.0780
 3684TIP3    H132467   2.855   4.029   3.099  1.0319  3.1701  2.1008
 3684TIP3    H232468   2.755   3.947   3.178 -0.1123  1.3692 -1.0359
 3685TIP3   OH232469   3.300   2.379   3.336  0.0502 -0.5466 -0.0669
 3685TIP3    H132470   3.362   2.411   3.401  0.2332 -3.8420  1.5756
 3685TIP3    H232471   3.351   2.320   3.281 -0.5427  0.7523 -2.1223
 3686TIP3   OH232472   5.807   4.015   3.395 -0.4082  0.2839 -0.5374
 3686TIP3    H132473   5.872   4.080   3.419 -0.3511 -0.3631  1.2311
 3686TIP3    H232474   5.785   3.971   3.477 -2.4052 -0.1390 -1.2282
 3687TIP3   OH232475   3.172   0.272  11.755  0.4794  0.3042  0.1932
 3687TIP3    H132476   3.169   0.176  11.753  0.6825  0.2405  1.6258
 3687TIP3    H232477   3.242   0.295  11.694 -0.8774 -0.3307 -1.6829
 3688TIP3   OH232478   4.890   1.385   3.680  0.1744  0.2483 -0.1270
 3688TIP3    H132479   4.890   1.432   3.763  0.6619  2.8100 -1.4984
 3688TIP3    H232480   4.844   1.442   3.619 -1.0999 -2.0156 -1.4601
 3689TIP3   OH232481   5.960   1.088   4.090 -0.1136  0.1115 -0.3185
 3689TIP3    H132482   5.875   1.122   4.119 -0.3338 -0.5059 -0.2166
 3689TIP3    H232483   5.945   1.060   4.000  0.2504  0.9117 -0.6369
 3690TIP3   OH232484   5.463   6.191  14.103 -0.0745  0.0720  0.0092
 3690TIP3    H132485   5.521   6.267  14.096  0.6120 -0.5326 -1.0352
 3690TIP3    H232486   5.387   6.214  14.050  0.6860 -0.4481 -1.3533
 3691TIP3   OH232487   4.979   6.177  12.306  0.7305  0.6927  0.3765
 3691TIP3    H132488   4.919   6.251  12.310 -0.8325 -0.5479  0.8221
 3691TIP3    H232489   5.055   6.205  12.358 -1.2562  0.7777  3.5437
 3692TIP3   OH232490   3.131   6.625  13.101  0.5140 -0.5607 -0.1925
 3692TIP3    H132491   3.154   6.627  13.008  1.6074  2.4831  0.0121
 3692TIP3    H232492   3.147   6.534  13.128  1.3289 -1.2468 -2.6905
 3693TIP3   OH232493   6.228   1.882   0.279 -0.1411  0.7520  1.0905
 3693TIP3    H132494   6.265   1.956   0.231 -0.0849  0.4708  0.6959
 3693TIP3    H232495   6.298   1.855   0.338  0.4531 -0.0231  0.0776
 3694TIP3   OH232496   2.990   5.228  13.786 -0.1947 -0.0273 -0.2274
 3694TIP3    H132497   2.981   5.303  13.843 -1.1163 -0.2865 -0.0084
 3694TIP3    H232498   2.900   5.198  13.771 -0.0536  0.4227 -2.3404
 3695TIP3   OH232499   5.957   1.419  12.248  0.2814 -0.7025  0.0051
 3695TIP3    H132500   5.881   1.464  12.284  0.3281 -0.2011 -0.4931
 3695TIP3    H232501   6.030   1.448  12.303  0.5771  1.1191 -1.2335
 3696TIP3   OH232502   6.041   6.778   5.491 -0.5617 -0.4031  0.0382
 3696TIP3    H132503   6.026   6.702   5.547 -0.4522  0.7483  1.7012
 3696TIP3    H232504   6.134   6.775   5.470 -0.8365 -1.5145 -1.1532
 3697TIP3   OH232505   0.332   6.215   3.188  0.3698  0.3120  0.1684
 3697TIP3    H132506   0.412   6.163   3.197 -1.2574 -2.4282 -0.0336
 3697TIP3    H232507   0.292   6.212   3.276 -0.0906  0.6265 -0.0262
 3698TIP3   OH232508   0.101   2.138  13.717  0.5833  0.3746  0.3367
 3698TIP3    H132509   0.163   2.138  13.644 -0.7528  0.4952 -0.8533
 3698TIP3    H232510   0.151   2.104  13.791  0.8406 -4.4570 -1.6853
 3699TIP3   OH232511   6.011   5.423  16.257 -0.2997 -0.3614  0.0092
 3699TIP3    H132512   6.034   5.345  16.208  0.1212 -0.1363 -0.1556
 3699TIP3    H232513   6.069   5.491  16.223 -0.4592 -0.0481  0.3542
 3700TIP3   OH232514   2.375   2.283   1.442  0.3089 -0.0612  0.4059
 3700TIP3    H132515   2.421   2.302   1.360 -1.2325  0.5137 -0.3536
 3700TIP3    H232516   2.380   2.188   1.450  1.2506 -0.0529  0.1305
 3701TIP3   OH232517   0.160   5.863  14.238 -0.1707  0.1275  0.3120
 3701TIP3    H132518   0.255   5.870  14.233 -0.1523 -0.7277 -0.9793
 3701TIP3    H232519   0.140   5.776  14.204 -1.4496  0.5228 -0.0307
 3702TIP3   OH232520   2.595   0.537  10.835  0.1441 -0.4606 -0.4995
 3702TIP3    H132521   2.649   0.526  10.757 -0.9608  0.1617 -1.3959
 3702TIP3    H232522   2.655   0.566  10.903  0.7293  2.0375 -1.9265
 3703TIP3   OH232523   5.576   1.694  11.962  0.0244 -0.3351  0.6830
 3703TIP3    H132524   5.582   1.624  11.897  1.0154  0.1750  0.1897
 3703TIP3    H232525   5.490   1.733  11.948  0.7629  0.7100 -1.3625
 3704TIP3   OH232526   3.076   0.956  15.388 -0.2254 -0.0850  0.3508
 3704TIP3    H132527   3.098   1.046  15.367 -1.1059  0.2814  0.9400
 3704TIP3    H232528   3.004   0.963  15.451  0.9187 -1.1759  1.8440
 3705TIP3   OH232529   4.981   3.782   4.888  0.3538  0.2884 -0.3939
 3705TIP3    H132530   4.893   3.817   4.875  0.2203  0.6619  1.3396
 3705TIP3    H232531   4.979   3.695   4.847 -0.7718  0.3426 -0.4686
 3706TIP3   OH232532   1.287   4.574   1.401  0.4638  0.6201 -0.1160
 3706TIP3    H132533   1.259   4.553   1.490  2.3874 -0.6706  0.2583
 3706TIP3    H232534   1.308   4.667   1.403  0.3553  0.6361  0.7612
 3707TIP3   OH232535   4.840   4.674   3.088  0.0329 -0.4681  0.2327
 3707TIP3    H132536   4.920   4.710   3.126  0.2841 -1.9777  1.1968
 3707TIP3    H232537   4.843   4.702   2.996  2.7504 -2.2233 -0.3257
 3708TIP3   OH232538   4.281   4.451  11.357  0.0251 -0.0980  0.5220
 3708TIP3    H132539   4.318   4.443  11.268  1.7821 -0.2088  1.2220
 3708TIP3    H232540   4.259   4.544  11.365 -0.8396 -0.2131 -0.2659
 3709TIP3   OH232541   2.225   1.899   6.270 -0.4338  0.2630 -0.0928
 3709TIP3    H132542   2.251   1.822   6.319 -1.2873 -0.3093 -0.4988
 3709TIP3    H232543   2.172   1.950   6.331 -0.2947  0.2709  0.0206
 3710TIP3   OH232544   0.788   0.822   0.348 -0.1109 -0.5960  0.2698
 3710TIP3    H132545   0.834   0.902   0.373 -0.9294 -0.3227  0.9544
 3710TIP3    H232546   0.709   0.852   0.304 -0.6026 -1.0095  0.8458
 3711TIP3   OH232547   0.598   3.683  15.651 -0.3536 -0.6118  0.4302
 3711TIP3    H132548   0.531   3.750  15.653 -0.4400 -0.7057  1.3364
 3711TIP3    H232549   0.610   3.663  15.558  1.8692  2.8246 -0.2198
 3712TIP3   OH232550   2.090   4.240  15.881  0.0318 -0.1386  0.5561
 3712TIP3    H132551   2.012   4.296  15.882  1.0062  1.2974  1.7038
 3712TIP3    H232552   2.114   4.231  15.973  0.0974 -2.2416  0.3617
 3713TIP3   OH232553   3.280   1.965   3.467  0.1383  0.2448 -0.1870
 3713TIP3    H132554   3.201   2.002   3.505 -0.4360 -0.6260 -0.4866
 3713TIP3    H232555   3.349   2.027   3.490  0.0746 -0.7386  3.2292
 3714TIP3   OH232556   2.814   4.611  13.933 -0.0782 -0.0618 -0.1492
 3714TIP3    H132557   2.782   4.571  13.852 -0.2949 -0.0983 -0.0467
 3714TIP3    H232558   2.842   4.699  13.908 -0.8121  0.1849 -0.1316
 3715TIP3   OH232559   0.626   3.189   1.084 -0.6803  0.5172  0.5375
 3715TIP3    H132560   0.580   3.119   1.038 -0.5685  0.2070  0.8909
 3715TIP3    H232561   0.557   3.251   1.108 -0.8245  0.3752  0.4939
 3716TIP3   OH232562   5.788   1.206   4.495 -0.1070  0.3565  0.1521
 3716TIP3    H132563   5.790   1.286   4.547  1.0075 -0.2640  1.1137
 3716TIP3    H232564   5.708   1.213   4.444  0.1525  2.2363 -0.0540
 3717TIP3   OH232565   6.568   4.682   2.207 -0.1570  0.6203 -0.1007
 3717TIP3    H132566   6.541   4.654   2.295  0.9951  1.3972  0.5261
 3717TIP3    H232567   6.608   4.604   2.168 -1.2626  0.0863 -0.2078
 3718TIP3   OH232568   6.572   5.264   3.788  0.0626 -0.2296 -0.2132
 3718TIP3    H132569   6.588   5.215   3.868  0.5693 -2.3592 -1.5455
 3718TIP3    H232570   6.637   5.233   3.726 -2.2063 -1.0084 -2.4082
 3719TIP3   OH232571   1.123   1.715  12.470  0.5145  0.0955 -0.5824
 3719TIP3    H132572   1.041   1.701  12.519  0.2887 -1.6840 -1.4023
 3719TIP3    H232573   1.144   1.807  12.485  1.7247 -0.7164  4.8386
 3720TIP3   OH232574   4.999   4.620  13.532  0.5676 -0.1234  0.7372
 3720TIP3    H132575   4.966   4.710  13.533 -0.4930 -0.4864  0.3766
 3720TIP3    H232576   4.934   4.571  13.480  1.8161 -0.8325 -0.2204
 3721TIP3   OH232577   6.521   1.530  15.579 -0.6229  0.5844  0.0550
 3721TIP3    H132578   6.560   1.480  15.507 -3.1219 -0.1061 -0.9266
 3721TIP3    H232579   6.455   1.584  15.537 -1.3897  1.0045  1.7242
 3722TIP3   OH232580   2.484   6.020   6.055  0.6398  0.3455 -0.1953
 3722TIP3    H132581   2.537   6.084   6.008 -0.6411  1.1855 -0.5757
 3722TIP3    H232582   2.481   6.052   6.145  2.2164 -0.6822  0.2525
 3723TIP3   OH232583   4.827   4.562   5.554  0.1706 -0.2361  0.3541
 3723TIP3    H132584   4.750   4.530   5.599  0.6945  0.5351  1.8726
 3723TIP3    H232585   4.868   4.622   5.617  1.1016  0.6463 -1.0415
 3724TIP3   OH232586   0.502   3.643  11.522 -0.1837 -0.4358  0.3157
 3724TIP3    H132587   0.429   3.663  11.581 -0.5688 -2.2509  0.5173
 3724TIP3    H232588   0.575   3.621  11.580 -0.5112 -2.0466  0.1685
 3725TIP3   OH232589   5.382   4.055   3.396  0.2008 -0.6773  0.2254
 3725TIP3    H132590   5.334   4.136   3.380  2.1164  0.5184  0.3127
 3725TIP3    H232591   5.331   3.988   3.350 -1.5730  0.4880  0.3697
 3726TIP3   OH232592   6.014   6.169  13.919  0.1895 -0.5017  0.2675
 3726TIP3    H132593   6.067   6.237  13.961 -0.0553 -0.2545  0.1760
 3726TIP3    H232594   6.049   6.087  13.953  1.0520 -0.3689 -0.2540
 3727TIP3   OH232595   5.458   1.896  11.158 -0.0340  0.4629 -0.5730
 3727TIP3    H132596   5.416   1.921  11.240  0.1997 -0.7982 -0.0583
 3727TIP3    H232597   5.531   1.958  11.149  0.8018 -0.2510  0.9077
 3728TIP3   OH232598   2.421   2.070   4.290  0.6996  0.1140 -0.2941
 3728TIP3    H132599   2.448   2.149   4.338 -1.1254  0.5479  0.0895
 3728TIP3    H232600   2.475   2.000   4.328  0.9252  0.8372  0.7750
 3729TIP3   OH232601   2.943   6.353   2.130 -0.1249  0.3728 -0.3437
 3729TIP3    H132602   2.934   6.441   2.166  1.4567 -0.5072  2.5316
 3729TIP3    H232603   2.881   6.300   2.180  1.3887 -0.7307  0.4430
 3730TIP3   OH232604   2.447   3.242  12.148 -0.0848 -0.0657  0.0820
 3730TIP3    H132605   2.485   3.210  12.066  0.1340  0.4465 -0.0242
 3730TIP3    H232606   2.519   3.239  12.211 -0.1314 -0.0247  0.1372
 3731TIP3   OH232607   4.298   4.645  13.140  0.7557 -0.0004 -0.0065
 3731TIP3    H132608   4.277   4.665  13.049 -0.2656  1.0263  0.4230
 3731TIP3    H232609   4.393   4.637  13.142  0.8716  0.9421 -0.9810
 3732TIP3   OH232610   6.653   2.506  12.538 -0.6976  0.0458  0.4852
 3732TIP3    H132611   6.701   2.520  12.457  1.6721 -1.3513  1.5609
 3732TIP3    H232612   6.618   2.418  12.531 -0.1788 -0.2215  1.0912
 3733TIP3   OH232613   5.345   4.127   1.431  0.0796 -0.2199  0.2004
 3733TIP3    H132614   5.395   4.193   1.383 -0.7907  0.1758 -0.1858
 3733TIP3    H232615   5.384   4.126   1.519 -0.6798  1.7002  0.5956
 3734TIP3   OH232616   6.044   6.791  13.770 -0.0056 -0.5054 -0.0287
 3734TIP3    H132617   6.117   6.842  13.804 -0.3455 -0.2634  0.3431
 3734TIP3    H232618   5.968   6.847  13.783 -0.3256 -0.9502  0.0195
 3735TIP3   OH232619   3.991   1.592  11.991  0.0177 -0.3323 -0.5483
 3735TIP3    H132620   4.032   1.664  12.039 -2.7424  1.6953 -1.0098
 3735TIP3    H232621   4.065   1.546  11.950  1.9447  1.8649  0.2337
 3736TIP3   OH232622   3.943   2.676   2.272  0.5676 -0.6452 -0.2368
 3736TIP3    H132623   3.854   2.677   2.306 -0.1993 -0.9466 -2.0870
 3736TIP3    H232624   3.999   2.665   2.349 -1.0125 -0.9327  0.9138
 3737TIP3   OH232625   3.301   1.762  13.168 -0.0375 -0.5127 -0.3757
 3737TIP3    H132626   3.251   1.707  13.107 -0.5828 -1.4130  0.8346
 3737TIP3    H232627   3.318   1.704  13.242 -0.7541  0.9953  1.0055
 3738TIP3   OH232628   5.281   5.848  13.243  0.0289  0.5060 -0.1489
 3738TIP3    H132629   5.269   5.932  13.287  0.0152  0.4338 -0.0156
 3738TIP3    H232630   5.318   5.791  13.310  3.6816  1.4331 -1.1622
 3739TIP3   OH232631   3.078   5.039   4.707 -0.3172 -0.7988  0.2584
 3739TIP3    H132632   2.997   5.077   4.672 -1.4403 -2.3480  1.0476
 3739TIP3    H232633   3.099   4.968   4.646  0.7011 -0.1603 -0.1622
 3740TIP3   OH232634   5.471   4.402  15.498  0.0834  0.2181  0.1949
 3740TIP3    H132635   5.410   4.349  15.548  0.3395  1.5160  1.9796
 3740TIP3    H232636   5.442   4.394  15.407 -0.2870 -2.3577  0.4799
 3741TIP3   OH232637   2.404   5.745  13.578 -0.4744 -0.0094 -0.5958
 3741TIP3    H132638   2.377   5.812  13.641 -0.3440  0.6407 -1.2148
 3741TIP3    H232639   2.432   5.671  13.632 -1.1294  0.2341  0.0873
 3742TIP3   OH232640   1.538   3.690   5.419  0.1339 -0.2174  0.5696
 3742TIP3    H132641   1.456   3.737   5.429  1.4057  3.0729 -2.3702
 3742TIP3    H232642   1.588   3.710   5.497 -1.2911 -1.1951  1.7882
 3743TIP3   OH232643   3.770   2.715  11.452  0.3649 -0.0391  0.0745
 3743TIP3    H132644   3.850   2.725  11.400  0.8803  0.0933  0.8639
 3743TIP3    H232645   3.749   2.804  11.480 -0.3804 -0.0027 -0.5884
 3744TIP3   OH232646   1.709   2.985  16.663 -0.4034  0.1739 -0.3588
 3744TIP3    H132647   1.714   3.017  16.753 -1.1298 -1.8874  0.4972
 3744TIP3    H232648   1.651   3.046  16.618 -0.7801  0.7196  0.8432
 3745TIP3   OH232649   3.524   6.021   1.737 -0.4175 -0.4495  0.0753
 3745TIP3    H132650   3.432   6.048   1.746 -0.3889 -0.0570 -0.7453
 3745TIP3    H232651   3.574   6.093   1.774 -0.4458 -0.9389  1.1088
 3746TIP3   OH232652   5.386   1.927  16.978 -0.0716 -0.0046  0.4789
 3746TIP3    H132653   5.444   1.951  17.050 -0.4539 -0.2350  0.8638
 3746TIP3    H232654   5.297   1.937  17.013 -0.2585 -0.2586  0.0897
 3747TIP3   OH232655   3.444   6.093   2.042 -0.6717  0.0932  0.4377
 3747TIP3    H132656   3.474   6.114   2.130 -0.9519  0.8647  0.3530
 3747TIP3    H232657   3.498   6.147   1.985 -1.8883  1.1626  0.2578
 3748TIP3   OH232658   3.514   2.716   1.691  0.9092 -0.0458  0.0358
 3748TIP3    H132659   3.516   2.811   1.704  1.5599  0.0500 -0.6840
 3748TIP3    H232660   3.581   2.683   1.752  1.1367  0.0222 -0.1752
 3749TIP3   OH232661   1.324   4.067   4.677 -0.7461 -0.9213  0.6505
 3749TIP3    H132662   1.400   4.038   4.726  0.1555 -0.0805 -0.1962
 3749TIP3    H232663   1.277   4.125   4.737 -0.2975 -0.8376  0.9253
 3750TIP3   OH232664   4.004   3.344   3.252 -0.5463  0.3662 -0.7365
 3750TIP3    H132665   3.951   3.398   3.311 -1.2194  1.0586 -1.9333
 3750TIP3    H232666   3.961   3.259   3.252 -0.3853  0.2779 -0.0321
 3751TIP3   OH232667   3.664   0.992   1.117 -0.1737  0.1898  0.2882
 3751TIP3    H132668   3.661   0.929   1.045  1.4915  1.8683 -1.3526
 3751TIP3    H232669   3.646   1.077   1.076 -0.3512  1.0708  2.0781
 3752TIP3   OH232670   0.436   2.544  14.765  0.3688 -0.7303  0.2978
 3752TIP3    H132671   0.368   2.609  14.785  0.9357 -0.3687  1.0912
 3752TIP3    H232672   0.398   2.491  14.694 -0.4151 -0.0311  0.1749
 3753TIP3   OH232673   0.239   4.205   1.328 -0.3484 -0.3676 -0.4287
 3753TIP3    H132674   0.298   4.180   1.399 -0.7929  0.5275  0.2780
 3753TIP3    H232675   0.294   4.202   1.249 -0.4500 -3.7982 -0.4964
 3754TIP3   OH232676   2.132   2.035   3.467 -0.1428  0.1938  0.0382
 3754TIP3    H132677   2.083   1.963   3.504  0.4560 -0.1773  0.1288
 3754TIP3    H232678   2.174   1.998   3.389  1.3197  0.0214  0.8634
 3755TIP3   OH232679   0.446   1.548  11.795 -0.4003  0.1814  0.2963
 3755TIP3    H132680   0.459   1.613  11.727  0.8564 -1.5458 -1.2212
 3755TIP3    H232681   0.528   1.550  11.845 -0.9405  0.7688  1.1760
 3756TIP3   OH232682   1.390   3.184   1.499 -0.2607  0.2709  0.0856
 3756TIP3    H132683   1.483   3.163   1.503 -0.0304  0.8884 -1.4251
 3756TIP3    H232684   1.359   3.173   1.589  1.1979 -0.2250  0.5543
 3757TIP3   OH232685   3.921   1.657  14.582 -0.1540 -0.4470  0.2243
 3757TIP3    H132686   3.996   1.712  14.606 -0.8814  0.2795  0.8757
 3757TIP3    H232687   3.951   1.567  14.599  1.2764 -0.3438 -1.4499
 3758TIP3   OH232688   1.424   4.421  13.092  0.2179  0.2868  0.0293
 3758TIP3    H132689   1.460   4.449  13.008 -0.7630 -1.3521 -0.9917
 3758TIP3    H232690   1.500   4.387  13.140  0.4882 -0.6794 -1.0436
 3759TIP3   OH232691   6.686   4.380  12.378 -0.0674  0.1153  0.0198
 3759TIP3    H132692   6.769   4.422  12.354 -1.4174  2.0683 -1.4742
 3759TIP3    H232693   6.703   4.342  12.464  2.3860  0.4030 -0.2589
 3760TIP3   OH232694   1.679   1.963   0.310 -0.0476 -0.2308  0.2983
 3760TIP3    H132695   1.624   2.041   0.309  1.8493  1.1841  0.1326
 3760TIP3    H232696   1.742   1.979   0.380  1.1728 -1.0157 -0.5741
 3761TIP3   OH232697   3.146   1.589  15.273 -0.0522 -0.0357  0.2990
 3761TIP3    H132698   3.168   1.649  15.202 -1.4650 -0.1449 -0.2592
 3761TIP3    H232699   3.195   1.623  15.348  1.3264  0.1890 -0.6560
 3762TIP3   OH232700   5.133   6.274  15.720  0.0029 -0.6004 -0.1193
 3762TIP3    H132701   5.049   6.272  15.674  0.5283 -3.3849 -1.1469
 3762TIP3    H232702   5.183   6.341  15.675 -1.9181  1.8786  1.1799
 3763TIP3   OH232703   5.905   3.738  14.243  0.4460  0.3806 -0.5645
 3763TIP3    H132704   5.964   3.788  14.300 -0.6414  1.0446 -0.0003
 3763TIP3    H232705   5.818   3.770  14.264 -0.3266 -1.9055 -0.0753
 3764TIP3   OH232706   0.434   3.650  15.116 -0.3645 -0.2815 -0.5809
 3764TIP3    H132707   0.466   3.739  15.127 -1.2795  0.0018 -0.1384
 3764TIP3    H232708   0.513   3.599  15.096  0.5524  0.2047  1.5031
 3765TIP3   OH232709   6.593   6.066   1.526 -0.2091 -0.4559 -0.5976
 3765TIP3    H132710   6.566   6.098   1.440 -1.0155 -1.0816 -0.5830
 3765TIP3    H232711   6.551   5.980   1.534  0.1607 -0.5635  0.2689
 3766TIP3   OH232712   2.003   0.742  11.360 -0.0105  0.4067  0.6118
 3766TIP3    H132713   1.985   0.781  11.274 -0.9681  0.7278  0.9432
 3766TIP3    H232714   2.072   0.798  11.397 -0.0678  0.6714  0.3268
 3767TIP3   OH232715   6.334   5.374   3.670  0.0989 -0.5512  0.2442
 3767TIP3    H132716   6.418   5.343   3.704 -0.1384  0.1207  1.4976
 3767TIP3    H232717   6.286   5.403   3.748 -0.1297  1.8751 -0.7276
 3768TIP3   OH232718   3.801   4.479   6.593  0.6441  0.2747 -0.4485
 3768TIP3    H132719   3.787   4.572   6.577 -0.9503  0.1169 -0.1009
 3768TIP3    H232720   3.867   4.476   6.663 -0.4176  1.1973  0.6321
 3769TIP3   OH232721   2.991   6.647  14.912 -0.8916  0.0263 -0.3192
 3769TIP3    H132722   2.935   6.723  14.900 -1.7055 -0.1591  1.9272
 3769TIP3    H232723   3.071   6.682  14.952  0.8161  0.3091 -3.5915
 3770TIP3   OH232724   0.268   4.165   5.322  0.2212 -0.5919  0.2430
 3770TIP3    H132725   0.243   4.192   5.411 -0.1412 -1.2845  0.3569
 3770TIP3    H232726   0.305   4.244   5.283 -0.2990 -0.0794  0.7626
 3771TIP3   OH232727   3.243   6.024   2.395  0.4893 -0.7588  1.2145
 3771TIP3    H132728   3.164   6.061   2.354 -0.0647 -2.3935  0.7148
 3771TIP3    H232729   3.314   6.048   2.336  0.0245 -1.1530  0.4722
 3772TIP3   OH232730   4.548   2.967   2.498  0.0735 -0.1870  0.2339
 3772TIP3    H132731   4.509   2.974   2.585  0.7375  0.3891  0.4983
 3772TIP3    H232732   4.475   2.980   2.438 -0.0813  1.4276  0.7159
 3773TIP3   OH232733   2.944   2.596  13.256 -0.3888  0.2731 -0.5524
 3773TIP3    H132734   2.916   2.556  13.338  0.9002 -0.5851 -0.4920
 3773TIP3    H232735   2.887   2.558  13.190 -0.8263  0.2519 -0.1678
 3774TIP3   OH232736   4.071   5.525  13.892  0.3486 -0.4457 -0.0473
 3774TIP3    H132737   4.015   5.600  13.911  0.7794 -0.1617  0.1120
 3774TIP3    H232738   4.014   5.449  13.906  0.2535 -0.1966  1.0265
 3775TIP3   OH232739   5.499   4.327   4.042 -0.1737 -0.2043 -0.0002
 3775TIP3    H132740   5.455   4.402   4.002  1.0090  0.6295  0.2213
 3775TIP3    H232741   5.559   4.296   3.975 -1.3544 -1.6112 -0.4586
 3776TIP3   OH232742   3.779   4.824   4.405  0.6687  0.1039  0.0417
 3776TIP3    H132743   3.713   4.773   4.451  0.5625  1.2072  1.1775
 3776TIP3    H232744   3.852   4.763   4.392  1.5704  0.1851  3.6159
 3777TIP3   OH232745   0.659   4.472   3.022  0.2334  0.0078 -0.0652
 3777TIP3    H132746   0.672   4.510   2.936  0.0255 -0.4151 -0.2863
 3777TIP3    H232747   0.642   4.379   3.005 -1.9392  0.2795  0.2668
 3778TIP3   OH232748   0.308   0.922   0.429  0.1483  0.0239  0.1197
 3778TIP3    H132749   0.309   0.865   0.506 -1.7950 -0.7513 -0.3515
 3778TIP3    H232750   0.357   1.000   0.455  0.0199 -0.4623  1.9293
 3779TIP3   OH232751   0.321   3.666  12.114 -0.1262 -1.2460 -0.1301
 3779TIP3    H132752   0.381   3.738  12.095  0.3546 -1.5373  0.2410
 3779TIP3    H232753   0.234   3.702  12.098 -0.0412  0.0529  1.9681
 3780TIP3   OH232754   5.273   6.235   4.622 -0.2411  0.6087  0.4414
 3780TIP3    H132755   5.322   6.175   4.678  0.2707  0.0956 -0.5241
 3780TIP3    H232756   5.321   6.318   4.626  0.1615  0.3866  0.2588
 3781TIP3   OH232757   3.962   4.108   4.590 -0.1397 -0.1256  0.4505
 3781TIP3    H132758   3.909   4.033   4.564 -0.4454  0.6629 -1.3132
 3781TIP3    H232759   3.899   4.178   4.606  0.2541  0.4263 -0.3066
 3782TIP3   OH232760   2.902   6.733  15.496 -0.7495  0.2690  0.2726
 3782TIP3    H132761   2.811   6.708  15.511 -0.8262  0.8046  0.7330
 3782TIP3    H232762   2.953   6.670  15.545 -0.8340 -0.4733 -0.5603
 3783TIP3   OH232763   1.054   3.702   2.661  0.5934 -0.1379  0.2114
 3783TIP3    H132764   1.006   3.785   2.661  0.8609  0.0330 -0.8976
 3783TIP3    H232765   1.047   3.671   2.571  2.7633  0.0128 -0.0564
 3784TIP3   OH232766   4.178   4.289  14.384  0.3673 -0.2940 -0.5033
 3784TIP3    H132767   4.107   4.277  14.448 -1.4927  1.6191 -2.0915
 3784TIP3    H232768   4.197   4.200  14.353 -1.8765 -0.8070 -0.5540
 3785TIP3   OH232769   0.033   4.361   1.417  0.5335  0.1105 -0.3738
 3785TIP3    H132770  -0.038   4.352   1.353 -0.6705 -2.0489  1.1618
 3785TIP3    H232771   0.103   4.306   1.382 -0.1265 -1.0717  0.1006
 3786TIP3   OH232772   3.170   1.438  16.467 -0.1231  0.3970  0.0581
 3786TIP3    H132773   3.249   1.459  16.516 -0.5587  1.6190  0.2650
 3786TIP3    H232774   3.110   1.400  16.531 -0.2708  0.9251  0.2357
 3787TIP3   OH232775   5.250   5.837  13.601 -0.0460  0.5427 -0.1939
 3787TIP3    H132776   5.273   5.770  13.537  0.7473  0.1495  0.4825
 3787TIP3    H232777   5.334   5.861  13.642 -0.4335  1.3235  0.1723
 3788TIP3   OH232778   1.051   1.923   1.662 -0.8427  0.2398 -0.0299
 3788TIP3    H132779   1.100   1.842   1.671 -1.5148 -0.2593 -0.7960
 3788TIP3    H232780   1.001   1.913   1.581 -1.5987  1.0578  0.3128
 3789TIP3   OH232781   5.185   1.955  14.131 -0.2752 -0.2324 -0.4605
 3789TIP3    H132782   5.169   1.978  14.222  1.8594  2.8947 -0.7439
 3789TIP3    H232783   5.168   1.861  14.127  0.1338 -0.6024  3.2777
 3790TIP3   OH232784   4.899   3.825  15.908 -0.0163  0.3585  0.5913
 3790TIP3    H132785   4.808   3.833  15.880  0.1943  2.5525  0.3903
 3790TIP3    H232786   4.893   3.808  16.003 -0.6291  0.7154  0.6208
 3791TIP3   OH232787   0.277   4.559   1.202  0.1749  0.1351 -0.3338
 3791TIP3    H132788   0.186   4.533   1.215 -0.2557  1.1161 -1.2196
 3791TIP3    H232789   0.313   4.492   1.144  0.3733 -0.8981  0.9421
 3792TIP3   OH232790   1.875   1.648  10.091 -0.0890 -0.0489 -0.1787
 3792TIP3    H132791   1.788   1.611  10.105  0.8428 -2.0632  0.6659
 3792TIP3    H232792   1.892   1.699  10.170 -0.3712  0.0897 -0.2053
 3793TIP3   OH232793   5.133   3.239   2.675  0.1147 -0.4321  0.1249
 3793TIP3    H132794   5.084   3.163   2.643  2.0474 -2.0876  0.8084
 3793TIP3    H232795   5.225   3.210   2.675  0.8650  1.7049  1.0105
 3794TIP3   OH232796   2.224   1.218   0.221 -0.0902  0.1145 -0.5628
 3794TIP3    H132797   2.274   1.299   0.211 -0.3309  0.5203  1.1652
 3794TIP3    H232798   2.281   1.150   0.186  1.4173  0.6468  0.7448
 3795TIP3   OH232799   6.742   3.407  13.763 -0.6323  0.1448 -0.2554
 3795TIP3    H132800   6.647   3.411  13.775 -0.4817  0.4077  0.8800
 3795TIP3    H232801   6.756   3.442  13.674 -1.4784  1.4466  0.0911
 3796TIP3   OH232802   1.882   0.522  15.681  0.2202 -0.1339 -0.4646
 3796TIP3    H132803   1.918   0.567  15.757  0.2771 -1.0775  0.0859
 3796TIP3    H232804   1.958   0.496  15.630  0.3687 -1.8461  0.5367
 3797TIP3   OH232805   2.451   0.617  17.043 -0.7095 -0.1570 -0.3471
 3797TIP3    H132806   2.512   0.580  16.980 -0.7638 -0.3930 -0.2601
 3797TIP3    H232807   2.391   0.669  16.989 -1.3936 -1.1996 -0.6148
 3798TIP3   OH232808   3.795   2.952   5.196 -0.1362  0.2461 -0.3256
 3798TIP3    H132809   3.735   3.025   5.210 -0.0037  0.4250 -0.6820
 3798TIP3    H232810   3.746   2.875   5.226 -0.8859  0.2770 -1.4338
 3799TIP3   OH232811   4.609   6.199   1.491 -0.2026 -0.2010 -0.5456
 3799TIP3    H132812   4.637   6.115   1.455 -1.9299 -0.0197 -2.5379
 3799TIP3    H232813   4.686   6.233   1.537  0.3742 -3.0725  0.7801
 3800TIP3   OH232814   3.547   2.245  16.304 -0.5528 -0.3186 -0.4529
 3800TIP3    H132815   3.544   2.294  16.221  1.7950  0.5213 -0.1368
 3800TIP3    H232816   3.636   2.260  16.336 -1.4127 -0.6002  2.2480
 3801TIP3   OH232817   2.483   6.577   3.612  0.1152  0.4150  0.4112
 3801TIP3    H132818   2.425   6.528   3.554  1.1720 -1.1395  0.5938
 3801TIP3    H232819   2.561   6.595   3.558  0.1539  1.0146  0.6570
 3802TIP3   OH232820   4.975   4.033   1.461 -0.6670  0.1431  0.9160
 3802TIP3    H132821   4.899   4.074   1.419  0.3775  1.3187  0.0826
 3802TIP3    H232822   5.012   4.102   1.516 -0.1516 -0.3845  1.2429
 3803TIP3   OH232823   0.041   5.217  15.177 -0.4606 -0.2150 -0.0358
 3803TIP3    H132824   0.003   5.174  15.253 -1.6737  1.7128  0.5372
 3803TIP3    H232825   0.038   5.151  15.107 -0.9119 -1.4689  1.1290
 3804TIP3   OH232826   0.738   5.293   5.295 -0.0013  0.3805 -0.4043
 3804TIP3    H132827   0.793   5.279   5.218  1.3564  1.9664  0.2161
 3804TIP3    H232828   0.782   5.363   5.344 -2.1886  1.2268  0.5046
 3805TIP3   OH232829   4.420   3.041  14.604 -0.3674 -0.0380  0.0642
 3805TIP3    H132830   4.411   2.951  14.636 -0.6564 -0.2208 -0.5136
 3805TIP3    H232831   4.482   3.082  14.664 -0.1281 -0.6643  0.2491
 3806TIP3   OH232832   1.244   1.503   3.684  0.0066 -0.3541 -0.3387
 3806TIP3    H132833   1.163   1.481   3.640  0.2426 -0.0400 -0.9434
 3806TIP3    H232834   1.219   1.516   3.776 -0.6517 -0.0816 -0.5527
 3807TIP3   OH232835   4.752   3.172   2.780 -0.0995  0.1040  0.5759
 3807TIP3    H132836   4.671   3.199   2.737 -0.1177 -1.7626 -0.7118
 3807TIP3    H232837   4.801   3.253   2.794 -1.4678  1.0884 -0.1204
 3808TIP3   OH232838   3.519   6.600   2.775 -0.0243 -0.1482  0.0501
 3808TIP3    H132839   3.505   6.686   2.814 -0.7923 -0.6689  0.9609
 3808TIP3    H232840   3.614   6.596   2.761 -0.0958  1.2478 -1.0112
 3809TIP3   OH232841   2.735   0.522  12.686 -0.0389  0.2057  0.3345
 3809TIP3    H132842   2.736   0.617  12.684  0.8147  0.3176  2.9163
 3809TIP3    H232843   2.827   0.497  12.701 -0.4627 -0.9308  1.1935
 3810TIP3   OH232844   2.133   6.427  16.964 -0.2394  0.2884  0.0630
 3810TIP3    H132845   2.134   6.336  16.993  0.9535  1.3909  4.3151
 3810TIP3    H232846   2.077   6.471  17.027 -0.6597  2.5658 -1.7688
 3811TIP3   OH232847   2.891   1.057  11.414 -0.3036  0.1257 -0.1330
 3811TIP3    H132848   2.945   0.987  11.377 -0.1591  0.1290  0.0702
 3811TIP3    H232849   2.924   1.068  11.503 -0.1571  0.6262 -0.2459
 3812TIP3   OH232850   2.198   0.885  11.472 -0.5357 -0.2454  0.0984
 3812TIP3    H132851   2.187   0.903  11.565 -0.4566 -1.4293  0.3568
 3812TIP3    H232852   2.257   0.953  11.440 -1.5716  0.9389  0.6197
 3813TIP3   OH232853   1.342   1.848  15.999  0.2892 -0.0421  0.3055
 3813TIP3    H132854   1.280   1.910  15.960  1.3591  1.4216  0.8454
 3813TIP3    H232855   1.414   1.843  15.936  1.8246  2.0008  1.7623
 3814TIP3   OH232856   3.987   3.133   5.134  0.4868  0.1019  0.1182
 3814TIP3    H132857   3.913   3.075   5.147 -1.3672  2.6155  1.5319
 3814TIP3    H232858   4.013   3.120   5.042 -0.4904 -2.1273  0.1192
 3815TIP3   OH232859   0.794   3.354  11.161 -0.2754 -0.0179  0.2820
 3815TIP3    H132860   0.845   3.356  11.080  0.3203  0.0702  0.6510
 3815TIP3    H232861   0.727   3.422  11.149 -0.4196 -0.2594 -0.2798
 3816TIP3   OH232862   2.405   6.265   5.737 -0.7325 -0.3045 -0.2840
 3816TIP3    H132863   2.422   6.340   5.680  1.4041 -1.9352 -1.9623
 3816TIP3    H232864   2.452   6.285   5.818 -1.4155  0.7668 -0.1242
 3817TIP3   OH232865   5.276   4.077  16.029 -0.4575  0.2593  0.0835
 3817TIP3    H132866   5.219   4.071  16.106  0.8673 -1.3390  1.0048
 3817TIP3    H232867   5.362   4.096  16.066 -0.2261  1.9685 -1.2342
 3818TIP3   OH232868   4.773   4.112  14.203  0.0017 -0.3183  0.2244
 3818TIP3    H132869   4.701   4.056  14.233 -2.2911  1.2495 -2.0059
 3818TIP3    H232870   4.818   4.059  14.137  0.0177 -0.7553  0.5749
 3819TIP3   OH232871   2.022   1.634   1.564 -0.3805  0.0890  0.0449
 3819TIP3    H132872   1.943   1.607   1.611 -0.2225 -0.5707 -0.0497
 3819TIP3    H232873   1.989   1.682   1.488 -0.6323  1.2234  0.8462
 3820TIP3   OH232874   2.595   2.064  16.538 -1.1668  0.2685 -0.1690
 3820TIP3    H132875   2.638   2.046  16.621 -1.7295 -1.3753 -0.2082
 3820TIP3    H232876   2.602   1.983  16.488  1.1625  1.8313 -2.6976
 3821TIP3   OH232877   5.231   1.017  15.055 -0.0351 -0.4020 -0.2597
 3821TIP3    H132878   5.257   1.008  15.147 -0.5402  0.2453 -0.0452
 3821TIP3    H232879   5.310   1.048  15.011 -0.4580  1.8735  0.4428
 3822TIP3   OH232880   1.205   1.707  15.115  0.0926 -0.3521  0.2535
 3822TIP3    H132881   1.213   1.698  15.210  0.9585 -1.8589  0.0670
 3822TIP3    H232882   1.262   1.639  15.079  1.3627  1.4605 -1.3773
 3823TIP3   OH232883   3.607   4.379  13.073  0.0963 -0.1566 -0.1181
 3823TIP3    H132884   3.535   4.330  13.111  0.0422  0.6492  0.8706
 3823TIP3    H232885   3.686   4.340  13.111  0.0830  0.1176  0.1973
 3824TIP3   OH232886   6.363   0.573   0.216  0.3703  0.2718  0.0008
 3824TIP3    H132887   6.440   0.607   0.170  0.3339  0.9862  0.4494
 3824TIP3    H232888   6.291   0.628   0.186  0.2262  0.2940  0.3903
 3825TIP3   OH232889   5.195   5.740  11.455 -0.0857  0.2378  0.3241
 3825TIP3    H132890   5.222   5.741  11.363  1.2013 -1.6414  0.6195
 3825TIP3    H232891   5.104   5.710  11.453 -0.6447  1.8681 -0.4012
 3826TIP3   OH232892   5.577   3.171  13.428 -0.5432  0.0395  0.0808
 3826TIP3    H132893   5.627   3.090  13.439  0.7005  0.9203  1.3056
 3826TIP3    H232894   5.622   3.218  13.358  0.9757  1.1901  1.7072
 3827TIP3   OH232895   6.327   2.158   0.437 -0.4457 -0.7590 -0.5279
 3827TIP3    H132896   6.247   2.200   0.468 -0.2471 -1.2571  0.7381
 3827TIP3    H232897   6.396   2.220   0.460 -0.3588 -0.8400 -0.5722
 3828TIP3   OH232898   0.357   1.373  14.551  0.1507  0.2747 -0.0222
 3828TIP3    H132899   0.387   1.416  14.471 -0.4779 -0.4760 -0.6791
 3828TIP3    H232900   0.421   1.397  14.618  0.0080  1.9400 -0.4407
 3829TIP3   OH232901   1.182   4.532  16.514 -0.8265  0.1011  0.2269
 3829TIP3    H132902   1.233   4.498  16.588 -0.0068 -0.8231 -0.7461
 3829TIP3    H232903   1.099   4.485  16.519 -0.2757 -0.9446 -0.1994
 3830TIP3   OH232904   0.414   4.060  11.157 -0.3832  0.1276  0.0340
 3830TIP3    H132905   0.474   4.129  11.184 -0.7282 -0.0831  1.4325
 3830TIP3    H232906   0.415   3.998  11.230 -1.6740 -0.2911 -0.2831
 3831TIP3   OH232907   2.038   1.848   2.113 -0.0367 -0.4948 -0.0852
 3831TIP3    H132908   2.049   1.939   2.140 -0.2050 -0.8142  1.1211
 3831TIP3    H232909   1.949   1.844   2.079  0.0268 -0.1759 -0.2947
 3832TIP3   OH232910   6.002   0.491   2.937 -0.3446 -0.9059 -0.2701
 3832TIP3    H132911   5.979   0.408   2.896 -0.2643 -1.2249  0.3053
 3832TIP3    H232912   5.982   0.558   2.872  0.9239 -1.4772 -1.2791
 3833TIP3   OH232913   1.301   2.209  15.615  0.1584 -0.7801  0.1953
 3833TIP3    H132914   1.250   2.167  15.546 -0.2954 -0.6839  0.4721
 3833TIP3    H232915   1.390   2.215  15.578 -0.1501 -0.4160 -0.5067
 3834TIP3   OH232916   1.455   6.409   1.520 -0.1199  0.0630  0.4260
 3834TIP3    H132917   1.475   6.403   1.426  0.3907  4.2796  0.0775
 3834TIP3    H232918   1.398   6.333   1.537 -0.0383 -1.0080 -3.1947
 3835TIP3   OH232919   0.521   6.674   3.795  0.8086 -0.2342 -0.2390
 3835TIP3    H132920   0.584   6.727   3.746  0.0863 -0.5200 -1.5215
 3835TIP3    H232921   0.487   6.733   3.863  1.1849  0.4433 -0.6345
 3836TIP3   OH232922   0.198   4.297  12.495  0.3671 -0.2600 -0.4860
 3836TIP3    H132923   0.187   4.335  12.407  1.0610 -2.0030 -1.3879
 3836TIP3    H232924   0.108   4.281  12.525  0.1135  0.6729 -0.7221
 3837TIP3   OH232925   6.674   3.040  15.602  0.0058  0.3358 -0.1006
 3837TIP3    H132926   6.678   2.950  15.569 -1.8959 -0.2280  1.0557
 3837TIP3    H232927   6.740   3.043  15.670 -1.0948 -0.7760  1.0776
 3838TIP3   OH232928   5.865   1.579  14.509 -0.2693  0.8818  0.5543
 3838TIP3    H132929   5.834   1.651  14.454 -2.8080 -0.4377  0.1132
 3838TIP3    H232930   5.957   1.568  14.484 -0.7118  1.8377 -1.7584
 3839TIP3   OH232931   0.169   5.030  16.434 -0.5416 -0.3101  0.6797
 3839TIP3    H132932   0.180   4.990  16.347 -0.2360  0.6453  0.2730
 3839TIP3    H232933   0.075   5.045  16.441 -0.3133  3.0571 -1.1122
 3840TIP3   OH232934   5.118   4.505  17.072 -0.4098 -0.3207 -0.4013
 3840TIP3    H132935   5.133   4.463  16.987 -0.0015 -1.4524  0.2161
 3840TIP3    H232936   5.081   4.590  17.049  0.8710 -0.0759 -1.7552
 3841TIP3   OH232937   1.305   3.819   2.798  0.4549 -0.2889 -0.2572
 3841TIP3    H132938   1.331   3.815   2.706  0.7840  0.2241 -0.1935
 3841TIP3    H232939   1.220   3.862   2.797  0.9620  0.7640 -0.2497
 3842TIP3   OH232940   4.739   6.142  16.609  0.1288 -0.1545  0.6260
 3842TIP3    H132941   4.819   6.144  16.662  0.7936 -1.6716 -0.2591
 3842TIP3    H232942   4.690   6.219  16.637  1.3016  0.1005  2.1201
 3843TIP3   OH232943   3.431   6.730  16.602 -0.2011 -0.0268 -0.5305
 3843TIP3    H132944   3.382   6.797  16.554 -0.2938  0.0322 -0.3497
 3843TIP3    H232945   3.374   6.653  16.601 -0.6655  0.3013  0.4282
 3844TIP3   OH232946   4.973   4.261  12.939  0.4758  0.3809 -0.2692
 3844TIP3    H132947   4.983   4.193  12.873  2.7784 -0.3653  0.7142
 3844TIP3    H232948   4.972   4.214  13.022 -0.0364  1.4284  0.3388
 3845TIP3   OH232949   1.972   4.102  12.419  0.0773  0.9884 -0.2366
 3845TIP3    H132950   2.050   4.090  12.473 -0.1456  0.5237 -0.0029
 3845TIP3    H232951   1.906   4.045  12.460 -0.2918  1.1416 -0.6067
 3846TIP3   OH232952   3.681   2.430  15.864  0.2837  0.1769  0.5080
 3846TIP3    H132953   3.709   2.469  15.781 -0.0967  1.9457  1.1729
 3846TIP3    H232954   3.740   2.467  15.929  1.1949 -1.9139  0.9845
 3847TIP3   OH232955   6.757   1.053   3.748  0.4131 -0.3582  0.0649
 3847TIP3    H132956   6.790   1.076   3.835 -0.0446 -0.1294  0.1808
 3847TIP3    H232957   6.707   0.973   3.761 -1.4758  0.8160  0.4268
 3848TIP3   OH232958   2.760   6.135   0.368 -0.2318 -0.2193  0.1827
 3848TIP3    H132959   2.696   6.184   0.420  0.5813  0.2572  0.7631
 3848TIP3    H232960   2.745   6.162   0.278  0.5248  1.5015  0.5387
 3849TIP3   OH232961   1.060   0.021  13.988  0.2871 -0.1241  0.0901
 3849TIP3    H132962   1.093   0.106  13.960  0.3271 -0.9306 -2.6428
 3849TIP3    H232963   1.138  -0.031  14.006  0.4464 -0.5837 -1.7044
 3850TIP3   OH232964   2.842   6.440   5.281  0.0819 -0.3905 -0.6019
 3850TIP3    H132965   2.868   6.356   5.244  2.1333  0.3583 -1.0550
 3850TIP3    H232966   2.775   6.473   5.222 -0.1931 -1.3700 -0.8501
 3851TIP3   OH232967   5.249   6.561  13.992  0.0918  0.8398 -0.0082
 3851TIP3    H132968   5.288   6.636  14.037 -0.3423  0.6673  0.6685
 3851TIP3    H232969   5.299   6.553  13.911 -0.1340  2.1383 -0.3012
 3852TIP3   OH232970   5.518   3.473  12.281 -0.3650 -0.8436 -0.1222
 3852TIP3    H132971   5.445   3.446  12.226 -1.1011 -1.0467  0.9131
 3852TIP3    H232972   5.505   3.425  12.363  1.8362 -2.1153 -0.4508
 3853TIP3   OH232973   3.453   0.027  13.783  0.3229 -0.5869 -0.6762
 3853TIP3    H132974   3.467   0.058  13.873  2.7473 -1.4843 -0.6591
 3853TIP3    H232975   3.417   0.103  13.737  0.7791  0.4782  0.6457
 3854TIP3   OH232976   5.036   6.009  15.699  0.6138  0.4348 -0.1411
 3854TIP3    H132977   5.007   5.953  15.626  3.2868 -1.0276 -0.2030
 3854TIP3    H232978   5.095   6.073  15.658  0.5219  0.9118  0.4643
 3855TIP3   OH232979   5.693   0.089  16.878  0.3000  0.1734  0.1078
 3855TIP3    H132980   5.759   0.029  16.913 -0.4504 -0.6045  0.2341
 3855TIP3    H232981   5.743   0.157  16.834  1.1568 -1.2548 -1.2054
 3856TIP3   OH232982   6.036   0.332  15.289 -0.0495  0.0602 -0.0259
 3856TIP3    H132983   6.124   0.366  15.278 -1.1777  2.4773 -3.2637
 3856TIP3    H232984   5.986   0.404  15.328 -1.1770 -0.1307 -1.0466
 3857TIP3   OH232985   2.595   0.723  13.327  0.1579  0.7453 -0.1289
 3857TIP3    H132986   2.532   0.694  13.393 -0.2204 -2.6185 -1.7234
 3857TIP3    H232987   2.554   0.800  13.287 -3.6053 -1.7798 -1.6848
 3858TIP3   OH232988   0.309   4.810  13.850 -0.1549 -0.3942  0.1143
 3858TIP3    H132989   0.318   4.869  13.775 -1.1925 -0.9870 -0.4931
 3858TIP3    H232990   0.330   4.723  13.815 -2.1188 -0.9136  0.1019
 3859TIP3   OH232991   3.886   4.664  10.448  0.1274  0.4456 -0.0798
 3859TIP3    H132992   3.891   4.759  10.457 -1.1038  0.5811 -0.5480
 3859TIP3    H232993   3.792   4.646  10.441  0.3971 -0.6787 -1.2605
 3860TIP3   OH232994   4.114   5.077   3.660  0.1441  0.1219  0.3546
 3860TIP3    H132995   4.118   5.006   3.723 -2.3620 -0.4136  0.0333
 3860TIP3    H232996   4.155   5.042   3.581  0.4614 -0.3525  0.7319
 3861TIP3   OH232997   3.590   6.309   3.743 -0.1910 -0.2936 -0.1030
 3861TIP3    H132998   3.664   6.251   3.723 -0.1441 -0.1711 -0.2842
 3861TIP3    H232999   3.629   6.385   3.784 -0.3382 -0.7875  0.9906
 3862TIP3   OH233000   5.744   6.554  15.696  0.0905  0.4978  0.5549
 3862TIP3    H133001   5.753   6.476  15.642  0.6258  1.4081 -0.7271
 3862TIP3    H233002   5.705   6.619  15.638  1.2211  1.6894  1.0791
 3863TIP3   OH233003   2.229   5.778  13.366  0.5059  0.6981  0.5831
 3863TIP3    H133004   2.202   5.858  13.411  0.6221  0.2279  1.5082
 3863TIP3    H233005   2.310   5.752  13.409  1.6704  1.2422 -1.1390
 3864TIP3   OH233006   3.624   3.173   5.253 -0.1499  0.6227  0.1483
 3864TIP3    H133007   3.530   3.189   5.250 -0.3379 -0.5259 -1.3489
 3864TIP3    H233008   3.656   3.228   5.325 -1.6066  2.7629 -0.7454
 3865TIP3   OH233009   5.481   2.403  14.502  0.4555 -0.0812 -0.0685
 3865TIP3    H133010   5.497   2.496  14.485  0.3444 -0.2132 -0.9618
 3865TIP3    H233011   5.387   2.398  14.520  0.4230 -0.0441 -0.2228
 3866TIP3   OH233012   0.123   4.438  11.649 -0.4051  0.6280 -0.6861
 3866TIP3    H133013   0.081   4.354  11.665  1.5191 -0.2120  0.2961
 3866TIP3    H233014   0.141   4.473  11.736  3.0524 -0.2392 -0.9077
 3867TIP3   OH233015   3.097   4.613  13.509 -0.0381  0.1692 -0.4140
 3867TIP3    H133016   3.032   4.666  13.462  1.9042  2.3596 -0.8564
 3867TIP3    H233017   3.095   4.647  13.598  1.3269  1.1883 -0.7360
 3868TIP3   OH233018   4.470   4.298   5.754  0.2514  0.4310  0.2118
 3868TIP3    H133019   4.540   4.277   5.693  1.2395  0.1955  1.3869
 3868TIP3    H233020   4.515   4.325   5.834 -1.0012  1.5644  0.5813
 3869TIP3   OH233021   4.993   2.318  16.398  0.0015  0.1737 -0.3174
 3869TIP3    H133022   5.028   2.393  16.445 -1.1382  0.7839 -0.4199
 3869TIP3    H233023   4.905   2.345  16.371 -0.0257 -0.8042 -1.2739
 3870TIP3   OH233024   6.090   0.760  12.248  0.8062  0.6570  0.3889
 3870TIP3    H133025   6.046   0.846  12.255 -0.6484  0.0056 -0.2323
 3870TIP3    H233026   6.029   0.707  12.196  2.3381 -0.3370 -0.4492
 3871TIP3   OH233027   1.111   5.428  15.765 -0.2706 -0.6074  0.5803
 3871TIP3    H133028   1.156   5.403  15.845  0.6987  0.9299  0.5653
 3871TIP3    H233029   1.162   5.501  15.731 -1.5912 -0.1792 -0.5831
 3872TIP3   OH233030   5.967   1.999   1.540 -0.0099  0.0190  0.1123
 3872TIP3    H133031   6.011   1.949   1.609  1.3704 -0.3216 -0.9745
 3872TIP3    H233032   5.874   1.984   1.555  0.1734  0.8095  2.5328
 3873TIP3   OH233033   4.318   2.962  11.450 -0.6551  0.2348 -0.4632
 3873TIP3    H133034   4.231   2.932  11.477 -1.1958  1.1176 -1.1873
 3873TIP3    H233035   4.323   3.053  11.479  0.3051 -0.0122  0.1862
 3874TIP3   OH233036   1.789   5.892   1.936 -0.1411 -0.1361  0.4593
 3874TIP3    H133037   1.722   5.950   1.900  1.9180  0.7098 -2.3976
 3874TIP3    H233038   1.842   5.947   1.993 -0.0333  0.0208  0.2102
 3875TIP3   OH233039   4.671   5.954   4.743  0.2492 -0.1810 -0.1852
 3875TIP3    H133040   4.636   5.958   4.654  0.3406  0.4067 -0.1959
 3875TIP3    H233041   4.765   5.964   4.731  0.3907 -1.3094 -0.1185
 3876TIP3   OH233042   2.254   3.556  14.131  0.4221  0.3771  0.3479
 3876TIP3    H133043   2.210   3.561  14.045 -0.8498  0.7675  0.9930
 3876TIP3    H233044   2.207   3.487  14.177  2.8289 -1.7773 -0.1623
 3877TIP3   OH233045   4.589   3.986   5.838  0.6539 -0.1040  0.2558
 3877TIP3    H133046   4.615   4.004   5.928 -1.2717 -0.4676  0.9199
 3877TIP3    H233047   4.496   4.006   5.835  0.8503  0.8364 -1.9222
 3878TIP3   OH233048   1.029   0.795   0.953  0.0756 -0.1301  0.0802
 3878TIP3    H133049   0.998   0.885   0.954 -2.0059 -0.7671 -0.7766
 3878TIP3    H233050   1.032   0.769   1.045 -0.2849  0.5070  0.2720
 3879TIP3   OH233051   6.310   1.776  11.153  0.3192  0.8483 -0.2704
 3879TIP3    H133052   6.339   1.771  11.062  2.6988  1.4507  0.3839
 3879TIP3    H233053   6.240   1.842  11.153 -0.3858  0.1309 -1.7822
 3880TIP3   OH233054   1.998   5.735  11.983  0.2400 -0.5113 -0.3790
 3880TIP3    H133055   2.054   5.789  11.927 -0.5519  0.8284  0.0671
 3880TIP3    H233056   1.912   5.738  11.940 -0.1966 -0.0733  0.5028
 3881TIP3   OH233057   4.197   0.574   1.705 -0.2321  0.2373 -0.2536
 3881TIP3    H133058   4.168   0.483   1.714  0.2065 -0.0695 -1.7284
 3881TIP3    H233059   4.257   0.587   1.779 -0.7102 -0.4987  0.2759
 3882TIP3   OH233060   6.361   0.982   4.156  0.0761  0.7357  0.1273
 3882TIP3    H133061   6.312   0.908   4.120  0.9929 -0.4041  1.1314
 3882TIP3    H233062   6.313   1.059   4.126 -1.2733 -0.2709 -0.4256
 3883TIP3   OH233063   1.835   4.197   5.731 -0.2826 -0.2643 -0.5620
 3883TIP3    H133064   1.919   4.238   5.710  0.7600 -1.1793  1.5450
 3883TIP3    H233065   1.857   4.127   5.792 -2.6633  0.0357  0.7489
 3884TIP3   OH233066   2.826   1.784  13.097 -0.1999 -0.4573  0.7042
 3884TIP3    H133067   2.817   1.726  13.021 -2.2070  0.6008  0.0618
 3884TIP3    H233068   2.860   1.865  13.060 -0.5987 -0.1471  1.0107
 3885TIP3   OH233069   2.659   4.364  14.819  0.2530 -0.3264 -0.1876
 3885TIP3    H133070   2.693   4.442  14.864  0.0456 -0.5688  0.3946
 3885TIP3    H233071   2.736   4.326  14.777  0.7713 -0.9852  1.3021
 3886TIP3   OH233072   4.792   2.018  13.000  0.3205  0.1989  0.6549
 3886TIP3    H133073   4.711   2.038  13.046  0.3669 -0.3316  0.9747
 3886TIP3    H233074   4.764   1.986  12.914  0.1519 -0.8690  1.0992
 3887TIP3   OH233075   0.163   5.113  11.915 -0.4338 -0.4826 -0.9060
 3887TIP3    H133076   0.147   5.100  11.821 -1.7814 -1.9591 -0.5315
 3887TIP3    H233077   0.163   5.208  11.927 -0.4667 -0.2809 -2.3735
 3888TIP3   OH233078   6.775   1.355  14.100  0.1883  0.0550 -0.5693
 3888TIP3    H133079   6.823   1.283  14.059 -1.7124 -0.4938 -1.9664
 3888TIP3    H233080   6.777   1.335  14.193  1.4917 -0.6401 -0.7174
 3889TIP3   OH233081   5.061   3.157  16.369  0.1890  0.2997  0.0205
 3889TIP3    H133082   5.139   3.117  16.330 -0.1752 -0.5508  0.1402
 3889TIP3    H233083   5.054   3.116  16.455  0.6049  1.6758  0.7541
 3890TIP3   OH233084   2.896   5.151  15.991  0.1581 -0.3513 -0.5531
 3890TIP3    H133085   2.949   5.137  16.070  0.2407  2.3227 -0.0250
 3890TIP3    H233086   2.924   5.083  15.931  0.1295 -2.4754  1.6698
 3891TIP3   OH233087   2.409   2.840   3.421 -0.2097 -0.2622  0.5105
 3891TIP3    H133088   2.449   2.917   3.462 -0.3850 -0.4621  1.0637
 3891TIP3    H233089   2.448   2.837   3.333  0.5758 -0.1377  0.8443
 3892TIP3   OH233090   0.557   0.915  14.935 -0.3043  0.4107  0.8694
 3892TIP3    H133091   0.501   0.981  14.976  0.1248  0.3721  1.5353
 3892TIP3    H233092   0.633   0.964  14.903  0.0329  0.2397  1.3993
 3893TIP3   OH233093   1.514   4.380  14.201  0.3834 -0.1616  0.2688
 3893TIP3    H133094   1.440   4.437  14.218  0.0913 -0.5201  0.2118
 3893TIP3    H233095   1.575   4.434  14.151 -0.3121 -0.1841 -0.6294
 3894TIP3   OH233096   2.951   6.703   1.076  0.2237  0.2560  0.1661
 3894TIP3    H133097   2.896   6.694   1.154 -1.6202 -1.5285 -1.2414
 3894TIP3    H233098   3.014   6.631   1.082  0.3009  0.3238  0.1722
 3895TIP3   OH233099   0.584   0.998   0.296 -0.7007 -0.8322 -0.2979
 3895TIP3    H133100   0.635   1.079   0.307  0.0854 -1.3030 -0.4252
 3895TIP3    H233101   0.524   1.018   0.225 -1.7567  0.2364  0.8404
 3896TIP3   OH233102   6.486   1.888   4.025  0.0382  0.5165 -0.0437
 3896TIP3    H133103   6.444   1.971   4.049  0.0881  0.8603 -1.1178
 3896TIP3    H233104   6.580   1.909   4.022  0.2457 -0.0515  1.5439
 3897TIP3   OH233105   4.517   2.206  16.075  0.0863  0.0339  0.4083
 3897TIP3    H133106   4.612   2.215  16.078  0.2848 -1.6371 -0.2008
 3897TIP3    H233107   4.492   2.241  15.989  0.3978 -1.4513 -0.3000
 3898TIP3   OH233108   4.181   2.867   0.315  0.3962  0.0006  0.6116
 3898TIP3    H133109   4.180   2.930   0.242 -2.2830  0.2961  0.7893
 3898TIP3    H233110   4.177   2.921   0.393 -0.6548 -0.3542  0.8144
 3899TIP3   OH233111   4.509   5.802   4.444 -0.2668  0.3332  0.2275
 3899TIP3    H133112   4.525   5.893   4.421 -0.0277  0.4370  0.7907
 3899TIP3    H233113   4.442   5.773   4.382  0.5695  0.5093 -0.7942
 3900TIP3   OH233114   2.036   2.038   6.431 -0.2821  0.4556  0.0519
 3900TIP3    H133115   1.944   2.058   6.451  0.1887  2.0206  0.8644
 3900TIP3    H233116   2.071   2.120   6.396  1.3954  0.6759  2.0370
 3901TIP3   OH233117   5.512   5.840  16.400  0.6621 -0.3122 -0.4274
 3901TIP3    H133118   5.436   5.890  16.429 -0.2095  0.2686 -3.3667
 3901TIP3    H233119   5.510   5.759  16.452 -1.0275  0.3885  0.6520
 3902TIP3   OH233120   1.365   1.331   4.681  0.3221 -0.1147 -0.1272
 3902TIP3    H133121   1.378   1.239   4.655  1.7667  0.0018  0.0822
 3902TIP3    H233122   1.309   1.327   4.758  1.2538 -0.9150  0.5333
 3903TIP3   OH233123   4.016   3.396   1.893  0.0861 -0.5010  0.5063
 3903TIP3    H133124   4.057   3.388   1.979  1.4154  0.0296 -0.0413
 3903TIP3    H233125   4.090   3.410   1.833 -0.8522 -0.3675 -0.6512
 3904TIP3   OH233126   1.803   1.327   2.990  0.1940  0.2901 -0.5236
 3904TIP3    H133127   1.730   1.291   3.041  2.0961 -0.5411  1.7816
 3904TIP3    H233128   1.779   1.419   2.977 -1.4933 -0.0739 -0.3063
 3905TIP3   OH233129   5.728   0.042  13.992  0.1438  0.1495 -0.4536
 3905TIP3    H133130   5.782  -0.033  14.015 -0.2830 -0.3655 -1.0885
 3905TIP3    H233131   5.654   0.005  13.943 -0.3639  0.9215 -0.3010
 3906TIP3   OH233132   4.852   2.635   3.189 -0.0027 -0.4318 -0.4249
 3906TIP3    H133133   4.778   2.574   3.185  0.1839 -0.6995  0.1755
 3906TIP3    H233134   4.893   2.618   3.273  0.1452  0.4167 -0.3174
 3907TIP3   OH233135   3.072   2.627  15.162  0.3554  0.0428 -0.2528
 3907TIP3    H133136   3.098   2.619  15.254 -1.6072 -0.1527  0.3256
 3907TIP3    H233137   3.139   2.682  15.122  1.1677  0.2392  1.3303
 3908TIP3   OH233138   4.881   0.441   1.952  0.6003  0.2390  0.2031
 3908TIP3    H133139   4.941   0.484   2.013  1.3415 -1.5620  0.8017
 3908TIP3    H233140   4.794   0.452   1.990  1.0680 -0.9697  1.6972
 3909TIP3   OH233141   0.975   4.815  13.065  0.7279 -0.1194  0.0941
 3909TIP3    H133142   1.025   4.733  13.070  1.8309  0.3840 -1.8893
 3909TIP3    H233143   0.891   4.790  13.025  1.0019 -0.3054 -0.3651
 3910TIP3   OH233144   4.034   3.456   2.968  0.6743  0.1743  0.3674
 3910TIP3    H133145   3.954   3.404   2.958  0.3729  0.8404 -0.8825
 3910TIP3    H233146   4.006   3.546   2.951  1.4967  0.5398  0.9230
 3911TIP3   OH233147   3.659   3.254  12.550  0.1935  0.3312  0.2460
 3911TIP3    H133148   3.683   3.292  12.465  0.8163  0.0724  0.3008
 3911TIP3    H233149   3.635   3.329  12.604  1.0033  0.6228  0.2209
 3912TIP3   OH233150   2.364   3.797  11.733  0.1765  0.1081 -0.0097
 3912TIP3    H133151   2.300   3.727  11.738  0.7990 -0.4834 -0.2297
 3912TIP3    H233152   2.345   3.852  11.810  0.4380 -0.9567  0.8469
 3913TIP3   OH233153   1.967   5.266  15.824 -0.1780  0.3688  0.0837
 3913TIP3    H133154   2.029   5.205  15.864  1.0367  1.4467 -0.0861
 3913TIP3    H233155   1.920   5.304  15.899  1.3102  1.5565  0.4655
 3914TIP3   OH233156   4.310   5.836   6.244 -0.5885  0.2476  0.1772
 3914TIP3    H133157   4.397   5.797   6.244 -0.8912 -0.4326  0.2510
 3914TIP3    H233158   4.266   5.799   6.168 -1.1480 -0.1790  0.6988
 3915TIP3   OH233159   1.910   1.911  10.994  0.0186  0.2431  0.0173
 3915TIP3    H133160   2.006   1.912  10.990  0.1052 -0.5737 -4.7643
 3915TIP3    H233161   1.883   1.989  10.947 -1.8878  1.6073  3.0821
 3916TIP3   OH233162   1.871   2.894  12.623  0.0150 -0.5234 -0.1163
 3916TIP3    H133163   1.894   2.987  12.624 -1.0265 -0.2457 -0.6901
 3916TIP3    H233164   1.951   2.850  12.653  0.3730  0.5761  0.6304
 3917TIP3   OH233165   2.254   2.562  12.826  0.4224 -0.2181  0.4563
 3917TIP3    H133166   2.343   2.528  12.826 -0.4126 -2.6254 -0.8894
 3917TIP3    H233167   2.198   2.485  12.832 -1.5922  1.0106 -1.0225
 3918TIP3   OH233168   6.279   2.250   2.608 -0.1190  0.0743 -0.3632
 3918TIP3    H133169   6.214   2.207   2.552  0.9200  0.0436 -1.5843
 3918TIP3    H233170   6.356   2.260   2.552  0.4793  1.3452  0.6446
 3919TIP3   OH233171   1.596   1.421   1.597  0.3028 -0.7656  0.1305
 3919TIP3    H133172   1.637   1.429   1.511 -0.9631  0.8368 -0.3727
 3919TIP3    H233173   1.527   1.355   1.584  1.1985 -1.7635  0.3748
 3920TIP3   OH233174   5.749   1.339  16.392 -0.4995  0.0159  0.2655
 3920TIP3    H133175   5.784   1.262  16.347 -0.3127 -0.1535  0.7010
 3920TIP3    H233176   5.671   1.362  16.341  0.8554  1.1086 -1.4277
 3921TIP3   OH233177   0.959   5.240   0.097  0.1149 -0.1727 -0.3948
 3921TIP3    H133178   0.870   5.275   0.100 -0.7554 -2.2027 -0.7368
 3921TIP3    H233179   0.979   5.232   0.004  0.1664 -0.8685 -0.3278
 3922TIP3   OH233180   3.133   1.787  11.687  0.0238 -0.0508  0.0965
 3922TIP3    H133181   3.151   1.762  11.778 -0.8212  0.1944  0.3430
 3922TIP3    H233182   3.204   1.847  11.665  0.5621 -0.5620  0.3945
 3923TIP3   OH233183   1.340   0.160   3.056 -0.1127 -0.4902  0.2690
 3923TIP3    H133184   1.256   0.128   3.089  0.1297 -1.2049  0.2057
 3923TIP3    H233185   1.336   0.145   2.962  0.2239 -0.8387  0.3112
 3924TIP3   OH233186   1.707   5.433   0.143  0.1323 -0.0605 -0.6115
 3924TIP3    H133187   1.754   5.354   0.172  0.8361 -0.4112 -2.5798
 3924TIP3    H233188   1.615   5.415   0.163  0.6432  0.3521  2.6958
 3925TIP3   OH233189   5.692   2.626  16.687 -0.0345  0.0151  0.2056
 3925TIP3    H133190   5.611   2.661  16.648 -1.2105 -1.2223  1.4489
 3925TIP3    H233191   5.755   2.698  16.678 -1.3083  1.0810 -0.6448
 3926TIP3   OH233192   1.224   0.445   1.422  0.0364  0.5730 -0.3004
 3926TIP3    H133193   1.133   0.417   1.435  0.4380 -0.5274  0.1788
 3926TIP3    H233194   1.254   0.393   1.347  0.5524  0.2788  0.1116
 3927TIP3   OH233195   1.447   0.458  13.184 -0.3858 -0.4086 -0.1387
 3927TIP3    H133196   1.412   0.540  13.149 -0.0723  0.3145  1.2014
 3927TIP3    H233197   1.529   0.483  13.226  0.5288 -1.6810 -1.0679
 3928TIP3   OH233198   2.933   5.183  13.451  0.1386 -0.5799  0.1762
 3928TIP3    H133199   2.976   5.116  13.397  2.1507  1.2068 -0.5925
 3928TIP3    H233200   2.895   5.243  13.387  3.1366  1.9458  0.5401
 3929TIP3   OH233201   2.345   1.057   6.773 -0.1081 -0.6130 -0.6653
 3929TIP3    H133202   2.399   0.985   6.806  0.0461 -0.7986 -1.3146
 3929TIP3    H233203   2.398   1.136   6.790 -0.7193 -0.5223  0.9990
 3930TIP3   OH233204   0.247   1.203  15.842 -0.3584  0.6003 -0.0180
 3930TIP3    H133205   0.312   1.150  15.796  0.2255  1.2737  0.0344
 3930TIP3    H233206   0.191   1.138  15.886  0.6628  0.0362  0.4794
 3931TIP3   OH233207   5.998   5.106   1.674  0.4093  0.2833  0.4957
 3931TIP3    H133208   6.043   5.029   1.708  0.8724 -0.3507 -1.4437
 3931TIP3    H233209   5.932   5.127   1.741  0.0497 -1.9993  0.9344
 3932TIP3   OH233210   1.312   1.138  14.384 -0.1884  0.0123 -0.3884
 3932TIP3    H133211   1.235   1.084  14.366  1.3473 -1.4142 -3.3665
 3932TIP3    H233212   1.386   1.077  14.377  1.3154  0.8029  4.5494
 3933TIP3   OH233213   3.575   0.224   4.200  0.5837  0.4749 -0.0606
 3933TIP3    H133214   3.645   0.218   4.265  1.0269 -2.3120 -0.7156
 3933TIP3    H233215   3.496   0.237   4.253  1.1377 -0.0725  0.9342
 3934TIP3   OH233216   2.615   1.037  15.739  0.3563 -0.3085 -0.7031
 3934TIP3    H133217   2.602   1.129  15.716 -1.2920 -0.8470 -2.1095
 3934TIP3    H233218   2.709   1.030  15.758  0.5278  1.6239 -0.6440
 3935TIP3   OH233219   3.017   4.470   2.038  0.0609 -0.3925  0.3214
 3935TIP3    H133220   3.039   4.428   1.955  0.5711  0.2726  0.1068
 3935TIP3    H233221   3.075   4.546   2.042 -0.4147 -0.0542  0.9813
 3936TIP3   OH233222   5.458   1.746  13.877 -0.1859 -0.2948 -0.1845
 3936TIP3    H133223   5.377   1.709  13.911 -0.7376  0.1872 -0.9409
 3936TIP3    H233224   5.478   1.818  13.936 -0.6924  0.0207 -0.3886
 3937TIP3   OH233225   5.835   0.084   5.640  0.2860 -0.4159  0.0639
 3937TIP3    H133226   5.858   0.173   5.614  0.1191 -0.1937  0.6695
 3937TIP3    H233227   5.887   0.028   5.582  3.7019  0.0429  2.3989
 3938TIP3   OH233228   2.403   2.020   5.539 -0.4010  0.2506  0.2715
 3938TIP3    H133229   2.427   1.928   5.556  0.1900  0.4684  0.6543
 3938TIP3    H233230   2.356   2.047   5.618  0.0361  0.4830  0.4532
 3939TIP3   OH233231   6.210   0.223   0.603  0.1071  0.2301 -0.4523
 3939TIP3    H133232   6.206   0.295   0.540  0.8679  1.3882  0.7644
 3939TIP3    H233233   6.123   0.223   0.644 -0.6866 -1.0818 -2.0361
 3940TIP3   OH233234   3.357   5.777  12.774  0.7958 -0.0530  0.0118
 3940TIP3    H133235   3.266   5.799  12.797  0.7596 -0.2913  0.1002
 3940TIP3    H233236   3.407   5.793  12.854  0.6004 -1.2954  0.4002
 3941TIP3   OH233237   2.904   0.659   2.225 -0.1636  0.3817  0.2840
 3941TIP3    H133238   2.883   0.657   2.318 -0.7893 -0.2344  0.1335
 3941TIP3    H233239   2.960   0.583   2.211  0.6752  0.9768  0.3205
 3942TIP3   OH233240   3.417   0.455  13.128  0.1322  0.1502 -0.2374
 3942TIP3    H133241   3.341   0.465  13.186 -0.8205 -2.9175 -0.7890
 3942TIP3    H233242   3.491   0.481  13.182 -1.1148  1.3607  0.9751
 3943TIP3   OH233243   3.496   2.821  13.593 -0.9535 -0.1337  0.2888
 3943TIP3    H133244   3.408   2.841  13.627 -1.2973 -0.1577 -0.5735
 3943TIP3    H233245   3.525   2.748  13.648 -0.5808  1.2224  1.9902
 3944TIP3   OH233246   6.593   0.605   4.477  0.0548 -0.2345 -0.1958
 3944TIP3    H133247   6.560   0.592   4.566  1.7336 -0.8881  0.3719
 3944TIP3    H233248   6.592   0.700   4.465 -0.2040 -0.1411  0.5207
 3945TIP3   OH233249   4.593   5.486   0.174  0.1554 -0.4778 -0.2286
 3945TIP3    H133250   4.571   5.463   0.264  2.0700  1.8111  0.9353
 3945TIP3    H233251   4.688   5.493   0.173  0.0728  1.3961 -1.9175
 3946TIP3   OH233252   3.464   5.596  14.875  0.4553 -0.4275  0.1502
 3946TIP3    H133253   3.424   5.534  14.936  0.2031 -0.2375  0.1774
 3946TIP3    H233254   3.551   5.612  14.911  0.5293 -0.7860  0.1297
 3947TIP3   OH233255   4.254   5.638   0.769 -0.3944  0.3342  0.3593
 3947TIP3    H133256   4.314   5.577   0.727 -0.5336 -2.1574  3.4174
 3947TIP3    H233257   4.308   5.714   0.789  0.8266 -0.3901 -0.0452
 3948TIP3   OH233258   0.722   0.359   0.764  0.2493  0.1848  0.2080
 3948TIP3    H133259   0.803   0.369   0.715  1.2511  0.0485  1.7585
 3948TIP3    H233260   0.722   0.432   0.826  0.4231 -1.1285  1.8389
 3949TIP3   OH233261   0.789   6.309  16.155  0.0072  0.4620  0.6879
 3949TIP3    H133262   0.791   6.278  16.245 -3.5645 -0.1073  0.6939
 3949TIP3    H233263   0.743   6.241  16.106 -0.5882  1.9727 -0.9817
 3950TIP3   OH233264   1.269   4.742  16.836  0.8566 -0.3099  0.4239
 3950TIP3    H133265   1.232   4.655  16.821  0.7435 -0.0952 -0.6150
 3950TIP3    H233266   1.298   4.740  16.927 -0.5771 -0.9020  0.8983
 3951TIP3   OH233267   0.546   3.432  12.554 -0.5467  0.0910  0.3708
 3951TIP3    H133268   0.480   3.434  12.485 -0.7995 -3.4074  0.3603
 3951TIP3    H233269   0.599   3.511  12.539 -2.6736  1.2495 -1.6216
 3952TIP3   OH233270   5.895   2.790   4.713  0.4126 -0.1082  0.0539
 3952TIP3    H133271   5.854   2.867   4.753  0.8266  0.6624 -0.9682
 3952TIP3    H233272   5.924   2.820   4.627  0.8448 -1.3353 -0.2482
 3953TIP3   OH233273   0.762   4.393  15.194  0.4214 -0.0876 -0.2035
 3953TIP3    H133274   0.682   4.342  15.190  0.9520 -0.8989 -1.0307
 3953TIP3    H233275   0.801   4.370  15.278  1.3522 -2.2047 -1.1380
 3954TIP3   OH233276   3.153   4.290   5.470 -0.3370  0.1040 -0.2559
 3954TIP3    H133277   3.140   4.196   5.476 -1.4202  0.2699  0.3606
 3954TIP3    H233278   3.190   4.315   5.554 -1.7490  0.4565  0.2857
 3955TIP3   OH233279   1.874   5.390  16.028 -0.5078  0.1390 -0.6763
 3955TIP3    H133280   1.891   5.335  16.105 -0.7765 -0.3078 -0.9337
 3955TIP3    H233281   1.878   5.480  16.062 -1.3543 -0.0656  0.0095
 3956TIP3   OH233282   0.189   0.805  11.376  0.3204 -0.1515  0.3920
 3956TIP3    H133283   0.214   0.732  11.319 -0.2821  0.5661 -0.8288
 3956TIP3    H233284   0.258   0.808  11.442  0.1955 -2.0050  0.6555
 3957TIP3   OH233285   2.459   0.959  16.773 -0.5386  0.3434 -0.0539
 3957TIP3    H133286   2.540   0.940  16.726 -0.5338 -0.2575  0.1848
 3957TIP3    H233287   2.479   0.940  16.865 -0.8011  0.6832  0.0786
 3958TIP3   OH233288   4.286   0.977  14.962  0.6130  0.6981  0.2873
 3958TIP3    H133289   4.318   0.957  14.874  0.3835  0.5286  0.2418
 3958TIP3    H233290   4.359   1.024  15.003  1.0067  0.1297  0.2568
 3959TIP3   OH233291   2.368   5.125   1.521  0.4589 -0.3550  0.2416
 3959TIP3    H133292   2.375   5.069   1.444  0.1027 -0.7372  0.4815
 3959TIP3    H233293   2.279   5.112   1.553 -0.1801  1.5873 -0.6102
 3960TIP3   OH233294   0.423   3.406  13.699 -0.1556 -0.2584  0.4129
 3960TIP3    H133295   0.400   3.323  13.741  1.6917 -0.6742  0.7024
 3960TIP3    H233296   0.339   3.448  13.680 -1.1127 -1.9262  0.7825
 3961TIP3   OH233297   4.156   6.347  14.306 -0.1947  0.0327 -0.3196
 3961TIP3    H133298   4.223   6.372  14.242 -0.6420  2.3548  0.0097
 3961TIP3    H233299   4.198   6.281  14.361  0.9291 -0.4304 -1.6666
 3962TIP3   OH233300   6.775   5.787  17.008  0.5882  0.6221  0.1728
 3962TIP3    H133301   6.839   5.785  17.079  1.1258  0.0666 -0.3234
 3962TIP3    H233302   6.693   5.760  17.050  0.9255  0.1810  0.5668
 3963TIP3   OH233303   1.620   5.159   3.381 -0.1851 -0.1162  0.0298
 3963TIP3    H133304   1.695   5.216   3.396  0.6126 -1.0269 -0.4404
 3963TIP3    H233305   1.618   5.146   3.286 -0.2979 -0.9438  0.1391
 3964TIP3   OH233306   6.808   6.345  13.244  0.3101 -0.1189 -0.1950
 3964TIP3    H133307   6.758   6.400  13.184 -0.6365 -0.9250 -0.1547
 3964TIP3    H233308   6.898   6.350  13.212  0.3429  1.8073  0.0643
 3965TIP3   OH233309   5.597   4.338   0.919  0.4927 -0.0464 -0.4963
 3965TIP3    H133310   5.575   4.321   0.827  2.4333  0.4608 -1.1026
 3965TIP3    H233311   5.661   4.269   0.941  2.6342  1.7916 -0.6339
 3966TIP3   OH233312   5.967   3.851  14.892  0.1764 -0.6019 -0.5535
 3966TIP3    H133313   5.877   3.879  14.907  0.0610 -0.3913 -1.5317
 3966TIP3    H233314   5.967   3.819  14.802  1.7818  2.4882 -1.8195
 3967TIP3   OH233315   6.490   1.686  14.759  0.2593  0.0412 -0.1785
 3967TIP3    H133316   6.431   1.744  14.709  0.8692 -0.2471 -1.2711
 3967TIP3    H233317   6.568   1.680  14.704  0.7179 -0.7715  0.5569
 3968TIP3   OH233318   3.574   5.767   3.970 -0.0370 -0.0350  0.7328
 3968TIP3    H133319   3.540   5.696   4.025  0.3637  0.2285  1.3413
 3968TIP3    H233320   3.638   5.811   4.026  0.4891  0.1552 -0.0001
 3969TIP3   OH233321   6.459   0.805   3.355 -0.0983  0.5039 -0.6711
 3969TIP3    H133322   6.431   0.721   3.317  0.4207  0.3412 -0.7051
 3969TIP3    H233323   6.539   0.827   3.307  0.1577  0.6635 -0.1776
 3970TIP3   OH233324   4.676   5.345   3.022 -0.2151 -0.0346 -0.2497
 3970TIP3    H133325   4.623   5.411   3.067 -0.8524 -0.4142 -0.4483
 3970TIP3    H233326   4.738   5.316   3.090 -2.6760 -2.3173  1.1770
 3971TIP3   OH233327   3.179   2.101   2.070 -0.0739 -0.7079 -0.2877
 3971TIP3    H133328   3.106   2.144   2.025 -0.5241 -0.3552  0.7369
 3971TIP3    H233329   3.137   2.035   2.125  0.3112 -0.1664  0.6909
 3972TIP3   OH233330   0.254   5.075  11.611 -0.2173  0.4894  1.1230
 3972TIP3    H133331   0.270   5.077  11.516 -0.8083 -0.5016  0.9838
 3972TIP3    H233332   0.162   5.050  11.619 -0.0145 -0.0314  1.9627
 3973TIP3   OH233333   3.937   0.504  15.710 -0.6703  0.6304 -0.2052
 3973TIP3    H133334   3.981   0.504  15.795 -1.2945  1.1072  0.1240
 3973TIP3    H233335   3.972   0.580  15.664 -1.5141  1.3177  0.2600
 3974TIP3   OH233336   1.196   4.211  13.717 -0.1143  0.3793  0.4174
 3974TIP3    H133337   1.200   4.180  13.627 -0.3338  1.3511  0.0563
 3974TIP3    H233338   1.118   4.168  13.753 -1.0070  1.2820 -0.3844
 3975TIP3   OH233339   1.222   4.898  16.143  0.0826 -0.2401 -0.0874
 3975TIP3    H133340   1.227   4.844  16.222  1.9653 -0.5181 -0.3727
 3975TIP3    H233341   1.301   4.951  16.144 -0.6739  0.9569 -0.9575
 3976TIP3   OH233342   5.769   1.879  15.502 -0.4482 -0.1387 -0.0783
 3976TIP3    H133343   5.799   1.908  15.416  2.7361 -0.2750  0.8181
 3976TIP3    H233344   5.756   1.785  15.493 -0.7005 -0.0546 -0.5701
 3977TIP3   OH233345   1.872   5.443   6.254 -0.4101 -0.1963 -0.9583
 3977TIP3    H133346   1.894   5.364   6.204 -0.6107 -0.9084  0.0329
 3977TIP3    H233347   1.953   5.494   6.257  0.5109 -1.6208  0.5740
 3978TIP3   OH233348   0.035   1.900   2.839  0.2611 -0.5152 -0.3403
 3978TIP3    H133349  -0.041   1.944   2.876  0.7669 -1.6029  2.1557
 3978TIP3    H233350  -0.001   1.818   2.803  0.0066 -0.1678 -0.9004
 3979TIP3   OH233351   3.306   4.108   2.396 -0.4583  0.0333  0.6221
 3979TIP3    H133352   3.348   4.051   2.460 -0.7620 -0.0096  0.7857
 3979TIP3    H233353   3.378   4.142   2.343 -0.1288  0.6097  1.4135
 3980TIP3   OH233354   2.757   4.146   6.027  0.0678 -0.0728 -0.2048
 3980TIP3    H133355   2.759   4.158   6.122  0.4874 -2.2915  0.1249
 3980TIP3    H233356   2.664   4.152   6.003 -0.2166 -0.9887  0.6018
 3981TIP3   OH233357   5.209   4.779   0.144  0.2856 -0.3397  0.3587
 3981TIP3    H133358   5.204   4.843   0.214  1.5227 -1.4150  1.4915
 3981TIP3    H233359   5.265   4.820   0.078 -1.6212  1.0474 -0.4800
 3982TIP3   OH233360   5.705   0.479  14.393 -0.2064  0.2846  0.6261
 3982TIP3    H133361   5.708   0.386  14.370  0.4706  0.3098  0.5888
 3982TIP3    H233362   5.612   0.500  14.394 -0.4279 -0.6763  1.7983
 3983TIP3   OH233363   1.516   0.282  13.825 -0.1677 -0.4688 -0.1702
 3983TIP3    H133364   1.488   0.223  13.755  0.6469 -1.3381  0.2217
 3983TIP3    H233365   1.607   0.257  13.843 -0.6350 -0.9378  1.8313
 3984TIP3   OH233366   3.302   0.715   3.884  0.1421  0.2114 -0.4000
 3984TIP3    H133367   3.260   0.648   3.937  0.7679 -0.6040 -0.9054
 3984TIP3    H233368   3.248   0.721   3.805  0.7890 -0.6401 -0.9272
 3985TIP3   OH233369   2.476   5.983  16.222  0.3132 -0.0414 -0.5829
 3985TIP3    H133370   2.476   5.972  16.317  1.3332  0.4785 -0.5126
 3985TIP3    H233371   2.558   5.943  16.193 -0.3703 -0.9353 -1.3498
 3986TIP3   OH233372   4.662   3.789  14.964  0.7243  0.2732 -0.1503
 3986TIP3    H133373   4.647   3.876  15.002  0.1678  0.2639 -0.3270
 3986TIP3    H233374   4.675   3.732  15.040  0.0686  0.3358  0.0217
 3987TIP3   OH233375   2.854   1.705  17.023  0.1232  0.1185  0.0592
 3987TIP3    H133376   2.781   1.663  16.976 -0.6567 -0.6788  1.9022
 3987TIP3    H233377   2.918   1.634  17.035 -0.2036  0.0057  1.2062
 3988TIP3   OH233378   2.658   0.165  13.717 -0.4297 -0.3274 -0.0856
 3988TIP3    H133379   2.597   0.112  13.770  0.2805 -0.0232  1.0689
 3988TIP3    H233380   2.601   0.226  13.670 -0.9603  1.7591  2.9762
 3989TIP3   OH233381   6.291   5.812  12.472  0.7230 -0.2685 -0.2327
 3989TIP3    H133382   6.297   5.780  12.562  2.5478 -2.4320 -1.0561
 3989TIP3    H233383   6.324   5.902  12.477  0.6221 -0.2884  1.2745
 3990TIP3   OH233384   0.018   3.786  15.551 -0.7009 -0.2557  0.5770
 3990TIP3    H133385  -0.037   3.732  15.607  0.5943 -2.3343 -0.0606
 3990TIP3    H233386   0.027   3.737  15.470 -0.2090  1.3557 -0.4023
 3991TIP3   OH233387   1.010   5.851   4.436 -0.2796 -0.1720 -0.7202
 3991TIP3    H133388   1.090   5.897   4.412 -0.5637  2.4949  2.7264
 3991TIP3    H233389   1.040   5.772   4.481  0.2692 -1.0344 -2.4988
 3992TIP3   OH233390   1.173   2.937  12.548 -0.6623 -0.4442 -0.6125
 3992TIP3    H133391   1.247   2.902  12.498  0.3323 -0.5637  0.8965
 3992TIP3    H233392   1.197   3.028  12.566 -0.2884 -0.8116  0.9053
 3993TIP3   OH233393   1.001   0.937  12.955  0.7712  0.4198 -0.3162
 3993TIP3    H133394   1.077   0.970  12.907  1.5537  0.1777  0.7479
 3993TIP3    H233395   0.960   0.875  12.894  1.7997  0.0429 -0.6496
 3994TIP3   OH233396   3.966   5.744  11.719  0.7054 -0.0510 -0.2957
 3994TIP3    H133397   3.919   5.761  11.800 -0.5465  0.0360 -1.0140
 3994TIP3    H233398   4.055   5.774  11.736 -0.5060  4.4311 -0.3585
 3995TIP3   OH233399   1.766   3.934   2.216  0.1910  0.5710  0.1008
 3995TIP3    H133400   1.727   3.847   2.219  1.5329 -0.2358 -2.4944
 3995TIP3    H233401   1.859   3.919   2.233  0.7604  1.1480 -2.1878
 3996TIP3   OH233402   1.727   5.968  10.540 -0.4433 -0.6217  0.3588
 3996TIP3    H133403   1.800   5.911  10.516 -0.6156 -1.2846  1.3420
 3996TIP3    H233404   1.735   6.044  10.481  2.3285  0.3877  1.8523
 3997TIP3   OH233405   6.095   1.232  12.116  0.0992 -0.4989  0.5612
 3997TIP3    H133406   6.065   1.303  12.174 -1.6665  0.2526 -1.1420
 3997TIP3    H233407   6.053   1.251  12.032  1.8402 -2.0461 -0.7353
 3998TIP3   OH233408   5.698   6.593  13.576 -0.8307  0.0997 -0.2686
 3998TIP3    H133409   5.776   6.599  13.631 -1.6561  0.8483  0.8609
 3998TIP3    H233410   5.689   6.499  13.558 -0.2831 -0.1147  0.5236
 3999TIP3   OH233411   0.666   2.564   3.732  0.0184  0.1842 -0.2020
 3999TIP3    H133412   0.597   2.629   3.713 -0.8354 -0.4457  0.6395
 3999TIP3    H233413   0.746   2.605   3.701 -0.6557  1.1818 -0.7009
 4000TIP3   OH233414   5.090   4.965   3.327 -0.5918 -0.0306  0.3507
 4000TIP3    H133415   5.081   4.888   3.270 -0.5075  0.1178  0.1341
 4000TIP3    H233416   5.125   4.930   3.409  0.1838 -0.1257 -0.0049
 4001TIP3   OH233417   0.857   6.331   3.574 -0.4417 -0.5508 -0.1662
 4001TIP3    H133418   0.883   6.321   3.665 -2.4849 -0.6231  0.4739
 4001TIP3    H233419   0.809   6.414   3.572 -0.4507 -0.5638 -1.1649
 4002TIP3   OH233420   2.820   2.686  11.941  0.1206 -0.6069  0.6020
 4002TIP3    H133421   2.890   2.736  11.983  0.9226 -1.3284  0.1501
 4002TIP3    H233422   2.742   2.742  11.949  1.2516  1.3316 -1.0255
 4003TIP3   OH233423   4.853   5.291   2.031  0.3372  0.0539  0.0192
 4003TIP3    H133424   4.943   5.277   2.060  1.4481  1.0507 -2.5970
 4003TIP3    H233425   4.854   5.266   1.938 -2.0924  0.1281 -0.0891
 4004TIP3   OH233426   5.721   5.997  16.565  0.3932 -0.4100  0.1401
 4004TIP3    H133427   5.629   5.974  16.550  0.0046  1.7172 -1.2711
 4004TIP3    H233428   5.768   5.948  16.498  0.0003  0.1171 -0.5440
 4005TIP3   OH233429   5.256   5.329  15.951  0.2877 -0.5741  0.0114
 4005TIP3    H133430   5.180   5.373  15.989  0.3622 -0.8019  0.4252
 4005TIP3    H233431   5.315   5.400  15.927  0.3494 -0.4347  0.5536
 4006TIP3   OH233432   6.256   0.939  12.890  0.4808 -0.1363  0.0096
 4006TIP3    H133433   6.169   0.919  12.927 -0.1888 -0.4758 -1.6805
 4006TIP3    H233434   6.262   1.034  12.893 -0.1122 -0.0903 -0.2338
 4007TIP3   OH233435   2.751   6.363  12.556  0.0610 -0.4262 -0.2614
 4007TIP3    H133436   2.674   6.338  12.607 -0.9913  0.0197 -1.5597
 4007TIP3    H233437   2.756   6.458  12.565  2.1017 -0.6707  1.9928
 4008TIP3   OH233438   4.705   5.731  15.266 -0.5339 -0.0258 -0.7035
 4008TIP3    H133439   4.690   5.794  15.336  0.9727 -0.4392  0.0291
 4008TIP3    H233440   4.693   5.781  15.185 -2.0559  0.5155 -0.1905
 4009TIP3   OH233441   0.553   3.022   6.099  0.1612  0.3975  0.3522
 4009TIP3    H133442   0.628   3.020   6.158  1.3048 -1.3566 -1.0674
 4009TIP3    H233443   0.530   2.930   6.085 -0.0206  0.7189 -1.9362
 4010TIP3   OH233444   1.835   2.275  17.038  0.1624 -0.4998  0.4311
 4010TIP3    H133445   1.927   2.298  17.039  0.1283 -0.1025 -1.5936
 4010TIP3    H233446   1.789   2.357  17.057  0.2078 -0.8281  2.0759
 4011TIP3   OH233447   0.345   6.123  15.724 -0.4315 -0.9783 -0.0167
 4011TIP3    H133448   0.325   6.058  15.791  0.9584 -0.5253  0.8851
 4011TIP3    H233449   0.384   6.196  15.772 -1.4010  0.2934 -1.0734
 4012TIP3   OH233450   6.052   4.400  14.683  0.6977  0.1708  0.1593
 4012TIP3    H133451   6.074   4.359  14.599  1.6948 -1.0910  0.9915
 4012TIP3    H233452   6.109   4.356  14.746 -1.6827 -0.6093  1.8858
 4013TIP3   OH233453   0.997   6.432  15.987  0.0527  0.1250  0.1879
 4013TIP3    H133454   0.931   6.388  16.042  2.2639 -0.5404  2.4880
 4013TIP3    H233455   1.031   6.502  16.043  1.9647 -0.1722 -0.5267
 4014TIP3   OH233456   6.733   1.069  15.464  0.2249 -0.1243 -0.0919
 4014TIP3    H133457   6.823   1.035  15.469 -0.5804 -2.3190  0.8031
 4014TIP3    H233458   6.707   1.081  15.556 -0.1058  1.3954 -0.3664
 4015TIP3   OH233459   2.954   4.065   2.151  0.9422 -0.0853 -0.5063
 4015TIP3    H133460   3.037   4.091   2.110  0.3957  0.6518 -1.2030
 4015TIP3    H233461   2.915   4.004   2.089  1.0905 -0.6698 -0.0350
 4016TIP3   OH233462   6.324   3.600  14.251  0.1142 -0.3892  0.3152
 4016TIP3    H133463   6.323   3.689  14.287 -0.9859 -0.7035  1.1452
 4016TIP3    H233464   6.342   3.545  14.327 -2.8043 -1.1166  0.6065
 4017TIP3   OH233465   1.751   5.775  11.931  0.0836  0.6196 -0.4510
 4017TIP3    H133466   1.700   5.851  11.960 -1.1722 -0.4744  0.3354
 4017TIP3    H233467   1.712   5.751  11.846  0.1137  0.5304 -0.4396
 4018TIP3   OH233468   0.086   1.723   0.972  0.0712 -0.3398 -1.0649
 4018TIP3    H133469   0.041   1.807   0.976  1.8762  0.6316  0.1386
 4018TIP3    H233470   0.139   1.727   0.892  1.1794  0.2515 -0.3231
 4019TIP3   OH233471   0.115   5.973   2.522 -0.1008 -0.8576  0.8107
 4019TIP3    H133472   0.110   5.902   2.586  1.1520 -0.6549  1.1468
 4019TIP3    H233473   0.112   6.053   2.574 -2.3065 -0.5942  0.3873
 4020TIP3   OH233474   6.078   6.721  11.956  0.2010 -0.0150  0.4706
 4020TIP3    H133475   6.169   6.723  11.926  0.2678 -0.9625  0.5785
 4020TIP3    H233476   6.033   6.668  11.890 -0.5634  1.5597 -0.3150
 4021TIP3   OH233477   2.944   4.637   6.341  0.2511  0.0885  0.6852
 4021TIP3    H133478   2.881   4.593   6.284 -0.0596 -1.3433  2.0514
 4021TIP3    H233479   3.016   4.661   6.283 -1.4942  1.7891 -0.9189
 4022TIP3   OH233480   1.363   3.195  12.976  0.2679  0.4656  0.0802
 4022TIP3    H133481   1.332   3.270  12.925 -2.1492  1.6279  2.9986
 4022TIP3    H233482   1.418   3.233  13.044  0.4029 -0.6042  0.5868
 4023TIP3   OH233483   5.765   4.147   0.990  0.2761 -0.5371  0.8132
 4023TIP3    H133484   5.836   4.099   0.948  0.2403 -0.6103  0.8367
 4023TIP3    H233485   5.808   4.198   1.059  0.3838 -0.1603  0.4733
 4024TIP3   OH233486   6.741   4.331  16.373  0.1544 -0.1293 -0.1406
 4024TIP3    H133487   6.721   4.366  16.460  0.0635 -0.6122  0.0371
 4024TIP3    H233488   6.656   4.308  16.336  0.3041 -1.5584  0.3511
 4025TIP3   OH233489   5.894   6.033  16.278 -0.8742  0.3696  0.3962
 4025TIP3    H133490   5.873   5.940  16.281  1.8761 -0.3572 -0.2685
 4025TIP3    H233491   5.932   6.046  16.191 -1.0373  2.0990  0.5466
 4026TIP3   OH233492   1.459   4.299  16.069  0.1383 -0.0392  0.2711
 4026TIP3    H133493   1.532   4.322  16.126 -0.5640  0.0497  1.1749
 4026TIP3    H233494   1.407   4.238  16.122 -0.5025  0.0059 -0.2965
 4027TIP3   OH233495   6.243   2.359   3.134 -0.1010 -0.1522  0.0396
 4027TIP3    H133496   6.192   2.428   3.092 -0.0100 -0.4972 -0.6591
 4027TIP3    H233497   6.334   2.385   3.123  0.0827 -1.4713 -2.3195
 4028TIP3   OH233498   6.044   1.129  16.387  0.1685 -0.6409  0.2580
 4028TIP3    H133499   6.076   1.210  16.348 -0.6782  1.0751  2.8815
 4028TIP3    H233500   6.113   1.102  16.447  0.3076 -1.7412 -0.3639
 4029TIP3   OH233501   3.889   4.768   5.901  0.5560 -0.4204  0.2924
 4029TIP3    H133502   3.820   4.716   5.943 -1.5351  2.2944  0.5551
 4029TIP3    H233503   3.903   4.726   5.816 -2.6201 -0.2787 -0.4294
 4030TIP3   OH233504   5.174   3.572   0.751  0.3241  0.5758  0.3441
 4030TIP3    H133505   5.258   3.525   0.750 -0.2156 -0.5604  2.0242
 4030TIP3    H233506   5.109   3.505   0.729 -0.3596  0.7798  1.6274
 4031TIP3   OH233507   6.213   2.039  14.074 -0.3096  0.0088 -0.1358
 4031TIP3    H133508   6.296   1.992  14.061 -0.2965 -0.3841  1.2157
 4031TIP3    H233509   6.147   1.984  14.032 -0.2625 -1.1468  1.2306
 4032TIP3   OH233510   4.154   0.080  11.569 -0.1678 -0.1805  0.9258
 4032TIP3    H133511   4.160   0.034  11.653 -0.7022 -0.4381  0.8206
 4032TIP3    H233512   4.241   0.121  11.559  0.0554 -0.5303  1.3772
 4033TIP3   OH233513   5.223   5.538   5.967  0.4175  0.4690 -0.0327
 4033TIP3    H133514   5.204   5.587   6.046 -0.7104 -0.2115  0.1395
 4033TIP3    H233515   5.154   5.563   5.906  0.7118  0.2434 -0.4655
 4034TIP3   OH233516   3.064   5.700  16.641  0.0128 -0.2611 -0.0879
 4034TIP3    H133517   3.115   5.779  16.656 -0.6922  0.3784 -0.9649
 4034TIP3    H233518   2.985   5.712  16.694  0.5391 -1.0330  0.8966
 4035TIP3   OH233519   3.763   5.710   5.543 -0.0385 -0.1708  0.2610
 4035TIP3    H133520   3.684   5.676   5.583  0.1896  0.1607  1.0067
 4035TIP3    H233521   3.732   5.773   5.477 -0.3996  1.9097  2.2764
 4036TIP3   OH233522   0.436   5.419  16.656 -0.4271 -0.3698 -0.1347
 4036TIP3    H133523   0.477   5.344  16.700 -1.2514 -0.8879 -0.2233
 4036TIP3    H233524   0.378   5.380  16.591 -0.1758  0.3730 -0.8220
 4037TIP3   OH233525   0.133   0.542  11.537 -0.2589 -0.0616 -0.3871
 4037TIP3    H133526   0.056   0.494  11.568 -0.4866  0.8472  0.5100
 4037TIP3    H233527   0.183   0.477  11.488 -1.8584 -0.5352 -1.4809
 4038TIP3   OH233528   6.015   2.972   3.603  0.0497  0.2737 -0.1622
 4038TIP3    H133529   5.931   3.012   3.580  0.4469  0.1816 -1.9592
 4038TIP3    H233530   6.005   2.880   3.580  0.5323  0.1902 -0.0518
 4039TIP3   OH233531   2.784   3.230  11.808 -0.3979 -0.2830 -0.4482
 4039TIP3    H133532   2.846   3.159  11.822  0.1995  0.3991  0.4662
 4039TIP3    H233533   2.698   3.191  11.826 -0.2960 -1.2899 -1.9378
 4040TIP3   OH233534   0.079   6.359  16.746 -0.0340  0.6188  0.4417
 4040TIP3    H133535  -0.015   6.371  16.761 -0.2900 -1.6999  1.1388
 4040TIP3    H233536   0.106   6.297  16.814  2.0054  1.1635  0.1991
 4041TIP3   OH233537   1.158   1.009   3.660 -0.1637 -0.7109  0.1593
 4041TIP3    H133538   1.095   0.978   3.596  0.3357  0.2208 -0.8033
 4041TIP3    H233539   1.121   1.091   3.692  1.0611  0.4463 -1.2550
 4042TIP3   OH233540   4.824   6.100   0.916  0.2321  0.1509  0.0878
 4042TIP3    H133541   4.798   6.050   0.993  0.9036  0.6898  0.6791
 4042TIP3    H233542   4.861   6.035   0.857  0.0241 -0.2191  0.3545
 4043TIP3   OH233543   2.033   3.734  13.894 -0.3961 -0.1879 -0.5452
 4043TIP3    H133544   2.039   3.803  13.828  1.6673 -1.1389 -1.4442
 4043TIP3    H233545   2.107   3.750  13.953 -1.2541 -0.3172  0.5995
 4044TIP3   OH233546   6.315   5.444   6.632  0.1603  0.9008 -0.0035
 4044TIP3    H133547   6.235   5.432   6.683 -0.2513 -1.9297 -1.1105
 4044TIP3    H233548   6.286   5.441   6.540  1.5753 -2.0422 -0.4954
 4045TIP3   OH233549   6.462   2.708  12.431  0.2378 -0.5013  0.8869
 4045TIP3    H133550   6.428   2.662  12.355 -0.6786 -0.2526  1.1235
 4045TIP3    H233551   6.537   2.656  12.460  0.1027 -1.0342  0.2970
 4046TIP3   OH233552   2.595   5.377  13.092  0.2720 -0.1019 -0.2464
 4046TIP3    H133553   2.566   5.328  13.169 -1.3436 -0.5591 -1.1050
 4046TIP3    H233554   2.606   5.467  13.124  0.2498 -0.4062  0.6600
 4047TIP3   OH233555   1.032   6.004  16.122  0.1231  0.1699 -0.4666
 4047TIP3    H133556   1.017   6.089  16.162  4.1528 -0.1939  2.3156
 4047TIP3    H233557   1.061   6.024  16.033 -1.1075  1.4658 -0.6209
 4048TIP3   OH233558   2.586   1.529   0.045 -0.5579 -0.2364 -0.2245
 4048TIP3    H133559   2.589   1.566  -0.043 -0.8060  0.7628  0.1762
 4048TIP3    H233560   2.671   1.487   0.056 -0.2550  0.2498 -0.6735
 4049TIP3   OH233561   5.663   4.324  16.461 -0.2104 -0.3263  0.3333
 4049TIP3    H133562   5.707   4.398  16.419  1.0607  0.1221  2.2772
 4049TIP3    H233563   5.672   4.252  16.399 -0.7104  0.9166 -1.2330
 4050TIP3   OH233564   3.424   4.840   0.345 -0.0250  0.2471  0.0528
 4050TIP3    H133565   3.513   4.815   0.319  0.0657  0.6183 -0.0030
 4050TIP3    H233566   3.414   4.806   0.434  0.6145  1.2480  0.5238
 4051TIP3   OH233567   4.164   2.975   3.766 -0.5753 -0.2163 -0.4247
 4051TIP3    H133568   4.078   2.971   3.808 -1.1455 -0.3900 -1.5638
 4051TIP3    H233569   4.212   3.042   3.814 -1.6720  0.5316 -0.3524
 4052TIP3   OH233570   5.341   0.253   1.833  0.2616  0.4541 -0.6895
 4052TIP3    H133571   5.341   0.332   1.887 -0.6826  0.2997 -0.4312
 4052TIP3    H233572   5.255   0.213   1.850  1.0737 -1.1193 -0.1051
 4053TIP3   OH233573   3.943   5.439  15.265  0.3939 -1.0926 -0.5861
 4053TIP3    H133574   3.932   5.439  15.360 -0.2797 -0.8490 -0.6563
 4053TIP3    H233575   3.879   5.375  15.233  1.0085 -1.5928 -0.8406
 4054TIP3   OH233576   1.224   2.053  10.341  0.4922 -0.1413  0.5618
 4054TIP3    H133577   1.160   2.003  10.291 -0.4741  0.3222  1.3089
 4054TIP3    H233578   1.304   2.049  10.287 -0.2315 -0.4661 -0.5348
 4055TIP3   OH233579   2.455   1.332  16.892  0.0856 -0.5197  0.4038
 4055TIP3    H133580   2.420   1.288  16.814  1.8210  0.3161 -0.9340
 4055TIP3    H233581   2.493   1.262  16.944  0.2043 -0.9460 -0.2394
 4056TIP3   OH233582   1.636   0.323  15.470  0.0420 -0.0599 -0.0336
 4056TIP3    H133583   1.578   0.392  15.500  1.6340  0.6256  1.6520
 4056TIP3    H233584   1.716   0.368  15.443 -0.0218 -1.0070 -2.0359
 4057TIP3   OH233585   1.233   1.909   1.927 -0.7396 -0.6458 -0.6108
 4057TIP3    H133586   1.235   1.823   1.886 -0.2933 -0.6548 -0.5773
 4057TIP3    H233587   1.206   1.968   1.856 -0.5073 -0.7368 -0.7775
 4058TIP3   OH233588   5.041   4.193   3.089  0.1332  0.5918 -0.6093
 4058TIP3    H133589   4.978   4.183   3.160  1.2697  2.4343  0.7436
 4058TIP3    H233590   5.103   4.121   3.102 -0.5150 -0.0039 -0.7183
 4059TIP3   OH233591   0.981   4.847   2.587  0.2085 -0.2331 -0.4160
 4059TIP3    H133592   1.041   4.773   2.581 -0.5572 -1.0101  0.9155
 4059TIP3    H233593   0.994   4.881   2.676 -0.3031  0.4754 -0.6049
 4060TIP3   OH233594   3.290   1.112  17.067  0.3729 -0.0703  0.1542
 4060TIP3    H133595   3.250   1.159  16.994 -1.2388  1.2063  1.7512
 4060TIP3    H233596   3.361   1.169  17.096  0.8183 -0.4318 -0.2170
 4061TIP3   OH233597   2.138   0.973  11.026  0.6311  0.2091  0.1774
 4061TIP3    H133598   2.169   1.047  11.077 -4.0341  1.1391  2.1963
 4061TIP3    H233599   2.117   1.010  10.940  0.4824  0.6814  0.4135
 4062TIP3   OH233600   1.840   2.545  10.252 -0.0437 -0.4364 -1.0721
 4062TIP3    H133601   1.910   2.610  10.251  0.4123 -0.9170 -2.4219
 4062TIP3    H233602   1.761   2.593  10.229 -0.3550  0.2602  1.1740
 4063TIP3   OH233603   0.065   2.942   5.563  0.4025 -0.0324 -0.1155
 4063TIP3    H133604   0.050   2.861   5.611  0.2012  0.1215  0.0807
 4063TIP3    H233605   0.117   2.997   5.622 -0.5500  0.4823  0.2651
 4064TIP3   OH233606   2.384   0.242   5.830  0.2371  0.5013 -0.1069
 4064TIP3    H133607   2.326   0.174   5.863 -0.7101  0.9468 -0.8002
 4064TIP3    H233608   2.388   0.226   5.735 -0.4796  1.7469 -0.3688
 4065TIP3   OH233609   0.905   1.453   4.582  0.1640 -0.3925 -0.3247
 4065TIP3    H133610   0.838   1.421   4.643  1.5508 -0.0690  1.4744
 4065TIP3    H233611   0.984   1.402   4.604  1.2817  1.2491 -0.3334
 4066TIP3   OH233612   6.544   2.316   0.474  0.7705 -0.3503  0.5327
 4066TIP3    H133613   6.637   2.306   0.453  0.9731 -0.0487  1.2753
 4066TIP3    H233614   6.541   2.391   0.534 -0.1216  0.6745 -0.7235
 4067TIP3   OH233615   6.195   1.544   4.082 -0.0920  0.6229  0.0115
 4067TIP3    H133616   6.121   1.544   4.021  0.9622  1.2161 -1.3078
 4067TIP3    H233617   6.168   1.483   4.152 -0.6069 -1.4974 -1.9138
 4068TIP3   OH233618   4.670   5.635  12.248  0.3923  0.2370 -0.8029
 4068TIP3    H133619   4.635   5.610  12.163 -2.1455  0.8469 -0.0175
 4068TIP3    H233620   4.739   5.698  12.228 -1.1177  1.4764 -2.3999
 4069TIP3   OH233621   6.664   4.063  12.784 -1.0257 -0.3907  0.7266
 4069TIP3    H133622   6.584   4.014  12.765 -0.3741 -1.8789  1.5968
 4069TIP3    H233623   6.685   4.040  12.875 -0.0070  0.5495  0.7448
 4070TIP3   OH233624   4.448   2.527  16.240  0.8632  0.0184 -0.5980
 4070TIP3    H133625   4.506   2.451  16.236 -0.0769 -0.6574 -1.9292
 4070TIP3    H233626   4.422   2.543  16.149  0.3139  1.3796 -0.2317
 4071TIP3   OH233627   6.367   2.185  11.071 -0.1873 -0.8567 -0.7047
 4071TIP3    H133628   6.393   2.195  11.162  1.3298 -1.3816 -1.0518
 4071TIP3    H233629   6.310   2.260  11.053 -1.0444 -1.0973  0.8335
 4072TIP3   OH233630   5.211   4.370   0.998  1.0739  0.1967  0.5676
 4072TIP3    H133631   5.283   4.416   1.042  0.9511 -0.0054  0.9870
 4072TIP3    H233632   5.185   4.302   1.061  1.2735 -0.4606 -0.0499
 4073TIP3   OH233633   5.427   3.650  14.641  0.4050 -0.3756  1.0659
 4073TIP3    H133634   5.380   3.588  14.697  1.5731 -1.3037  1.0851
 4073TIP3    H233635   5.512   3.660  14.684  0.3974  0.9050  0.8061
 4074TIP3   OH233636   2.887   2.962   5.797 -0.4846 -0.0438  0.0957
 4074TIP3    H133637   2.806   2.960   5.849  0.2779  1.1235  1.3732
 4074TIP3    H233638   2.939   2.889   5.831  0.5078  1.4096  1.8949
 4075TIP3   OH233639   4.633   5.630  16.786  0.2750  0.1355 -0.8660
 4075TIP3    H133640   4.699   5.647  16.853 -0.0577  1.7465 -0.9088
 4075TIP3    H233641   4.609   5.538  16.799  2.0147 -0.2763 -0.4171
 4076TIP3   OH233642   3.156   1.848   3.806 -0.0933 -0.4579 -0.1972
 4076TIP3    H133643   3.197   1.788   3.745 -1.9409 -0.4615 -1.5082
 4076TIP3    H233644   3.216   1.852   3.880  0.6258 -3.0317 -0.5481
 4077TIP3   OH233645   2.640   2.188   0.104  0.0507 -0.0669 -0.3813
 4077TIP3    H133646   2.631   2.262   0.044 -0.6945  0.3777  0.2449
 4077TIP3    H233647   2.631   2.227   0.191  1.4223 -0.6511  0.0509
 4078TIP3   OH233648   2.359   0.563  13.063 -0.3750 -0.6202  0.0029
 4078TIP3    H133649   2.443   0.529  13.030 -0.7228 -0.3499 -1.2025
 4078TIP3    H233650   2.334   0.501  13.131  0.6112 -0.9281  0.1117
 4079TIP3   OH233651   1.311   5.803   5.037  0.4384 -0.7948 -0.0866
 4079TIP3    H133652   1.356   5.883   5.065 -2.8892  1.0657  0.4021
 4079TIP3    H233653   1.260   5.776   5.114 -0.3807 -1.9796 -1.0173
 4080TIP3   OH233654   3.416   0.835  13.829  0.6182 -0.1891  0.4323
 4080TIP3    H133655   3.494   0.870  13.785 -0.1690  2.1586  0.7694
 4080TIP3    H233656   3.400   0.897  13.901 -0.6400 -1.5287  1.3498
 4081TIP3   OH233657   4.275   1.471   6.005 -0.8253 -0.1450  0.5514
 4081TIP3    H133658   4.283   1.539   6.072 -0.6052  0.3259  0.0564
 4081TIP3    H233659   4.353   1.416   6.017 -0.6189  0.1272  0.4770
 4082TIP3   OH233660   6.622   1.777  14.130  0.1874  0.1307  0.1459
 4082TIP3    H133661   6.689   1.710  14.143 -0.4253 -1.1800 -2.6389
 4082TIP3    H233662   6.559   1.761  14.201  0.1235 -2.2564 -0.3459
 4083TIP3   OH233663   4.350   2.417   5.896 -0.0310 -0.1230 -0.0626
 4083TIP3    H133664   4.370   2.495   5.948  1.8668 -0.0095 -0.8768
 4083TIP3    H233665   4.334   2.348   5.960  0.9174  0.3281  0.6828
 4084TIP3   OH233666   4.360   2.499  13.396 -0.2063 -0.2139 -0.2535
 4084TIP3    H133667   4.315   2.583  13.390 -0.4155 -0.3154 -0.1368
 4084TIP3    H233668   4.439   2.517  13.447 -0.8141 -0.3033  0.7570
 4085TIP3   OH233669   5.052   6.272  13.603 -0.7259  0.2903  0.0673
 4085TIP3    H133670   5.025   6.334  13.671 -1.9352  0.2882 -0.3884
 4085TIP3    H233671   5.002   6.192  13.622 -1.8835  0.6225 -1.3921
 4086TIP3   OH233672   4.209   3.981   4.462 -0.4206  0.9250  0.0308
 4086TIP3    H133673   4.181   3.928   4.387  1.1686 -0.8411  0.6170
 4086TIP3    H233674   4.126   4.007   4.504 -1.2873 -0.1048 -0.9574
 4087TIP3   OH233675   1.883   5.991  15.166  0.2227 -0.0180  0.3620
 4087TIP3    H133676   1.922   6.052  15.228  0.4490  0.9777 -0.7499
 4087TIP3    H233677   1.957   5.956  15.117 -0.1012  0.4694 -0.4831
 4088TIP3   OH233678   5.981   2.542   0.327  0.4474 -0.4529  0.6888
 4088TIP3    H133679   5.938   2.581   0.251  0.1854 -0.8389  0.6341
 4088TIP3    H233680   6.019   2.616   0.374 -1.5940  0.0962  1.5776
 4089TIP3   OH233681   4.483   5.545  15.924 -0.3103  0.4972  0.2694
 4089TIP3    H133682   4.477   5.559  15.829  2.0489 -0.9786 -0.1748
 4089TIP3    H233683   4.450   5.456  15.937  1.1769 -0.0297  0.5391
 4090TIP3   OH233684   5.317   3.741  11.607  0.7877 -0.4894  0.3943
 4090TIP3    H133685   5.234   3.744  11.560  1.5853 -0.7187 -1.0658
 4090TIP3    H233686   5.317   3.655  11.650 -0.1319 -0.1030  1.1997
 4091TIP3   OH233687   6.417   2.917   0.670  0.4579  0.5322  0.3371
 4091TIP3    H133688   6.464   2.989   0.627 -1.8005  1.5208 -0.6627
 4091TIP3    H233689   6.325   2.932   0.647 -0.0623 -3.1212 -0.5675
 4092TIP3   OH233690   3.076   4.502   3.157 -0.8207 -0.6485  0.1747
 4092TIP3    H133691   3.110   4.535   3.241  2.2384 -1.6898 -0.5308
 4092TIP3    H233692   3.071   4.580   3.101  0.9514 -0.4816  0.1945
 4093TIP3   OH233693   0.688   6.094  14.712 -0.0041 -0.1580 -0.5031
 4093TIP3    H133694   0.775   6.122  14.683 -0.7004 -0.5691 -3.3261
 4093TIP3    H233695   0.650   6.054  14.634 -2.2335 -1.2088  1.0454
 4094TIP3   OH233696   5.382   1.152  13.378 -0.6322  0.2191 -0.2127
 4094TIP3    H133697   5.439   1.228  13.389  0.9078 -1.1094  1.3498
 4094TIP3    H233698   5.295   1.190  13.362 -0.0396  2.3186  1.1774
 4095TIP3   OH233699   3.978   0.426   1.936  0.5237 -0.5807  0.0873
 4095TIP3    H133700   3.906   0.362   1.940  0.0650 -0.0313  1.3888
 4095TIP3    H233701   4.023   0.406   1.855 -1.5146 -0.5259 -1.1426
 4096TIP3   OH233702   4.661   5.550   4.349  0.2184 -0.0454 -0.2890
 4096TIP3    H133703   4.684   5.607   4.423  0.8023 -0.4661 -0.1441
 4096TIP3    H233704   4.645   5.611   4.277  0.0632  0.3451  0.0678
 4097TIP3   OH233705   1.801   5.007  14.554 -0.3508 -0.2513  0.4673
 4097TIP3    H133706   1.761   5.007  14.467 -1.7023  0.7394  1.0548
 4097TIP3    H233707   1.794   4.916  14.584 -0.6915 -0.4184 -0.1021
 4098TIP3   OH233708   0.992   6.318   0.802 -0.3469 -0.1430 -0.4924
 4098TIP3    H133709   1.071   6.312   0.856 -0.2581 -0.2315 -0.6304
 4098TIP3    H233710   0.973   6.411   0.798 -0.3242 -0.1310 -0.3505
 4099TIP3   OH233711   1.724   1.368   0.560 -0.2854  0.1818  0.6036
 4099TIP3    H133712   1.658   1.371   0.629 -1.5790  0.7132 -0.6080
 4099TIP3    H233713   1.674   1.378   0.478  1.4623  2.9687 -0.2830
 4100TIP3   OH233714   4.566   3.279  12.680  0.0697  0.1425  0.1782
 4100TIP3    H133715   4.490   3.331  12.707 -1.2110 -1.2738 -0.5656
 4100TIP3    H233716   4.533   3.189  12.677  2.4228 -0.9075  2.2664
 4101TIP3   OH233717   3.541   2.531  14.328  0.3193 -0.2805 -0.0734
 4101TIP3    H133718   3.554   2.576  14.244  1.7933 -1.6411 -0.6497
 4101TIP3    H233719   3.489   2.454  14.306  0.7562 -0.6714  0.2216
 4102TIP3   OH233720   1.126   1.075  15.523  0.2887  0.0988  0.4262
 4102TIP3    H133721   1.060   1.038  15.465 -0.7385 -1.0795  2.2357
 4102TIP3    H233722   1.077   1.105  15.600  1.4773  2.4463  0.3800
 4103TIP3   OH233723   6.047   6.171   3.786  0.2075 -0.0670  0.6504
 4103TIP3    H133724   6.062   6.099   3.847  4.1642  0.6852  0.7993
 4103TIP3    H233725   6.035   6.128   3.701  0.2044 -0.9483  1.0831
 4104TIP3   OH233726   0.583   6.707   0.950 -0.0343  0.0710  0.2000
 4104TIP3    H133727   0.590   6.801   0.936  3.0713  0.0313  0.8752
 4104TIP3    H233728   0.496   6.695   0.989 -1.7676  2.1871 -2.6187
 4105TIP3   OH233729   2.693   1.212   6.035 -0.1008 -0.1855  0.3134
 4105TIP3    H133730   2.637   1.196   6.111 -0.9413  1.1214  0.0220
 4105TIP3    H233731   2.686   1.133   5.982 -2.0767  0.0960  0.0793
 4106TIP3   OH233732   6.666   6.183  11.828 -0.5647 -0.5368 -0.1395
 4106TIP3    H133733   6.596   6.241  11.858 -1.4551 -1.7973  0.2645
 4106TIP3    H233734   6.640   6.158  11.739 -0.4944 -0.7887 -0.0910
 4107TIP3   OH233735   4.400   2.744  16.826  0.3197 -0.0999  0.6249
 4107TIP3    H133736   4.360   2.686  16.890 -0.9632  0.8140  0.6926
 4107TIP3    H233737   4.332   2.809  16.806  0.3201 -0.8671 -2.3707
 4108TIP3   OH233738   4.281   5.592  13.165  0.1761 -0.1366 -0.2083
 4108TIP3    H133739   4.334   5.525  13.122  0.8660  0.9576 -1.1430
 4108TIP3    H233740   4.196   5.551  13.179  0.5816 -1.1941 -0.7690
 4109TIP3   OH233741   4.118   6.383   5.002 -0.2610  0.0194 -0.0505
 4109TIP3    H133742   4.095   6.319   4.934 -0.7055 -0.8704  0.8948
 4109TIP3    H233743   4.178   6.336   5.059 -0.6525  0.4179  0.7054
 4110TIP3   OH233744   0.780   1.430  14.273 -0.5276 -0.4626  0.2401
 4110TIP3    H133745   0.702   1.382  14.303 -0.7700 -1.2365 -1.4811
 4110TIP3    H233746   0.843   1.361  14.250  0.6232  0.1507  1.4198
 4111TIP3   OH233747   4.088   6.459  11.035 -0.2732  0.2274 -0.5210
 4111TIP3    H133748   4.140   6.441  11.114  0.1984 -0.2228 -0.9278
 4111TIP3    H233749   4.001   6.479  11.068 -0.0395  0.2046  0.1272
 4112TIP3   OH233750   5.907   0.845   2.119  0.5217 -0.7606  0.0103
 4112TIP3    H133751   5.831   0.788   2.107 -1.0530  1.2729 -0.2873
 4112TIP3    H233752   5.890   0.891   2.201  0.3132  1.2140 -1.0596
 4113TIP3   OH233753   4.754   6.797  12.023 -0.0385  0.1085  0.0385
 4113TIP3    H133754   4.664   6.781  12.052  0.0372 -0.4181 -0.0039
 4113TIP3    H233755   4.808   6.774  12.099  0.0069  1.6561  0.5227
 4114TIP3   OH233756   5.627   5.612  15.737 -0.4120  0.5983 -0.2812
 4114TIP3    H133757   5.690   5.669  15.692 -0.0586 -0.0198 -0.5824
 4114TIP3    H233758   5.651   5.618  15.829 -0.8637  1.5326 -0.2093
 4115TIP3   OH233759   5.428   4.303   4.336  0.2415 -0.1007 -0.0343
 4115TIP3    H133760   5.471   4.350   4.408  0.9938 -1.7563  0.6704
 4115TIP3    H233761   5.454   4.351   4.257  0.7141  0.8404  0.6737
 4116TIP3   OH233762   1.935   5.751   1.701  0.2949 -0.9680 -0.6599
 4116TIP3    H133763   2.013   5.713   1.743  2.0172  0.2227 -2.6316
 4116TIP3    H233764   1.881   5.780   1.775  1.0711 -2.9696  0.8024
 4117TIP3   OH233765   5.658   2.894  13.476 -0.1814  0.4346 -0.7423
 4117TIP3    H133766   5.676   2.898  13.570 -0.8587  0.7443 -0.6159
 4117TIP3    H233767   5.740   2.863  13.437  0.0838  0.2333 -0.0450
 4118TIP3   OH233768   4.313   4.695   1.740  0.8709 -0.9747  0.5264
 4118TIP3    H133769   4.274   4.782   1.746 -2.3518 -2.1963 -0.4735
 4118TIP3    H233770   4.349   4.679   1.827 -0.2282  0.6084  1.3296
 4119TIP3   OH233771   6.468   1.593   2.850  0.4730 -0.7231  0.5399
 4119TIP3    H133772   6.555   1.583   2.811  1.0737 -0.9328  1.8729
 4119TIP3    H233773   6.482   1.583   2.944 -0.3819  2.9215  1.2208
 4120TIP3   OH233774   4.078   5.796  12.612  0.3060  0.5224  0.0672
 4120TIP3    H133775   4.034   5.880  12.624  0.6950  1.0816 -1.9429
 4120TIP3    H233776   4.011   5.738  12.576  0.2872  0.2796  0.4956
 4121TIP3   OH233777   6.068   2.977  16.814  0.0374 -0.0857  0.4331
 4121TIP3    H133778   6.143   2.923  16.835  1.0337  1.1245  0.1097
 4121TIP3    H233779   6.043   3.017  16.897 -0.6215 -0.9087  0.6484
 4122TIP3   OH233780   2.988   2.486  11.547  0.0441  0.0223  0.1225
 4122TIP3    H133781   2.987   2.556  11.481 -2.9130  2.6308  2.5904
 4122TIP3    H233782   3.081   2.473  11.566  0.7809  2.4246 -1.3481
 4123TIP3   OH233783   6.208   0.307  16.882 -0.0496  0.0314  0.0443
 4123TIP3    H133784   6.290   0.317  16.931  0.7248  0.1361 -1.2225
 4123TIP3    H233785   6.224   0.353  16.800 -0.7134 -1.5192 -0.9963
 4124TIP3   OH233786   5.284   1.633  10.702  0.0385 -0.4236  0.0291
 4124TIP3    H133787   5.211   1.644  10.640 -0.1831 -1.7153  0.0323
 4124TIP3    H233788   5.359   1.671  10.657 -0.4017 -0.1043 -0.4522
 4125TIP3   OH233789   2.979   3.919   0.760 -0.2010 -0.5793 -0.4660
 4125TIP3    H133790   2.915   3.988   0.774  1.0229  0.5330 -0.1699
 4125TIP3    H233791   2.978   3.868   0.841  0.2608  0.2759  0.0976
 4126TIP3   OH233792   2.073   1.736   6.534 -0.0618  0.1485  0.2121
 4126TIP3    H133793   1.992   1.787   6.535 -0.4171 -0.4023  0.0276
 4126TIP3    H233794   2.138   1.794   6.575 -0.5324  0.6127  0.3226
 4127TIP3   OH233795   3.397   5.305   6.150  0.5676  0.3571  0.0535
 4127TIP3    H133796   3.368   5.255   6.074 -0.0024 -1.0972  1.1738
 4127TIP3    H233797   3.459   5.248   6.194 -0.5350  0.3315  1.6867
 4128TIP3   OH233798   0.529   3.502  13.410  0.4099  0.0709 -0.2794
 4128TIP3    H133799   0.553   3.516  13.319 -1.4171 -1.3529 -1.0443
 4128TIP3    H233800   0.494   3.413  13.412  1.2512 -0.2683  2.0136
 4129TIP3   OH233801   1.190   0.498   2.114  0.6722  0.2172 -0.5731
 4129TIP3    H133802   1.191   0.526   2.022 -1.1262  1.1136 -0.3726
 4129TIP3    H233803   1.123   0.553   2.155  2.0165  0.4126  1.4878
 4130TIP3   OH233804   4.211   5.253  11.817 -0.6002  0.6227  0.6779
 4130TIP3    H133805   4.127   5.298  11.806 -0.1819  1.0677 -1.1428
 4130TIP3    H233806   4.256   5.266  11.733 -1.0039 -4.3471 -0.6699
 4131TIP3   OH233807   0.428   3.284  11.825 -0.1991 -0.1957  0.4422
 4131TIP3    H133808   0.367   3.301  11.752 -1.0184  0.5174  1.2709
 4131TIP3    H233809   0.380   3.312  11.903  0.5083 -1.3309  1.3138
 4132TIP3   OH233810   1.577   3.201  16.197  0.5927 -0.5892 -0.0966
 4132TIP3    H133811   1.618   3.159  16.121 -0.5838 -0.8831 -0.5869
 4132TIP3    H233812   1.533   3.130  16.243  0.6412 -0.2814  0.4301
 4133TIP3   OH233813   5.950   1.553   5.669  0.2090  0.1778 -0.8098
 4133TIP3    H133814   5.999   1.627   5.705  1.7463 -0.4314 -1.5547
 4133TIP3    H233815   5.925   1.582   5.581 -0.4822  0.3464 -0.5664
 4134TIP3   OH233816   3.414   2.411   0.640  0.6478 -0.0201 -0.1862
 4134TIP3    H133817   3.501   2.443   0.617  0.7809 -0.5732 -0.4805
 4134TIP3    H233818   3.359   2.489   0.640  1.0954  0.3012 -0.2270
 4135TIP3   OH233819   4.153   5.795   1.131 -0.0492 -0.0479  0.2679
 4135TIP3    H133820   4.161   5.869   1.192 -0.6952 -0.3281  0.6975
 4135TIP3    H233821   4.125   5.835   1.049 -0.0542  0.2220  0.3990
 4136TIP3   OH233822   1.586   2.074   1.201 -0.0026  0.3521  0.6168
 4136TIP3    H133823   1.551   1.985   1.211  0.7588  0.1035  1.2504
 4136TIP3    H233824   1.563   2.118   1.283 -0.6198  0.8351  0.1920
 4137TIP3   OH233825   4.296   6.593   5.448 -0.0611  0.4934  0.0105
 4137TIP3    H133826   4.296   6.502   5.478 -0.7599  0.2523 -0.6849
 4137TIP3    H233827   4.382   6.606   5.409 -0.4352 -0.2972 -1.1207
 4138TIP3   OH233828   2.659   4.796   2.208 -0.5415 -0.5561 -0.2944
 4138TIP3    H133829   2.638   4.883   2.174  0.8746  0.4149  1.1796
 4138TIP3    H233830   2.753   4.787   2.193 -0.0292 -0.4565  2.4134
 4139TIP3   OH233831   5.100   1.538   6.581  0.5169  0.4216 -0.2211
 4139TIP3    H133832   5.069   1.455   6.545  0.9451 -0.3152  1.0475
 4139TIP3    H233833   5.188   1.549   6.546  0.7349 -0.0240  0.1884
 4140TIP3   OH233834   0.948   0.628   1.282 -0.3791 -0.2544 -1.2036
 4140TIP3    H133835   1.043   0.629   1.292 -0.4425  1.1034 -0.3745
 4140TIP3    H233836   0.926   0.536   1.271  0.8174 -0.8583  0.8885
 4141TIP3   OH233837   3.512   6.063   0.475 -0.3615  0.5267 -0.7862
 4141TIP3    H133838   3.505   6.073   0.380  0.3389 -1.1797 -1.0724
 4141TIP3    H233839   3.568   6.136   0.503  1.7639 -0.4741 -2.1294
 4142TIP3   OH233840   1.536   0.611   5.458 -0.2966  0.4240 -0.1210
 4142TIP3    H133841   1.625   0.582   5.479 -0.2884  0.9413  0.5560
 4142TIP3    H233842   1.493   0.624   5.542 -1.4286 -1.0394 -0.4197
 4143TIP3   OH233843   1.033   6.220  14.842  0.6304 -0.7294  0.3144
 4143TIP3    H133844   0.963   6.203  14.779 -0.7012 -0.1760  1.5943
 4143TIP3    H233845   1.062   6.309  14.822 -0.1084 -0.3806  0.7544
 4144TIP3   OH233846   0.908   2.586   5.998  0.1470 -1.0225  0.4244
 4144TIP3    H133847   0.813   2.571   6.003  0.0018  0.0023  0.8906
 4144TIP3    H233848   0.933   2.613   6.087  1.0984 -2.4525  0.6324
 4145TIP3   OH233849   1.199   4.683   0.180  0.0961 -0.1806  0.3781
 4145TIP3    H133850   1.227   4.731   0.257  1.8997 -0.8924  0.2280
 4145TIP3    H233851   1.234   4.733   0.106  0.1525 -0.5875  0.1230
 4146TIP3   OH233852   5.209   1.833   3.894 -0.1429  0.2265  0.6944
 4146TIP3    H133853   5.188   1.908   3.950  0.6118 -0.5110  2.0360
 4146TIP3    H233854   5.298   1.849   3.863  1.4289 -1.5624  3.7311
 4147TIP3   OH233855   5.088   0.621  13.674 -0.8312  0.0997 -0.2807
 4147TIP3    H133856   5.000   0.648  13.648 -0.8748 -0.2985 -0.5596
 4147TIP3    H233857   5.146   0.658  13.607 -0.8090  0.1804 -0.2173
 4148TIP3   OH233858   1.155   4.836  15.581  0.0111 -0.0813 -1.0359
 4148TIP3    H133859   1.078   4.794  15.618  0.0510 -0.4429 -1.3554
 4148TIP3    H233860   1.216   4.843  15.654  0.3826 -1.4915 -1.1968
 4149TIP3   OH233861   3.173   0.468  14.382 -0.3051 -0.2427  0.4223
 4149TIP3    H133862   3.086   0.478  14.343 -0.1505  1.5326  0.4504
 4149TIP3    H233863   3.217   0.403  14.326 -0.6423  1.0437 -1.4433
 4150TIP3   OH233864   6.207   6.159  13.350 -0.8378 -0.2144 -0.3269
 4150TIP3    H133865   6.184   6.104  13.276 -2.1581  1.1917 -1.0404
 4150TIP3    H233866   6.123   6.178  13.392 -0.3396  0.6604  0.3113
 4151TIP3   OH233867   4.567   2.642   4.331 -0.4365 -0.3651  0.2708
 4151TIP3    H133868   4.544   2.610   4.244 -0.2783  1.7090 -0.5813
 4151TIP3    H233869   4.662   2.655   4.328 -0.3607 -0.6743  0.9224
 4152TIP3   OH233870   3.807   2.118  13.623  0.2855  0.0003  0.4374
 4152TIP3    H133871   3.719   2.094  13.594  0.0134  1.7726 -0.3773
 4152TIP3    H233872   3.865   2.070  13.564 -0.1864  0.0490 -0.0843
 4153TIP3   OH233873   1.246   4.749  14.961 -0.3916  0.8467  0.3365
 4153TIP3    H133874   1.240   4.687  14.889 -0.4464 -0.1190  1.1563
 4153TIP3    H233875   1.338   4.744  14.989 -0.3036  1.4236  0.1641
 4154TIP3   OH233876   1.832   6.440  14.377 -0.0185 -0.1084  0.0823
 4154TIP3    H133877   1.809   6.492  14.453 -0.4028  2.3112 -1.5933
 4154TIP3    H233878   1.927   6.430  14.382 -0.2267 -1.9843  1.9992
 4155TIP3   OH233879   4.219   0.929   3.972  0.1031 -0.1283  0.0869
 4155TIP3    H133880   4.137   0.975   3.991 -0.2000 -0.2311 -0.9043
 4155TIP3    H233881   4.191   0.848   3.929  0.7258 -0.1699 -0.2413
 4156TIP3   OH233882   4.600   5.710   4.135  0.1671 -0.3551  0.2800
 4156TIP3    H133883   4.512   5.709   4.099  0.3789 -0.2959 -0.2497
 4156TIP3    H233884   4.622   5.803   4.142 -0.4368 -0.3111  1.9896
 4157TIP3   OH233885   2.008   5.476  15.625  0.0328 -0.4579  0.0490
 4157TIP3    H133886   1.988   5.452  15.715 -1.6319 -0.3887 -0.2714
 4157TIP3    H233887   2.095   5.440  15.609 -0.3573 -1.9724  1.1389
 4158TIP3   OH233888   3.302   4.949  15.656  0.0030 -0.4152 -0.2807
 4158TIP3    H133889   3.382   4.900  15.640 -1.1319 -2.2076 -0.8045
 4158TIP3    H233890   3.326   5.041  15.644  1.5880 -1.0080 -2.0481
 4159TIP3   OH233891   2.238   1.167  11.163 -0.2620 -0.5874 -0.0716
 4159TIP3    H133892   2.174   1.233  11.192  0.1744 -0.3277  0.3089
 4159TIP3    H233893   2.275   1.205  11.083 -1.7527 -1.4848 -1.2351
 4160TIP3   OH233894   1.929   6.797   4.835  0.0164  0.5117  0.1893
 4160TIP3    H133895   1.999   6.842   4.787 -0.6995  1.0540 -0.3584
 4160TIP3    H233896   1.974   6.756   4.909  0.8353  1.3374  0.1721
 4161TIP3   OH233897   1.275   6.658   4.125 -0.2694  0.1772 -0.6619
 4161TIP3    H133898   1.232   6.575   4.147 -1.1106  0.5208 -0.9857
 4161TIP3    H233899   1.339   6.671   4.195 -0.5785 -0.4218 -0.2607
 4162TIP3   OH233900   6.295   0.196   6.028 -0.6208 -0.0814  0.6802
 4162TIP3    H133901   6.256   0.255   6.093 -1.5373 -0.8478  0.8397
 4162TIP3    H233902   6.222   0.172   5.971 -0.0270 -0.2076 -0.0432
 4163TIP3   OH233903   3.388   0.044   2.643  0.3645  0.8362  0.3895
 4163TIP3    H133904   3.475   0.040   2.684  0.2696  0.0879  0.5383
 4163TIP3    H233905   3.329   0.008   2.710 -0.1455  1.8335  0.4920
 4164TIP3   OH233906   1.228   4.661  11.765 -0.6274  0.0102 -0.0632
 4164TIP3    H133907   1.154   4.708  11.727 -0.6543 -0.1773 -0.2501
 4164TIP3    H233908   1.231   4.579  11.716 -0.7923 -0.3285  0.4839
 4165TIP3   OH233909   5.617   5.278  12.812  0.0311 -0.6334  0.4709
 4165TIP3    H133910   5.607   5.263  12.718 -0.3118  1.2106  0.1849
 4165TIP3    H233911   5.528   5.292  12.845  0.3350  1.6668  0.4909
 4166TIP3   OH233912   5.224   3.552  14.067  0.0628  0.4571 -0.4712
 4166TIP3    H133913   5.252   3.499  13.992 -0.1067  0.9215 -0.8657
 4166TIP3    H233914   5.284   3.528  14.137 -0.9701 -1.4271 -0.1693
 4167TIP3   OH233915   2.811   1.711  15.230  0.1331  0.0747  0.2375
 4167TIP3    H133916   2.898   1.673  15.219  0.8024  0.9195  2.1167
 4167TIP3    H233917   2.823   1.779  15.297 -1.7277  1.0688 -0.3598
 4168TIP3   OH233918   0.363   0.666   2.002 -0.2408  0.7538 -0.2654
 4168TIP3    H133919   0.350   0.728   1.930 -4.6738 -0.1989 -0.6101
 4168TIP3    H233920   0.309   0.701   2.073  1.4486 -0.0279  1.4746
 4169TIP3   OH233921   1.382   2.667  16.889  0.0515  0.2440  0.3501
 4169TIP3    H133922   1.300   2.707  16.918  0.4856 -0.4723  2.8551
 4169TIP3    H233923   1.364   2.573  16.890 -0.2517  0.1268 -3.1523
 4170TIP3   OH233924   0.262   2.565  14.044  0.4178  0.4171  0.0949
 4170TIP3    H133925   0.170   2.543  14.060  0.9414 -1.5346  0.7625
 4170TIP3    H233926   0.277   2.645  14.094 -1.1401  1.3547 -0.8381
 4171TIP3   OH233927   5.236   1.426  13.570 -0.2207  0.3194 -0.2783
 4171TIP3    H133928   5.152   1.396  13.536 -0.1783  0.2711 -0.3421
 4171TIP3    H233929   5.227   1.521  13.576 -0.4660  0.2680  0.2230
 4172TIP3   OH233930   4.603   3.417  14.261  0.0169 -0.4490 -0.1377
 4172TIP3    H133931   4.525   3.454  14.219  0.1072  0.4668  0.4616
 4172TIP3    H233932   4.624   3.480  14.330  0.6275 -1.2653  0.4332
 4173TIP3   OH233933   1.755   5.530  16.395  0.3783  0.0117  0.0152
 4173TIP3    H133934   1.840   5.488  16.383 -0.9865 -3.3097  0.7106
 4173TIP3    H233935   1.721   5.543  16.307  1.1215  0.3174 -0.2321
 4174TIP3   OH233936   2.911   0.883   3.782 -0.6665  0.1232  0.3015
 4174TIP3    H133937   2.959   0.960   3.814 -1.0531 -0.0827  1.4387
 4174TIP3    H233938   2.864   0.851   3.859 -0.6014 -1.1992 -0.1842
 4175TIP3   OH233939   2.024   2.334  12.171 -0.1763  0.5468 -0.2573
 4175TIP3    H133940   2.042   2.241  12.156  0.7405  0.5763  0.5716
 4175TIP3    H233941   1.934   2.336  12.202 -0.6553  0.0745 -1.5143
 4176TIP3   OH233942   4.876   5.607   1.075 -0.1480  0.7411 -0.3826
 4176TIP3    H133943   4.838   5.559   1.001 -3.0912  1.8038  0.3005
 4176TIP3    H233944   4.944   5.661   1.036  1.2864 -1.7607 -1.5929
 4177TIP3   OH233945   3.553   1.863   3.180 -0.5656 -0.0845 -0.2900
 4177TIP3    H133946   3.509   1.929   3.233  1.7701  0.8162  0.6145
 4177TIP3    H233947   3.567   1.790   3.239  1.1470  0.5333  0.1166
 4178TIP3   OH233948   0.007   4.748   2.415  0.3745  0.0238  0.3927
 4178TIP3    H133949   0.032   4.660   2.441  0.3975 -0.5406 -1.3877
 4178TIP3    H233950  -0.067   4.735   2.355 -0.4519  1.3048  1.0860
 4179TIP3   OH233951   5.290   3.792   4.356 -0.3027 -0.1842  0.3045
 4179TIP3    H133952   5.315   3.745   4.436 -2.0343 -2.5479 -0.3946
 4179TIP3    H233953   5.329   3.741   4.285  0.4314  1.3391 -0.4221
 4180TIP3   OH233954   3.380   0.989   3.908 -0.6568 -0.1763 -0.3783
 4180TIP3    H133955   3.350   0.898   3.912  1.0125 -0.7182  2.1811
 4180TIP3    H233956   3.474   0.983   3.920 -0.6401  1.9364  0.9078
 4181TIP3   OH233957   6.490   3.073   5.318 -0.1693 -0.6712  0.0939
 4181TIP3    H133958   6.555   3.075   5.388  0.1323  0.0450 -0.2031
 4181TIP3    H233959   6.420   3.016   5.352 -0.1632 -0.0998  1.0963
 4182TIP3   OH233960   2.519   4.657  15.445  0.0504 -0.0777  0.1477
 4182TIP3    H133961   2.526   4.707  15.526  1.1414 -2.3634  1.5541
 4182TIP3    H233962   2.438   4.606  15.455 -0.7644  0.9444 -1.0237
 4183TIP3   OH233963   4.533   4.452   3.956 -0.3583  0.3712 -0.1615
 4183TIP3    H133964   4.483   4.371   3.971 -0.3961  0.4779  0.3096
 4183TIP3    H233965   4.501   4.485   3.872 -0.0333 -0.3296 -0.5714
 4184TIP3   OH233966   3.857   1.192   1.258 -0.0576  0.3783 -0.1416
 4184TIP3    H133967   3.763   1.190   1.241  0.4860 -2.3130 -4.6099
 4184TIP3    H233968   3.878   1.286   1.265 -2.7877  1.1716 -1.1460
 4185TIP3   OH233969   6.500   0.242  15.235  0.2170  0.4020 -0.5697
 4185TIP3    H133970   6.588   0.209  15.214 -0.0208  0.7418 -2.1970
 4185TIP3    H233971   6.442   0.197  15.174 -0.6206  0.8895 -0.1497
 4186TIP3   OH233972   2.198   2.795   2.684 -0.5453  0.1492 -0.2481
 4186TIP3    H133973   2.130   2.760   2.743 -1.1671 -0.2952 -1.1984
 4186TIP3    H233974   2.151   2.814   2.603  0.4658 -0.1321 -0.9145
 4187TIP3   OH233975   0.750   6.130  15.471  0.1949  0.2650 -0.1475
 4187TIP3    H133976   0.657   6.112  15.457  0.3595 -1.9132  1.1366
 4187TIP3    H233977   0.794   6.087  15.397  0.2603  0.4027 -0.1898
 4188TIP3   OH233978   3.862   4.483   0.674  0.1691  0.1841 -0.4662
 4188TIP3    H133979   3.851   4.394   0.706 -1.3944  0.2605 -0.7533
 4188TIP3    H233980   3.862   4.537   0.753  1.4450 -0.0609 -0.2646
 4189TIP3   OH233981   4.743   1.738  15.104  0.0126 -0.0611 -0.1974
 4189TIP3    H133982   4.680   1.668  15.120  2.3351 -2.2478  0.0237
 4189TIP3    H233983   4.783   1.716  15.020 -0.3001  1.9555 -0.9295
 4190TIP3   OH233984   4.302   3.598   4.902  0.4241  0.9310  0.5638
 4190TIP3    H133985   4.291   3.505   4.919 -0.4583  0.4734 -2.0723
 4190TIP3    H233986   4.222   3.638   4.936  0.1172  0.5099  0.3466
 4191TIP3   OH233987   3.535   4.163  15.713  0.5181  0.3305 -0.3549
 4191TIP3    H133988   3.550   4.126  15.626 -0.3145  0.3225 -0.4945
 4191TIP3    H233989   3.585   4.245  15.713  2.6669 -0.9032  0.0682
 4192TIP3   OH233990   0.793   4.854  15.390  0.1312  0.4969 -0.4571
 4192TIP3    H133991   0.847   4.870  15.468  1.3885 -1.6783 -0.8171
 4192TIP3    H233992   0.753   4.939  15.372  0.3134  1.2288  2.1555
 4193TIP3   OH233993   4.335   5.525  12.520 -0.7603 -0.0025 -0.4832
 4193TIP3    H133994   4.372   5.574  12.593  0.0849 -0.7122 -0.4267
 4193TIP3    H233995   4.398   5.455  12.503 -0.6695  0.4620 -2.2400
 4194TIP3   OH233996   0.443   5.175   1.392 -0.3450 -0.4214  0.1610
 4194TIP3    H133997   0.468   5.205   1.479 -0.5196 -0.6709  0.3002
 4194TIP3    H233998   0.492   5.230   1.332 -2.7503  2.1274  0.3220
 4195TIP3   OH233999   2.837   4.847  15.791 -0.5092 -0.0418  0.0395
 4195TIP3    H134000   2.923   4.887  15.774 -0.3231 -0.3242  0.3094
 4195TIP3    H234001   2.836   4.832  15.886 -0.3600 -1.1540 -0.1183
 4196TIP3   OH234002   4.285   1.394  14.116  0.2875 -0.7138  0.4620
 4196TIP3    H134003   4.319   1.310  14.148  1.6173 -0.5222 -0.3606
 4196TIP3    H234004   4.355   1.457  14.134 -0.1796 -0.0286 -0.0737
 4197TIP3   OH234005   4.205   5.968  13.758  0.6256  0.0842 -0.1074
 4197TIP3    H134006   4.123   6.017  13.751 -0.1383 -1.1271  0.0466
 4197TIP3    H234007   4.204   5.931  13.846  1.7766  0.7622  0.2197
 4198TIP3   OH234008   1.178   3.981   1.717  0.0366 -0.0302 -1.1259
 4198TIP3    H134009   1.088   3.951   1.699 -0.0753  0.5710 -1.6276
 4198TIP3    H234010   1.233   3.923   1.665 -0.0314 -0.6177 -0.5543
 4199TIP3   OH234011   0.696   0.702  15.533  0.5327 -0.2888  0.3563
 4199TIP3    H134012   0.629   0.642  15.500 -0.1845  0.7912 -0.2224
 4199TIP3    H234013   0.650   0.785  15.546  1.5842  0.2532  0.7478
 4200TIP3   OH234014   1.792   6.237   3.291 -0.3065  0.0941 -0.5524
 4200TIP3    H134015   1.765   6.205   3.377  1.5277  0.3125  0.1513
 4200TIP3    H234016   1.768   6.330   3.291 -1.3467 -0.1699 -0.7402
 4201TIP3   OH234017   0.415   4.725  16.747 -0.7477  0.2786 -0.0913
 4201TIP3    H134018   0.433   4.754  16.658 -0.1254  0.7247  0.1699
 4201TIP3    H234019   0.468   4.647  16.759 -1.6372 -0.3965 -0.4527
 4202TIP3   OH234020   4.584   4.677  16.308 -0.0011  0.6806  0.0198
 4202TIP3    H134021   4.521   4.643  16.245  1.9055  1.5725 -2.5612
 4202TIP3    H234022   4.557   4.769  16.320 -0.0514  0.6598  0.0651
 4203TIP3   OH234023   6.419   2.442  13.051  0.1950  0.2089  1.0980
 4203TIP3    H134024   6.340   2.462  13.001  0.3318 -1.0997  0.3376
 4203TIP3    H234025   6.388   2.426  13.140 -0.1858  1.3632  1.1876
 4204TIP3   OH234026   6.709   4.779  16.096 -0.4241  0.9323 -0.3747
 4204TIP3    H134027   6.770   4.844  16.061  0.8326  0.8711  1.5478
 4204TIP3    H234028   6.765   4.711  16.132 -1.6476  0.3462  0.4920
 4205TIP3   OH234029   6.033   1.780  10.477 -0.5778  0.1301 -0.2479
 4205TIP3    H134030   6.018   1.873  10.458 -1.4479  0.2889  1.0680
 4205TIP3    H234031   6.128   1.773  10.488 -0.2162  0.3476 -2.7621
 4206TIP3   OH234032   0.875   1.938   0.707  0.6372 -0.6046 -0.2661
 4206TIP3    H134033   0.873   2.029   0.738 -0.2994 -1.2278  1.6362
 4206TIP3    H234034   0.887   1.946   0.612 -0.2007  1.5132 -0.2549
 4207TIP3   OH234035   4.566   2.043   0.791  0.0984 -0.6800  0.2832
 4207TIP3    H134036   4.474   2.045   0.765  0.4389  1.7123 -0.9924
 4207TIP3    H234037   4.598   1.957   0.761 -0.7641  0.0255 -2.9769
 4208TIP3   OH234038   0.582   2.394  16.713 -0.1982 -0.5345  0.2197
 4208TIP3    H134039   0.492   2.390  16.746 -0.4584 -1.0999 -0.5237
 4208TIP3    H234040   0.578   2.349  16.628  0.4700  0.7310 -0.5158
 4209TIP3   OH234041   6.333   0.954   3.136 -0.3559  0.1870  0.4276
 4209TIP3    H134042   6.426   0.967   3.155 -0.2395  2.4090 -1.2086
 4209TIP3    H234043   6.292   1.039   3.156 -2.0567 -0.7283  1.0793
 4210TIP3   OH234044   3.719   0.905   1.536 -0.7725  0.1054  0.3995
 4210TIP3    H134045   3.640   0.880   1.584 -1.4577  0.6297 -0.4226
 4210TIP3    H234046   3.791   0.862   1.584 -1.6864 -1.7532  0.2142
 4211TIP3   OH234047   5.866   2.008   5.576 -0.4184  0.8220  0.2042
 4211TIP3    H134048   5.798   1.942   5.560  1.2982 -0.3277 -3.6077
 4211TIP3    H234049   5.948   1.958   5.577  0.6966  2.5783  0.1420
 4212TIP3   OH234050   1.421   5.312  12.029  0.1978  0.7928  0.4405
 4212TIP3    H134051   1.341   5.335  11.983 -0.0056 -1.6863 -0.5657
 4212TIP3    H234052   1.423   5.371  12.104 -2.3690  1.1773  0.2864
 4213TIP3   OH234053   2.583   1.116  13.169 -0.4054  0.0162  0.2789
 4213TIP3    H134054   2.509   1.073  13.211 -0.7096  1.0093  0.7703
 4213TIP3    H234055   2.551   1.202  13.145  0.5594  0.4215  0.3908
 4214TIP3   OH234056   2.007   2.250   1.346  0.1208 -0.0880  0.4229
 4214TIP3    H134057   2.046   2.181   1.399  1.0746 -0.3267 -0.5774
 4214TIP3    H234058   1.986   2.319   1.409  3.0171  0.4539  0.9050
 4215TIP3   OH234059   6.200   0.796  13.274 -0.8424 -0.0326  0.1975
 4215TIP3    H134060   6.274   0.854  13.291  0.7416 -2.2827  1.6119
 4215TIP3    H234061   6.141   0.810  13.349 -0.1269 -0.7051  0.9022
 4216TIP3   OH234062   2.961   6.126   2.656 -0.5140 -0.7075 -0.1494
 4216TIP3    H134063   3.008   6.052   2.694 -1.9794 -1.5087  0.1881
 4216TIP3    H234064   2.966   6.195   2.722 -0.5278 -1.0612  0.2196
 4217TIP3   OH234065   2.846   4.136   5.295  0.2791  0.4167  0.1369
 4217TIP3    H134066   2.847   4.068   5.228  1.8000 -0.1545  0.6883
 4217TIP3    H234067   2.846   4.218   5.245 -0.1308  0.0093 -0.5462
 4218TIP3   OH234068   3.813   6.272  14.177  0.6380 -0.2006  0.3008
 4218TIP3    H134069   3.792   6.267  14.270  1.0164 -0.8448  0.3559
 4218TIP3    H234070   3.878   6.203  14.164 -0.1126 -0.7464 -0.6337
 4219TIP3   OH234071   2.589   4.968  16.396 -0.7826 -0.5179  0.7232
 4219TIP3    H134072   2.675   5.003  16.420 -0.3583 -1.2525  0.2864
 4219TIP3    H234073   2.595   4.950  16.303 -1.3468 -0.7689  0.7323
 4220TIP3   OH234074   1.489   3.998   3.781 -0.3707  0.0397  0.4758
 4220TIP3    H134075   1.420   3.933   3.770 -1.3821  0.6922  2.5054
 4220TIP3    H234076   1.570   3.948   3.779 -1.1002 -1.2512  1.6225
 4221TIP3   OH234077   6.332   2.965  13.809  0.3428  0.1300  0.3698
 4221TIP3    H134078   6.329   2.871  13.825 -0.9175 -0.1988 -1.4327
 4221TIP3    H234079   6.321   2.973  13.714  1.4256  2.0692  0.3545
 4222TIP3   OH234080   4.543   4.757  16.625  0.3340 -0.8755  0.0728
 4222TIP3    H134081   4.619   4.786  16.677 -0.9951  1.5557  0.8504
 4222TIP3    H234082   4.568   4.671  16.592  3.1548 -0.4663  0.8378
 4223TIP3   OH234083   6.168   1.767  10.775  0.3634 -0.2250 -0.5796
 4223TIP3    H134084   6.180   1.862  10.776  1.2636 -0.3408 -0.1546
 4223TIP3    H234085   6.074   1.755  10.793  0.3722  0.5649  0.0617
 4224TIP3   OH234086   4.646   5.931   2.572 -0.1782 -0.0219  0.2579
 4224TIP3    H134087   4.650   5.900   2.662 -0.1800  0.3554  0.3923
 4224TIP3    H234088   4.716   5.996   2.566 -0.6803  0.5260  0.2174
 4225TIP3   OH234089   6.716   6.782   4.489  1.2481  0.0869 -0.2709
 4225TIP3    H134090   6.800   6.812   4.525  1.3005 -0.4995  0.1085
 4225TIP3    H234091   6.740   6.732   4.412  1.1804  0.7358 -0.7192
 4226TIP3   OH234092   4.908   5.611  15.585 -0.1620 -0.3553  0.1036
 4226TIP3    H134093   4.988   5.608  15.638 -0.1931 -0.2284  0.1586
 4226TIP3    H234094   4.922   5.684  15.525 -0.3775 -0.1203  0.3384
 4227TIP3   OH234095   1.260   5.325   0.603  0.8875 -0.4460  0.1829
 4227TIP3    H134096   1.226   5.272   0.530  1.1058  1.6505 -1.5431
 4227TIP3    H234097   1.337   5.276   0.633  0.6945 -1.4568 -0.8767
 4228TIP3   OH234098   4.615   5.916  14.698  0.5845 -0.8943  0.1507
 4228TIP3    H134099   4.635   5.895  14.607 -0.9525  0.0282 -0.4465
 4228TIP3    H234100   4.620   5.833  14.744  0.3110 -1.5787 -1.0047
 4229TIP3   OH234101   0.147   6.766  11.384  0.2956 -0.5815 -0.2428
 4229TIP3    H134102   0.052   6.758  11.389 -0.0698  2.7614  0.5288
 4229TIP3    H234103   0.163   6.810  11.300  0.4264  4.1761  1.9199
 4230TIP3   OH234104   4.496   3.146  13.036 -0.5991  0.4432 -0.7749
 4230TIP3    H134105   4.535   3.076  13.087 -2.1688 -0.0872 -0.2405
 4230TIP3    H234106   4.420   3.106  12.994 -1.1892  1.6769 -0.9334
 4231TIP3   OH234107   5.621   5.720   5.736 -0.5777 -0.5790 -0.0406
 4231TIP3    H134108   5.572   5.684   5.810 -0.7491 -1.5363 -0.6122
 4231TIP3    H234109   5.615   5.653   5.668  1.0806 -0.4867 -0.3080
 4232TIP3   OH234110   3.496   1.349   6.643  0.4594 -0.2406 -0.0685
 4232TIP3    H134111   3.496   1.264   6.687  0.5572  1.0948  2.7391
 4232TIP3    H234112   3.588   1.367   6.625  0.5842 -0.1402  0.6354
 4233TIP3   OH234113   4.243   5.857   2.103 -0.0818 -0.3154  0.0400
 4233TIP3    H134114   4.318   5.914   2.085  0.1908 -0.3027  1.1609
 4233TIP3    H234115   4.276   5.769   2.086 -0.2208 -0.2169 -0.7699
 4234TIP3   OH234116   6.598   2.547  14.226 -0.4887 -0.4116  0.6257
 4234TIP3    H134117   6.693   2.531  14.231 -0.2962  0.6682  0.8988
 4234TIP3    H234118   6.562   2.467  14.189  0.8510  0.1910 -2.2241
 4235TIP3   OH234119   6.636   3.454  12.931  0.2868  0.5039  0.1105
 4235TIP3    H134120   6.563   3.392  12.927  1.2425 -0.7260  0.9863
 4235TIP3    H234121   6.647   3.484  12.840  0.5165 -1.5017 -0.5807
 4236TIP3   OH234122   3.414   1.796  17.072  0.4417  0.7137 -0.5685
 4236TIP3    H134123   3.397   1.837  16.987 -0.4583  0.9284 -0.3069
 4236TIP3    H234124   3.327   1.790  17.113  0.5684 -1.2267 -0.4872
 4237TIP3   OH234125   4.901   1.040  11.848  0.5340 -0.0802 -0.0655
 4237TIP3    H134126   4.936   1.106  11.788  0.4284  1.8532  1.8642
 4237TIP3    H234127   4.978   0.989  11.873  1.4138  1.7606  1.2658
 4238TIP3   OH234128   6.424   4.711   3.826 -0.3688  0.5314  0.2109
 4238TIP3    H134129   6.393   4.800   3.815 -1.2904  0.0545 -1.3334
 4238TIP3    H234130   6.505   4.707   3.775 -1.2565  0.0531 -1.2347
 4239TIP3   OH234131   5.720   1.548   1.278 -0.1787 -0.4703  0.4588
 4239TIP3    H134132   5.785   1.601   1.232  0.5887 -0.6549  1.3173
 4239TIP3    H234133   5.639   1.562   1.228  0.6324 -0.7154 -0.9879
 4240TIP3   OH234134   3.799   2.937   4.240 -0.2862 -0.2919  0.2250
 4240TIP3    H134135   3.761   3.022   4.219 -1.5950 -0.8456  0.2318
 4240TIP3    H234136   3.725   2.885   4.272  0.8809 -0.7506  2.3831
 4241TIP3   OH234137   2.019   5.465   2.676  0.7859  0.4647  0.0594
 4241TIP3    H134138   1.991   5.548   2.636  3.0132 -0.0625 -2.9906
 4241TIP3    H234139   1.938   5.422   2.701 -0.6248  2.2198 -1.2223
 4242TIP3   OH234140   3.117   0.411   3.301 -0.2767 -0.1855 -0.0186
 4242TIP3    H134141   3.141   0.356   3.226 -0.9240  0.5919 -0.8192
 4242TIP3    H234142   3.048   0.468   3.267 -0.3266  0.4237  1.0793
 4243TIP3   OH234143   4.443   2.231  13.494 -0.4677 -0.3608  0.1343
 4243TIP3    H134144   4.461   2.241  13.588 -0.9075 -0.6281  0.2486
 4243TIP3    H234145   4.380   2.300  13.475  1.4618  1.3402 -0.5148
 4244TIP3   OH234146   5.841   1.714  16.402  0.6896  0.5699  0.1632
 4244TIP3    H134147   5.865   1.785  16.462  1.8673  0.9276 -0.6708
 4244TIP3    H234148   5.905   1.645  16.420 -1.0858 -0.7562  1.6943
 4245TIP3   OH234149   5.153   1.536   1.656 -0.4139 -0.2508 -0.3819
 4245TIP3    H134150   5.207   1.599   1.706  1.8119 -0.6233 -2.1436
 4245TIP3    H234151   5.140   1.463   1.716 -0.7512  0.7444  0.7944
 4246TIP3   OH234152   5.519   5.946  11.972 -0.2692 -0.1455 -0.4481
 4246TIP3    H134153   5.535   5.864  12.018 -0.2384  0.3003  0.3593
 4246TIP3    H234154   5.431   5.972  11.999 -1.1310 -0.9385 -2.3215
 4247TIP3   OH234155   4.507   4.951   5.021 -0.1174 -0.3950  0.3130
 4247TIP3    H134156   4.503   4.894   5.098 -1.5632 -2.9824 -1.5167
 4247TIP3    H234157   4.423   4.997   5.021 -0.7683 -1.5324 -0.4552
 4248TIP3   OH234158   5.845   1.200  16.746  0.1483  0.2337  0.2442
 4248TIP3    H134159   5.939   1.210  16.760  0.5079 -0.7008 -1.3138
 4248TIP3    H234160   5.821   1.271  16.687  0.0774 -0.1262 -0.1633
 4249TIP3   OH234161   5.552   2.583  12.337 -0.2183  0.1120 -0.0695
 4249TIP3    H134162   5.483   2.646  12.356 -0.2150  0.6212 -1.6417
 4249TIP3    H234163   5.542   2.516  12.406 -0.1905  1.7922  1.6546
 4250TIP3   OH234164   2.968   6.531   3.922 -0.3571 -0.0317  0.3780
 4250TIP3    H134165   3.000   6.489   3.842  2.5997  0.5998  1.1414
 4250TIP3    H234166   2.922   6.609   3.892 -1.9484 -1.3317 -0.7931
 4251TIP3   OH234167   0.633   1.481   1.377  0.2771 -0.1238 -0.3250
 4251TIP3    H134168   0.564   1.490   1.312  0.6228  1.5536 -0.5040
 4251TIP3    H234169   0.590   1.442   1.453 -0.4140 -0.9038 -1.1037
 4252TIP3   OH234170   4.075   5.223  16.719  0.2962  0.6442 -0.0976
 4252TIP3    H134171   4.079   5.249  16.627  1.0591 -1.0725 -0.5936
 4252TIP3    H234172   3.995   5.169  16.725  0.3274  0.6299  0.2121
 4253TIP3   OH234173   4.459   5.924   1.189  0.1587 -0.1965  0.2205
 4253TIP3    H134174   4.526   5.867   1.227  0.9543  0.5785  0.0286
 4253TIP3    H234175   4.435   5.983   1.260  0.2139 -0.0101  0.0848
 4254TIP3   OH234176   1.700   5.935  14.844  0.0301 -0.3218 -0.0227
 4254TIP3    H134177   1.704   5.882  14.924  0.0839 -0.7183 -0.2837
 4254TIP3    H234178   1.790   5.965  14.830 -0.5532  2.7530  2.0311
 4255TIP3   OH234179   1.140   2.357   0.897 -0.0492  0.0504 -0.5269
 4255TIP3    H134180   1.230   2.390   0.900 -0.1786  0.3319  0.8715
 4255TIP3    H234181   1.090   2.427   0.855  0.2516  0.2317 -0.5845
 4256TIP3   OH234182   4.371   4.744  11.395 -0.0295  0.3229 -0.6726
 4256TIP3    H134183   4.327   4.810  11.449  0.3451 -0.0469  0.1136
 4256TIP3    H234184   4.433   4.702  11.455 -1.8875 -2.3849 -0.4245
 4257TIP3   OH234185   3.529   2.922  13.262  0.2131  0.3225  0.1325
 4257TIP3    H134186   3.577   2.905  13.344 -0.4179 -3.0751 -0.0575
 4257TIP3    H234187   3.438   2.931  13.289  0.1357  0.2342 -0.0974
 4258TIP3   OH234188   4.341   2.536   1.733 -0.2587 -0.1833 -0.0437
 4258TIP3    H134189   4.338   2.477   1.808 -1.0397 -2.4840 -1.7654
 4258TIP3    H234190   4.432   2.566   1.729 -0.3224  0.3991  2.0647
 4259TIP3   OH234191   6.049   3.922  14.454  0.1425  0.0632  0.1124
 4259TIP3    H134192   6.010   3.951  14.536 -0.5628 -0.2149 -0.1199
 4259TIP3    H234193   6.142   3.911  14.474  0.3693  2.0139  0.3331
 4260TIP3   OH234194   6.741   1.179  13.342  0.0427 -0.1748  0.0353
 4260TIP3    H134195   6.698   1.219  13.417  0.4814 -3.9134  2.5732
 4260TIP3    H234196   6.709   1.089  13.340  3.2976 -1.4994 -1.5314
 4261TIP3   OH234197   6.538   2.036  11.598  0.0649  0.2392 -0.0801
 4261TIP3    H134198   6.482   2.091  11.653  1.1061  1.6224 -0.3314
 4261TIP3    H234199   6.477   1.992  11.538 -0.7956  1.4133 -0.1069
 4262TIP3   OH234200   4.941   4.927  16.536  0.5884 -0.1330  0.1003
 4262TIP3    H134201   4.888   4.983  16.479  0.1918  0.2243  0.8069
 4262TIP3    H234202   4.943   4.842  16.491 -0.8184 -0.2418  0.1853
 4263TIP3   OH234203   6.464   0.758  14.866  0.0539 -0.1843 -0.0738
 4263TIP3    H134204   6.380   0.768  14.911  0.6234 -0.1677  1.0186
 4263TIP3    H234205   6.507   0.685  14.911  0.0973 -1.0602 -1.4710
 4264TIP3   OH234206   1.151   1.676  16.083 -0.2753  0.4209  0.0439
 4264TIP3    H134207   1.089   1.670  16.156 -0.0864  0.0511  0.1809
 4264TIP3    H234208   1.226   1.723  16.119  0.9870 -2.0860  0.9481
 4265TIP3   OH234209   2.270   1.570  13.560 -0.5210 -0.3766 -0.1338
 4265TIP3    H134210   2.304   1.522  13.484 -0.4400 -0.9642  0.2698
 4265TIP3    H234211   2.193   1.521  13.587 -0.3162 -0.3989  0.4171
 4266TIP3   OH234212   2.622   5.631  15.600 -0.0981  0.4123  0.8969
 4266TIP3    H134213   2.717   5.643  15.602  0.3282 -2.2433  0.1422
 4266TIP3    H234214   2.587   5.718  15.583  2.3246  1.1052 -0.9796
 4267TIP3   OH234215   3.255   1.805  16.438 -0.3951  0.6158  0.0299
 4267TIP3    H134216   3.264   1.790  16.344  1.9074  0.8738  0.1508
 4267TIP3    H234217   3.306   1.884  16.455 -1.8729  1.3405  1.3234
 4268TIP3   OH234218   2.468   3.329   1.847 -0.1359 -0.5139 -0.6468
 4268TIP3    H134219   2.548   3.296   1.889 -0.2187  0.0313 -0.0432
 4268TIP3    H234220   2.397   3.284   1.893 -0.4169  2.3972  2.1206
 4269TIP3   OH234221   1.941   1.599  15.002 -0.7955 -0.1168  0.9136
 4269TIP3    H134222   1.998   1.629  15.072  0.3443 -0.9617  0.3805
 4269TIP3    H234223   1.987   1.523  14.964 -2.9100 -1.7067  1.3599
 4270TIP3   OH234224   1.333   6.134  13.550 -0.6084  0.7310 -0.1181
 4270TIP3    H134225   1.325   6.228  13.568  0.4403  0.8923 -0.4354
 4270TIP3    H234226   1.316   6.093  13.635  0.6118  1.3107  0.4452
 4271TIP3   OH234227   4.403   6.480  13.800 -0.0193  0.5686  0.4005
 4271TIP3    H134228   4.498   6.492  13.803 -0.0481  0.9007  0.0284
 4271TIP3    H234229   4.390   6.401  13.748  0.0618  0.3863  0.6560
 4272TIP3   OH234230   5.672   6.447  15.203 -0.5578 -0.1781 -0.1595
 4272TIP3    H134231   5.742   6.394  15.240 -1.1527 -0.7245  0.2162
 4272TIP3    H234232   5.716   6.522  15.163  0.2913 -0.8852 -0.5736
 4273TIP3   OH234233   1.785   6.533   3.253 -0.9020  0.2094  0.1289
 4273TIP3    H134234   1.795   6.544   3.158  0.2045  0.7812  0.2872
 4273TIP3    H234235   1.867   6.566   3.289 -0.6602 -1.4438  1.2017
 4274TIP3   OH234236   0.317   3.671  14.512  0.1709 -0.0016 -0.0085
 4274TIP3    H134237   0.400   3.716  14.521 -0.4895  0.9529  1.8910
 4274TIP3    H234238   0.333   3.583  14.547  0.9257 -0.6126 -1.7905
 4275TIP3   OH234239   3.568   2.397   5.405  0.2795  0.0751  0.2654
 4275TIP3    H134240   3.641   2.395   5.343 -0.1522  0.0450 -0.2505
 4275TIP3    H234241   3.499   2.446   5.360  0.4177  1.2135  1.2435
 4276TIP3   OH234242   4.490   0.622   0.538 -0.2686  0.6090 -0.0136
 4276TIP3    H134243   4.403   0.583   0.545 -0.1614  0.5643  1.4332
 4276TIP3    H234244   4.484   0.681   0.463 -1.2227 -0.1935 -0.5964
 4277TIP3   OH234245   6.671   0.049  12.398  0.0159 -0.1680 -0.2936
 4277TIP3    H134246   6.721   0.125  12.368 -1.9962  1.1353 -0.5548
 4277TIP3    H234247   6.664   0.060  12.493 -0.1255 -0.1078 -0.3099
 4278TIP3   OH234248   3.729   5.240  14.526  0.7557  0.0670 -0.4198
 4278TIP3    H134249   3.682   5.183  14.586  0.6435  0.3416 -0.2501
 4278TIP3    H234250   3.793   5.182  14.484  0.5026 -0.2297 -0.3993
 4279TIP3   OH234251   5.281   2.510   3.305  0.2786 -0.5330  0.1319
 4279TIP3    H134252   5.372   2.508   3.275 -0.3555  1.1688 -2.2307
 4279TIP3    H234253   5.241   2.432   3.266  0.3643 -0.3893 -0.2511
 4280TIP3   OH234254   2.806   5.792  14.058  0.2323 -0.1972 -0.0302
 4280TIP3    H134255   2.892   5.833  14.064  0.0186  0.1769  0.6146
 4280TIP3    H234256   2.823   5.707  14.017  0.7535  0.3016 -0.8734
 4281TIP3   OH234257   3.617   5.014  12.232 -0.7817  1.0586  0.2564
 4281TIP3    H134258   3.603   4.971  12.316  2.8063  0.5567  0.7395
 4281TIP3    H234259   3.624   4.943  12.169  1.4020  1.0598  0.4282
 4282TIP3   OH234260   0.165   5.405  13.392  0.5547 -0.3106 -0.0838
 4282TIP3    H134261   0.227   5.449  13.450  0.9847  0.3431 -1.0106
 4282TIP3    H234262   0.091   5.383  13.449 -0.6914  3.5446  0.0837
 4283TIP3   OH234263   0.885   0.857  13.418 -0.5753 -0.0983  0.3047
 4283TIP3    H134264   0.949   0.820  13.358 -1.7737 -0.8903 -0.5317
 4283TIP3    H234265   0.890   0.952  13.404 -0.1161 -0.2097 -0.2834
 4284TIP3   OH234266   4.100   3.412  13.104 -0.6094  0.0777  0.1737
 4284TIP3    H134267   4.091   3.320  13.079 -1.0565 -0.2138  1.3348
 4284TIP3    H234268   4.039   3.459  13.048  0.0508 -0.2474 -0.8408
 4285TIP3   OH234269   0.976   1.247  16.692 -0.3635  0.0293 -0.0017
 4285TIP3    H134270   0.929   1.198  16.759 -0.9632  0.8827  0.2259
 4285TIP3    H234271   0.910   1.265  16.625  0.0973 -0.3434 -0.5615
 4286TIP3   OH234272   1.780   2.417   3.718 -0.1215  0.0518  0.3692
 4286TIP3    H134273   1.839   2.484   3.684  1.6058 -1.8703 -0.6532
 4286TIP3    H234274   1.705   2.418   3.658  0.5704  0.0937 -0.5153
 4287TIP3   OH234275   2.483   0.394  13.763  0.0600  0.1383  0.7434
 4287TIP3    H134276   2.390   0.404  13.744  0.0321  0.2380  0.9296
 4287TIP3    H234277   2.527   0.434  13.688 -0.0171 -2.2793 -0.7081
 4288TIP3   OH234278   5.313   0.720  12.171  0.3167  0.5137 -0.2648
 4288TIP3    H134279   5.361   0.706  12.253  1.9996 -0.2689 -1.3427
 4288TIP3    H234280   5.372   0.689  12.103 -0.7084  1.9392 -1.8669
 4289TIP3   OH234281   0.518   3.520  16.093 -0.4066 -0.1298 -0.8157
 4289TIP3    H134282   0.552   3.548  16.178 -0.4820 -0.0290 -0.8197
 4289TIP3    H234283   0.521   3.424  16.097  0.9883 -0.1217 -1.2605
 4290TIP3   OH234284   3.325   1.549   5.129  0.1116 -0.2018  0.0464
 4290TIP3    H134285   3.413   1.569   5.160  0.0650  1.1128 -0.5916
 4290TIP3    H234286   3.267   1.577   5.201  0.1062  1.0784 -0.4353
 4291TIP3   OH234287   1.760   4.264  14.318  0.0729  0.2486 -0.2918
 4291TIP3    H134288   1.682   4.318  14.306 -0.2140 -0.0537  0.1826
 4291TIP3    H234289   1.757   4.237  14.409 -1.2737 -2.8118 -1.1156
 4292TIP3   OH234290   1.787   0.882  15.281  0.0996 -0.3226 -0.5422
 4292TIP3    H134291   1.713   0.923  15.235  0.5870 -1.6407 -2.6786
 4292TIP3    H234292   1.747   0.821  15.342 -0.5853  1.6564  1.0923
 4293TIP3   OH234293   3.254   0.588  13.945  0.6976 -0.1026  0.0186
 4293TIP3    H134294   3.284   0.674  13.913  0.9008 -0.7140 -1.4819
 4293TIP3    H234295   3.160   0.588  13.927  0.7889 -0.3950 -0.4629
 4294TIP3   OH234296   4.872   5.639  16.946 -0.1359  0.0419  0.1685
 4294TIP3    H134297   4.945   5.612  16.890 -1.3193  0.1716 -1.5171
 4294TIP3    H234298   4.827   5.558  16.969  0.4043 -0.0212  1.0591
 4295TIP3   OH234299   0.750   6.164  13.646  0.0995 -0.1945 -0.2304
 4295TIP3    H134300   0.782   6.254  13.636  0.2381 -0.1457  0.5595
 4295TIP3    H234301   0.821   6.118  13.691 -0.9303 -0.0611  1.6318
 4296TIP3   OH234302   5.778   5.319  16.389  0.4658  0.3023 -0.7895
 4296TIP3    H134303   5.853   5.329  16.331  0.2876  0.8620 -0.9312
 4296TIP3    H234304   5.812   5.339  16.476  0.7164 -0.4668 -0.7045
 4297TIP3   OH234305   0.046   1.829   1.457 -0.3063  0.0704 -0.2640
 4297TIP3    H134306   0.075   1.882   1.382  0.7245 -0.1835 -0.0646
 4297TIP3    H234307  -0.028   1.778   1.423 -0.9649  1.2114 -0.6147
 4298TIP3   OH234308   0.131   0.436  13.575 -0.3392 -0.0458  0.2589
 4298TIP3    H134309   0.076   0.435  13.653 -0.4593 -0.6780  0.1681
 4298TIP3    H234310   0.220   0.446  13.609 -0.5661  2.2566  0.3567
 4299TIP3   OH234311   5.564   4.682  11.406 -0.0962  0.1395 -0.3830
 4299TIP3    H134312   5.571   4.595  11.367 -1.3689 -0.3811  0.4911
 4299TIP3    H234313   5.522   4.735  11.338 -0.5723 -0.2865 -0.4290
 4300TIP3   OH234314   4.567   4.285   0.749 -0.0491 -0.8457 -0.5423
 4300TIP3    H134315   4.484   4.237   0.754 -0.3460 -0.2749  0.2376
 4300TIP3    H234316   4.606   4.256   0.667 -1.5817 -0.2312 -1.5492
 4301TIP3   OH234317   0.673   6.811  12.232  0.6929 -0.1765  0.0474
 4301TIP3    H134318   0.687   6.729  12.184  1.3092  0.1718 -0.3777
 4301TIP3    H234319   0.594   6.795  12.284  0.7854 -1.0231 -0.0615
 4302TIP3   OH234320   3.352   0.875  14.392 -0.3081  0.0930  0.1900
 4302TIP3    H134321   3.369   0.964  14.424 -0.8797 -0.1160  1.1122
 4302TIP3    H234322   3.333   0.825  14.471 -1.6705 -0.4703 -0.4651
 4303TIP3   OH234323   5.242   5.093   0.567 -0.2084 -0.3188 -0.1403
 4303TIP3    H134324   5.168   5.154   0.559 -1.3577 -1.5071  0.8589
 4303TIP3    H234325   5.287   5.121   0.647 -0.9157 -0.9018  0.4906
 4304TIP3   OH234326   0.588   2.954   3.536  0.6071 -0.3205  0.3872
 4304TIP3    H134327   0.571   3.035   3.584  2.4280  0.0710  0.4520
 4304TIP3    H234328   0.660   2.912   3.584 -0.5813 -2.2330  0.6238
 4305TIP3   OH234329   0.907   3.463   4.945 -0.2919  0.4846 -0.5996
 4305TIP3    H134330   0.947   3.444   4.860 -1.0012 -1.0964 -0.6127
 4305TIP3    H234331   0.816   3.436   4.935 -0.1715 -0.6365  0.9290
 4306TIP3   OH234332   0.280   5.285  12.606 -0.0025  0.5485 -0.4480
 4306TIP3    H134333   0.325   5.248  12.682 -1.7314  1.6946  1.2170
 4306TIP3    H234334   0.188   5.267  12.621 -0.4767  1.7295 -1.7529
 4307TIP3   OH234335   6.266   0.137  16.220  0.1326 -0.5938 -0.2898
 4307TIP3    H134336   6.204   0.199  16.259  1.6971  2.2660 -1.9630
 4307TIP3    H234337   6.349   0.156  16.263  0.1856 -3.7448  1.2959
 4308TIP3   OH234338   2.152   3.277   6.263  0.1377  0.2501  0.0298
 4308TIP3    H134339   2.228   3.228   6.231  0.0069 -0.1848  0.3752
 4308TIP3    H234340   2.190   3.355   6.306  0.2837  1.3450 -1.9754
 4309TIP3   OH234341   5.866   6.014  12.916  0.2311  0.2636 -0.1391
 4309TIP3    H134342   5.794   5.962  12.879 -0.0705  0.7148 -0.1936
 4309TIP3    H234343   5.920   5.950  12.962  1.1304 -0.4802 -2.1019
 4310TIP3   OH234344   4.291   0.247   2.095  0.2122  0.5771 -0.0691
 4310TIP3    H134345   4.214   0.192   2.107 -0.1796  1.5427  2.4634
 4310TIP3    H234346   4.261   0.335   2.115  1.7705  1.1227  0.0274
 4311TIP3   OH234347   0.005   4.541   1.148  0.1122  0.4584  0.4226
 4311TIP3    H134348  -0.047   4.460   1.150 -1.2033  1.2926  1.2384
 4311TIP3    H234349  -0.059   4.610   1.128  1.4277  1.1784 -1.6294
 4312TIP3   OH234350   5.094   2.648   4.345  0.0657 -0.2506 -0.4233
 4312TIP3    H134351   5.045   2.629   4.425 -1.8990 -0.6227 -1.6519
 4312TIP3    H234352   5.159   2.713   4.372 -0.4996 -0.4091  1.4759
 4313TIP3   OH234353   2.100   2.803   0.259  0.2525 -0.3649  0.1412
 4313TIP3    H134354   2.052   2.877   0.220 -0.9985 -1.7517 -1.1122
 4313TIP3    H234355   2.053   2.785   0.341  0.7830  0.4329  0.6315
 4314TIP3   OH234356   6.379   6.445  16.434  0.2937 -0.1847 -0.0880
 4314TIP3    H134357   6.286   6.445  16.458  0.4603 -0.4096  0.5741
 4314TIP3    H234358   6.406   6.536  16.441  0.3123 -0.2320  0.4733
 4315TIP3   OH234359   5.780   0.245  16.405 -0.3733  0.2488  0.2612
 4315TIP3    H134360   5.733   0.161  16.410  1.8540 -1.1909 -1.0634
 4315TIP3    H234361   5.846   0.239  16.475  0.1116  0.6473 -0.1531
 4316TIP3   OH234362   2.706   0.357   1.981 -0.3695 -0.2983  0.0549
 4316TIP3    H134363   2.637   0.402   2.029  1.0298  0.9867  0.9522
 4316TIP3    H234364   2.737   0.421   1.918  1.8906  0.2446  1.5840
 4317TIP3   OH234365   1.589   2.090  16.054  0.5961  0.2231 -0.5168
 4317TIP3    H134366   1.532   2.015  16.068  0.1549  0.2481 -1.9732
 4317TIP3    H234367   1.529   2.165  16.050  0.9748  0.5822  0.3091
 4318TIP3   OH234368   1.380   5.381   1.007 -0.1109  0.3587 -0.3952
 4318TIP3    H134369   1.368   5.286   0.996  1.0774  0.2049 -0.5469
 4318TIP3    H234370   1.442   5.389   1.080 -0.3505  1.0284 -0.2603
 4319TIP3   OH234371   0.030   3.675  15.256 -0.2496  0.3189  0.5722
 4319TIP3    H134372  -0.062   3.700  15.256 -0.7573 -1.4284  0.1230
 4319TIP3    H234373   0.054   3.674  15.163  0.0894  0.3173  0.6596
 4320TIP3   OH234374   0.730   0.356  11.840 -0.2762  0.0597  0.6404
 4320TIP3    H134375   0.815   0.351  11.795 -0.9212 -1.8130 -0.4833
 4320TIP3    H234376   0.742   0.300  11.918 -0.2025  0.5718  1.0027
 4321TIP3   OH234377   6.264   0.616  16.912  0.1154  0.5908 -0.0628
 4321TIP3    H134378   6.250   0.538  16.859 -1.1165 -0.2084  1.3717
 4321TIP3    H234379   6.177   0.638  16.946  0.8366  1.1117  1.5546
 4322TIP3   OH234380   5.257   0.670   3.287  0.2600 -0.1299 -0.4774
 4322TIP3    H134381   5.277   0.751   3.334  0.0952 -0.2407 -0.2127
 4322TIP3    H234382   5.212   0.698   3.207  1.7664  0.1433 -1.2575
 4323TIP3   OH234383   1.948   0.127   0.504 -0.3612  0.0884 -0.8395
 4323TIP3    H134384   1.982   0.209   0.540 -2.7635 -0.1894  2.4933
 4323TIP3    H234385   1.985   0.122   0.416  3.1267  2.6930  0.2697
 4324TIP3   OH234386   5.180   0.998   0.728 -0.3468 -0.2245  0.3044
 4324TIP3    H134387   5.200   1.016   0.820 -1.7273 -0.8959  0.7740
 4324TIP3    H234388   5.128   0.918   0.730  0.7625 -1.0339 -1.2101
 4325TIP3   OH234389   0.829   4.295  15.999 -0.4285 -0.1920 -0.5145
 4325TIP3    H134390   0.741   4.319  15.970 -0.9741 -1.2165  0.2443
 4325TIP3    H234391   0.856   4.225  15.940 -0.5219 -0.5495 -0.1350
 4326TIP3   OH234392   0.775   0.910   0.780 -0.0947 -0.4259 -0.1430
 4326TIP3    H134393   0.767   0.894   0.874 -0.1465 -0.2689 -0.1212
 4326TIP3    H234394   0.842   0.848   0.751  0.5882  0.1705  0.1612
 4327TIP3   OH234395   1.862   3.862  11.002 -0.2204  1.2926  0.2676
 4327TIP3    H134396   1.942   3.885  11.049 -0.9114  0.2449  2.0676
 4327TIP3    H234397   1.891   3.805  10.930  0.7054  1.4008  0.5523
 4328TIP3   OH234398   6.035   2.173  11.769 -0.1684 -1.0493  0.0210
 4328TIP3    H134399   5.945   2.141  11.778 -0.6833 -0.8523 -3.0504
 4328TIP3    H234400   6.034   2.259  11.812 -1.6873 -0.7275 -0.5682
 4329TIP3   OH234401   0.399   2.745  15.014  0.4950  0.2823  0.3501
 4329TIP3    H134402   0.341   2.787  15.078 -0.7849  1.0875 -1.2695
 4329TIP3    H234403   0.341   2.708  14.948  1.7450 -1.3645  0.0993
 4330TIP3   OH234404   3.755   5.926  14.061  0.4506  0.1547  0.5371
 4330TIP3    H134405   3.811   5.990  14.018 -1.0696 -0.0804 -1.9794
 4330TIP3    H234406   3.675   5.975  14.083  1.1379  0.2599  3.2223
 4331TIP3   OH234407   6.637   4.144   2.241 -0.5096 -0.1269 -0.3633
 4331TIP3    H134408   6.615   4.123   2.150 -1.6363  0.0042 -0.1336
 4331TIP3    H234409   6.563   4.111   2.291  0.4201 -0.8314  0.5942
 4332TIP3   OH234410   5.927   1.982   4.142 -0.4789 -0.0145 -0.3167
 4332TIP3    H134411   6.015   1.968   4.177 -0.6559  2.2529  1.2813
 4332TIP3    H234412   5.872   1.921   4.192 -0.2733  1.0203  1.2481
 4333TIP3   OH234413   4.435   2.491  14.406 -0.2260  0.4323 -0.3000
 4333TIP3    H134414   4.404   2.510  14.495 -0.4432 -1.6081  0.1009
 4333TIP3    H234415   4.526   2.521  14.406 -0.4787  1.2334  0.3339
 4334TIP3   OH234416   5.775   6.639   3.076  0.0939 -0.1220 -0.0861
 4334TIP3    H134417   5.711   6.686   3.130  0.0536  0.2102 -0.4167
 4334TIP3    H234418   5.789   6.556   3.121  0.6418  0.4639  0.8540
 4335TIP3   OH234419   5.504   3.840  13.862  0.1069 -0.0685  0.3537
 4335TIP3    H134420   5.484   3.897  13.787 -0.7740 -0.2616  0.4350
 4335TIP3    H234421   5.491   3.751  13.828  0.0777 -0.1673  0.6264
 4336TIP3   OH234422   3.653   2.064  16.812  0.1241 -0.2704  0.5520
 4336TIP3    H134423   3.627   2.148  16.851 -0.3546  0.0991 -0.5309
 4336TIP3    H234424   3.579   2.039  16.758  0.5036 -1.1154  0.4161
 4337TIP3   OH234425   2.830   0.081  15.812 -0.1584 -0.6935  0.2338
 4337TIP3    H134426   2.735   0.068  15.814 -0.7096  2.5248  0.1160
 4337TIP3    H234427   2.853   0.071  15.719 -0.5486 -0.6425  0.1271
 4338TIP3   OH234428   0.645   2.996   5.845 -0.1337 -0.3893 -0.1983
 4338TIP3    H134429   0.581   3.028   5.909 -0.6730  0.1698 -0.9898
 4338TIP3    H234430   0.722   3.050   5.857 -0.4379  0.0923 -0.3904
 4339TIP3   OH234431   0.975   5.088  15.216  0.2331 -0.3436 -0.1099
 4339TIP3    H134432   1.031   5.018  15.184  1.0587  0.8183 -1.3232
 4339TIP3    H234433   0.892   5.075  15.170  0.0041 -1.1514  0.5078
 4340TIP3   OH234434   3.863   3.877  14.189 -0.3927  0.1863  0.0513
 4340TIP3    H134435   3.847   3.957  14.241  3.1555  1.5236 -0.6679
 4340TIP3    H234436   3.854   3.905  14.098  1.0159 -0.1477 -0.2139
 4341TIP3   OH234437   6.038   3.877   2.012  0.2589  0.3697  0.4332
 4341TIP3    H134438   6.077   3.794   1.985 -0.0814  0.3168  0.0966
 4341TIP3    H234439   5.992   3.857   2.093 -0.2391  0.1127  0.0928
 4342TIP3   OH234440   2.956   3.444   1.828  0.3148  0.3433  0.2134
 4342TIP3    H134441   2.991   3.499   1.898 -0.5045  1.5123 -0.2746
 4342TIP3    H234442   2.950   3.502   1.752  1.5036 -0.9664 -0.9552
 4343TIP3   OH234443   4.743   3.238   5.306 -0.0177 -0.3302  0.3960
 4343TIP3    H134444   4.819   3.259   5.361 -0.9503 -0.5832  1.8141
 4343TIP3    H234445   4.729   3.316   5.253  0.7881 -0.0137  0.6406
 4344TIP3   OH234446   4.022   3.351  14.725 -0.8843  0.1895 -0.3747
 4344TIP3    H134447   4.073   3.292  14.780 -2.7408  0.0494  1.2981
 4344TIP3    H234448   4.071   3.433  14.725 -0.6912  0.0965  1.2492
 4345TIP3   OH234449   6.544   1.368   0.991 -0.4784 -0.3378  0.0204
 4345TIP3    H134450   6.627   1.414   0.979 -0.9138  0.4561 -0.0367
 4345TIP3    H234451   6.527   1.328   0.906 -0.0129 -0.7557  0.1184
 4346TIP3   OH234452   5.441   5.334   5.682 -0.7413  0.0667  0.0072
 4346TIP3    H134453   5.411   5.424   5.667 -1.3157 -0.2520 -0.7896
 4346TIP3    H234454   5.446   5.327   5.777 -0.8373  0.8969  0.0859
 4347TIP3   OH234455   2.151   0.073   4.318  0.1435 -0.3387  0.0802
 4347TIP3    H134456   2.242   0.053   4.297  0.3350  1.0059 -0.5029
 4347TIP3    H234457   2.101   0.037   4.245  0.2503 -0.7176  0.1944
 4348TIP3   OH234458   4.588   3.311   1.223  0.3725 -0.3071  0.3632
 4348TIP3    H134459   4.599   3.406   1.213 -1.1838 -0.1253  0.1143
 4348TIP3    H234460   4.565   3.300   1.315 -2.5483 -0.0605 -0.2636
 4349TIP3   OH234461   5.909   2.106   0.818 -0.1491 -0.7674 -0.0624
 4349TIP3    H134462   5.897   2.016   0.848 -0.6678 -1.2228 -1.5454
 4349TIP3    H234463   5.888   2.103   0.724  1.1203  0.6255 -0.4353
 4350TIP3   OH234464   6.670   2.517   6.163  0.1315 -0.4584 -0.3252
 4350TIP3    H134465   6.697   2.441   6.214  0.6359 -0.3003 -0.3502
 4350TIP3    H234466   6.623   2.572   6.226 -1.3872 -1.3738 -0.6034
 4351TIP3   OH234467   2.949   6.395   0.329 -0.8179  0.4593  0.3697
 4351TIP3    H134468   2.858   6.365   0.335 -1.3196  1.5717 -0.9991
 4351TIP3    H234469   2.957   6.463   0.395 -1.3442  1.1609 -0.2712
 4352TIP3   OH234470   2.852   5.549   3.789 -0.6496  0.7335 -0.2717
 4352TIP3    H134471   2.895   5.465   3.801 -0.6408  0.6834 -0.6544
 4352TIP3    H234472   2.760   5.532   3.806 -0.8338  0.3774 -1.5284
 4353TIP3   OH234473   2.688   2.886   0.164 -0.0556  0.3851 -0.0890
 4353TIP3    H134474   2.629   2.845   0.102  0.0994 -0.1114  0.0840
 4353TIP3    H234475   2.711   2.970   0.124 -0.4081  0.3216 -0.4285
 4354TIP3   OH234476   6.737   0.056   1.232  0.0762 -0.3607  0.2439
 4354TIP3    H134477   6.658   0.034   1.281 -0.6538 -0.4380 -0.9436
 4354TIP3    H234478   6.780   0.122   1.286  0.9915 -2.7100  2.5848
 4355TIP3   OH234479   4.562   5.893  16.164 -0.4464  0.0613  0.5566
 4355TIP3    H134480   4.564   5.935  16.250  1.6174 -0.1176  0.6526
 4355TIP3    H234481   4.654   5.879  16.143 -0.7881  1.6839 -2.4853
 4356TIP3   OH234482   2.906   3.443  15.385 -0.4486  0.1739 -0.3958
 4356TIP3    H134483   2.847   3.510  15.420  0.0984  0.7679 -0.5872
 4356TIP3    H234484   2.849   3.372  15.358 -0.9746  0.2094  0.5935
 4357TIP3   OH234485   5.350   0.940  13.562 -0.4601  0.3369  0.1460
 4357TIP3    H134486   5.384   1.010  13.506 -1.5237  0.5328 -0.2944
 4357TIP3    H234487   5.404   0.943  13.641 -0.2318  1.3893 -0.0351
 4358TIP3   OH234488   1.369   2.884  11.436 -0.4476  0.0434  0.1100
 4358TIP3    H134489   1.275   2.874  11.419 -0.4014 -1.2624  0.4971
 4358TIP3    H234490   1.396   2.955  11.379 -1.3301 -0.7636 -1.3793
 4359TIP3   OH234491   5.532   3.247   0.628 -0.5944 -0.4811 -0.0657
 4359TIP3    H134492   5.616   3.266   0.585 -0.1064  0.5563  1.2574
 4359TIP3    H234493   5.533   3.152   0.642  1.7034 -0.2144  2.4456
 4360TIP3   OH234494   3.940   4.869  12.149  0.3507  0.0200  0.1879
 4360TIP3    H134495   3.981   4.918  12.078  0.2045  0.0776  0.1427
 4360TIP3    H234496   3.970   4.779  12.136 -1.2085 -0.3602 -1.1206
 4361TIP3   OH234497   0.113   3.976   0.275  0.3817  0.2808  0.2929
 4361TIP3    H134498   0.078   4.032   0.344  1.2226 -1.2520  2.0548
 4361TIP3    H234499   0.197   4.015   0.252  0.9860 -0.2234  1.5475
 4362TIP3   OH234500   1.741   0.016   3.293  0.9543 -0.2906  0.2130
 4362TIP3    H134501   1.678  -0.020   3.230 -0.1831  0.1864  1.0421
 4362TIP3    H234502   1.724   0.111   3.293  0.4837 -0.3444  1.6815
 4363TIP3   OH234503   2.223   2.750   5.148  0.2235 -0.2081  0.1329
 4363TIP3    H134504   2.217   2.662   5.183  0.1221  0.0806  0.8520
 4363TIP3    H234505   2.141   2.763   5.101  0.6465 -0.8413 -0.8092
 4364TIP3   OH234506   6.172   4.361   5.602 -0.1870 -0.1787 -0.4260
 4364TIP3    H134507   6.235   4.385   5.670  0.3127 -0.8425 -0.6377
 4364TIP3    H234508   6.175   4.265   5.600  0.0620 -0.1575 -1.6163
 4365TIP3   OH234509   5.077   0.515  15.006  0.2364 -0.2769 -0.6744
 4365TIP3    H134510   5.041   0.592  14.962  0.2564 -0.5171 -1.1184
 4365TIP3    H234511   5.034   0.441  14.963  0.4215 -0.5245 -0.4368
 4366TIP3   OH234512   4.296   4.932   1.584  0.6273  0.4189 -0.2098
 4366TIP3    H134513   4.279   5.002   1.521 -0.7994  1.6476  1.4638
 4366TIP3    H234514   4.390   4.915   1.576  1.2946  3.3877  0.1482
 4367TIP3   OH234515   0.115   1.670  11.714  0.0764  0.4602  0.4646
 4367TIP3    H134516   0.049   1.737  11.702  0.9155  1.3762  0.8334
 4367TIP3    H234517   0.166   1.699  11.790  1.1333 -0.0134 -0.0310
 4368TIP3   OH234518   1.794   1.709   5.823 -0.1295 -0.6896  0.1975
 4368TIP3    H134519   1.830   1.736   5.738 -0.6652 -2.8726 -0.7854
 4368TIP3    H234520   1.699   1.707   5.809 -0.1475 -2.3449  0.4247
 4369TIP3   OH234521   3.360   3.259   5.591  0.3805 -0.0911  0.3574
 4369TIP3    H134522   3.353   3.180   5.537 -0.7121  2.2751 -3.3445
 4369TIP3    H234523   3.276   3.303   5.579  2.1030  3.2426 -0.5423
 4370TIP3   OH234524   0.801   3.285   3.992  0.1817 -0.3941 -0.9533
 4370TIP3    H134525   0.850   3.319   3.918 -0.1151  1.4343 -0.3425
 4370TIP3    H234526   0.867   3.255   4.054  0.4914  0.3057 -0.9396
 4371TIP3   OH234527   3.038   0.555  11.090  0.2944  0.1106 -0.0380
 4371TIP3    H134528   3.066   0.647  11.081  0.5072 -0.1374 -2.9608
 4371TIP3    H234529   3.082   0.510  11.018  1.0902 -2.5785  1.9859
 4372TIP3   OH234530   2.631   4.961  14.013 -0.2199 -0.3268 -0.0212
 4372TIP3    H134531   2.598   4.948  13.924 -0.7216 -2.2298  0.3791
 4372TIP3    H234532   2.652   4.872  14.043  0.5201  0.3453  1.5382
 4373TIP3   OH234533   5.222   0.195  16.849 -0.2212 -0.3135  0.4761
 4373TIP3    H134534   5.312   0.162  16.851 -0.0142  0.2272  0.3413
 4373TIP3    H234535   5.176   0.145  16.916  0.7466  1.0356  2.2205
 4374TIP3   OH234536   0.205   0.219   0.888 -0.7450 -0.1539  0.0955
 4374TIP3    H134537   0.226   0.300   0.843  0.1613  0.9251  2.2789
 4374TIP3    H234538   0.254   0.224   0.970 -1.9975 -2.1348  1.0539
 4375TIP3   OH234539   5.007   6.338   6.336 -0.2091  0.0848 -0.2745
 4375TIP3    H134540   4.936   6.401   6.348  0.2030  0.6284 -0.6279
 4375TIP3    H234541   5.008   6.286   6.416 -1.4915 -0.4288 -0.5648
 4376TIP3   OH234542   1.205   4.436  10.642 -0.4190  0.2808  0.1620
 4376TIP3    H134543   1.184   4.469  10.729 -0.9663 -0.0604  0.1580
 4376TIP3    H234544   1.206   4.515  10.587  2.0563  0.8369  0.8340
 4377TIP3   OH234545   1.924   5.214  13.250 -0.1687 -0.0485 -0.1887
 4377TIP3    H134546   1.987   5.270  13.296 -0.6892 -0.9630  1.7879
 4377TIP3    H234547   1.882   5.271  13.186  0.9415  1.2028  0.1695
 4378TIP3   OH234548   1.454   3.576   3.580  0.3139  0.0989  0.3209
 4378TIP3    H134549   1.495   3.509   3.526  0.8006  0.1042  0.6835
 4378TIP3    H234550   1.365   3.583   3.545  0.1624 -0.9334  0.4527
 4379TIP3   OH234551   3.972   0.461   4.389 -0.1208  0.2102  0.0327
 4379TIP3    H134552   3.886   0.502   4.393  0.1264  0.8323 -0.7014
 4379TIP3    H234553   4.024   0.521   4.335  0.9471  0.1766  0.9958
 4380TIP3   OH234554   2.946   0.731  13.013 -0.6461  0.0240 -0.5357
 4380TIP3    H134555   2.858   0.707  12.986  0.1675 -2.1014 -1.5533
 4380TIP3    H234556   2.993   0.647  13.018  2.0440  1.2533 -2.7459
 4381TIP3   OH234557   0.009   0.533   1.589 -0.3741  0.1741 -0.8044
 4381TIP3    H134558  -0.007   0.614   1.638  0.6789 -1.7343  3.1341
 4381TIP3    H234559  -0.068   0.479   1.607  0.9645 -1.3517  0.6663
 4382TIP3   OH234560   2.443   3.506   4.988  0.1887  0.3199  0.3323
 4382TIP3    H134561   2.471   3.595   4.965  0.0189  0.5011  0.8062
 4382TIP3    H234562   2.468   3.497   5.080 -0.2819  0.0711  0.4373
 4383TIP3   OH234563   3.563   2.826  14.219  0.5012 -0.0926  0.4085
 4383TIP3    H134564   3.491   2.788  14.168 -0.8471  1.6638  0.9117
 4383TIP3    H234565   3.599   2.893  14.162  0.5618  0.2499  0.8481
 4384TIP3   OH234566   4.540   6.474   5.061  0.4105 -0.1405 -0.1024
 4384TIP3    H134567   4.616   6.522   5.029  0.3578 -0.4027 -0.6353
 4384TIP3    H234568   4.527   6.405   4.997 -0.7212  0.3458 -0.4181
 4385TIP3   OH234569   2.204   0.893  12.157  0.4488  0.1526 -0.0446
 4385TIP3    H134570   2.265   0.956  12.196  3.0545 -0.3981 -2.8489
 4385TIP3    H234571   2.158   0.943  12.090  0.1822 -0.1923 -0.1189
 4386TIP3   OH234572   1.556   6.015  10.773 -0.3360  0.1161 -0.7240
 4386TIP3    H134573   1.624   6.044  10.712 -0.3145 -1.1677 -1.3371
 4386TIP3    H234574   1.581   5.926  10.796  0.6604  1.0933  2.6001
 4387TIP3   OH234575   4.144   3.366   2.167 -0.0549 -0.4452  0.2867
 4387TIP3    H134576   4.202   3.428   2.123 -0.8242  0.6395  0.7394
 4387TIP3    H234577   4.110   3.414   2.243  1.6721 -2.4141  2.4555
 4388TIP3   OH234578   3.552   4.012   5.384  0.1646 -0.0967  0.1636
 4388TIP3    H134579   3.557   4.102   5.415 -2.2821  0.2575 -0.2028
 4388TIP3    H234580   3.535   3.961   5.463 -3.6808  0.5163 -0.0470
 4389TIP3   OH234581   3.035   3.224  14.557 -0.0336  0.9954 -0.1091
 4389TIP3    H134582   3.066   3.243  14.646 -2.3189  1.5936  0.6272
 4389TIP3    H234583   3.092   3.277  14.501  0.7437  1.4768  1.0709
 4390TIP3   OH234584   5.888   0.758  13.747  0.3703 -0.2045 -0.1755
 4390TIP3    H134585   5.883   0.853  13.754  1.8202 -0.2090  1.8544
 4390TIP3    H234586   5.879   0.727  13.837 -0.8052 -2.0650 -0.8694
 4391TIP3   OH234587   2.941   2.137   5.671  0.6055  0.6258  0.4011
 4391TIP3    H134588   2.882   2.212   5.669 -1.4222 -0.8546  1.3633
 4391TIP3    H234589   2.947   2.113   5.764 -0.1418 -1.3808 -0.0230
 4392TIP3   OH234590   5.316   4.920   4.226  0.2936  0.3332  0.4424
 4392TIP3    H134591   5.320   5.015   4.220  2.7048  0.2331 -1.7387
 4392TIP3    H234592   5.246   4.894   4.167 -0.1108  0.7324  0.7473
 4393TIP3   OH234593   0.675   4.383  13.340  0.2226  0.7182 -0.4587
 4393TIP3    H134594   0.644   4.473  13.350  1.1730  0.9421  0.6381
 4393TIP3    H234595   0.621   4.332  13.401  0.4141  0.7261 -0.2814
 4394TIP3   OH234596   5.911   4.972   6.228  0.1068 -0.0034 -0.5362
 4394TIP3    H134597   5.950   4.885   6.225  1.7069  0.7035 -1.6215
 4394TIP3    H234598   5.925   5.001   6.318  0.7043 -0.3776 -0.5042
 4395TIP3   OH234599   0.762   4.507  13.100  0.1567  0.4963  0.1253
 4395TIP3    H134600   0.667   4.512  13.108  0.0520 -2.1890  1.4856
 4395TIP3    H234601   0.793   4.483  13.188  2.1833  1.9163 -0.1239
 4396TIP3   OH234602   2.865   4.524  16.799  0.2427 -0.2064 -0.2338
 4396TIP3    H134603   2.834   4.612  16.777 -1.9546 -0.0108  2.9011
 4396TIP3    H234604   2.947   4.539  16.846 -1.3032  0.5700  2.4565
 4397TIP3   OH234605   0.693   5.933  14.943 -0.6416  0.5440  0.5285
 4397TIP3    H134606   0.704   5.985  14.863 -0.8257  3.1165  2.0916
 4397TIP3    H234607   0.656   5.850  14.912 -1.1893  1.6404 -2.0102
 4398TIP3   OH234608   6.144   2.620  12.437 -0.3719  0.0283  0.1867
 4398TIP3    H134609   6.192   2.538  12.449  0.3523  0.4411  0.1485
 4398TIP3    H234610   6.071   2.614  12.499  1.4130  0.6678  2.4998
 4399TIP3   OH234611   0.417   6.014   6.079 -0.2055 -1.0462  0.1426
 4399TIP3    H134612   0.363   6.023   6.001 -1.1451  0.0414  0.8801
 4399TIP3    H234613   0.507   6.018   6.047 -0.5527  1.3069 -0.7368
 4400TIP3   OH234614   4.950   5.122  12.995  0.2391  0.2582 -0.3236
 4400TIP3    H134615   4.971   5.037  12.954  0.0071  0.1011 -0.1199
 4400TIP3    H234616   4.899   5.099  13.072 -0.1487  0.6080 -0.4735
 4401TIP3   OH234617   1.694   0.761   3.485  0.4668  0.1473  0.1539
 4401TIP3    H134618   1.599   0.772   3.486  0.3991 -0.3818  1.2703
 4401TIP3    H234619   1.715   0.742   3.393 -0.2269  2.3418 -0.5259
 4402TIP3   OH234620   3.749   1.762  14.761  0.0064 -0.1210 -0.0393
 4402TIP3    H134621   3.669   1.713  14.743  0.7940 -0.8678 -1.8210
 4402TIP3    H234622   3.816   1.717  14.710  1.2726  1.3610  0.2371
 4403TIP3   OH234623   5.674   2.595  13.291 -0.3397 -0.2994 -0.4207
 4403TIP3    H134624   5.649   2.581  13.200  0.2008  1.8091 -0.9449
 4403TIP3    H234625   5.749   2.538  13.304 -0.2769 -0.4466 -1.3554
 4404TIP3   OH234626   1.214   5.398   5.443 -0.1629  0.1309  0.4725
 4404TIP3    H134627   1.298   5.367   5.476 -0.2374 -0.2326  0.3214
 4404TIP3    H234628   1.182   5.328   5.386 -0.8457  0.0011  0.9978
 4405TIP3   OH234629   3.797   1.596  12.370  0.2065 -0.5185 -0.2781
 4405TIP3    H134630   3.811   1.652  12.293  1.4161 -0.5196 -0.0883
 4405TIP3    H234631   3.719   1.546  12.350  0.2936 -0.2518 -1.3517
 4406TIP3   OH234632   0.609   2.618  14.389 -0.0398  0.0798 -0.1222
 4406TIP3    H134633   0.521   2.641  14.360 -0.2560  0.2880  0.6927
 4406TIP3    H234634   0.665   2.643  14.315 -0.6397  0.0548 -0.5971
 4407TIP3   OH234635   2.627   3.546   4.587  0.5924 -0.0600  0.0304
 4407TIP3    H134636   2.656   3.590   4.667  1.3067 -1.3935  0.5468
 4407TIP3    H234637   2.703   3.549   4.529  0.4089  0.0189 -0.2077
 4408TIP3   OH234638   3.424   2.661  10.785  0.4560 -0.2397 -0.0173
 4408TIP3    H134639   3.436   2.572  10.752  2.8188  0.4572 -1.2633
 4408TIP3    H234640   3.512   2.696  10.794 -0.3790  1.8513  0.8623
 4409TIP3   OH234641   4.550   0.497  12.774 -0.2005  0.2436 -0.3469
 4409TIP3    H134642   4.571   0.466  12.862  1.1646  0.8744 -0.4355
 4409TIP3    H234643   4.617   0.458  12.718 -0.2317  0.9554 -0.8982
 4410TIP3   OH234644   0.626   3.768  12.651  0.0060  0.0891  0.2125
 4410TIP3    H134645   0.560   3.835  12.673 -1.0374 -0.8031 -0.1048
 4410TIP3    H234646   0.616   3.701  12.718  0.6238 -0.0532  0.1690
 4411TIP3   OH234647   4.563   2.662   5.755 -0.2357  0.2269  0.1568
 4411TIP3    H134648   4.626   2.593   5.734  1.5496  2.0530 -0.8559
 4411TIP3    H234649   4.578   2.681   5.848  1.8225  1.6200 -0.4022
 4412TIP3   OH234650   1.070   2.853  11.442  0.2374  0.3223  0.5007
 4412TIP3    H134651   0.988   2.877  11.400  0.7002  1.4066  0.1739
 4412TIP3    H234652   1.047   2.782  11.502 -0.7453 -0.0737 -0.3209
 4413TIP3   OH234653   4.989   4.649   5.936 -0.2219  0.0952  1.0840
 4413TIP3    H134654   4.964   4.676   5.847  0.2792  2.7299  1.6851
 4413TIP3    H234655   4.967   4.555   5.938 -0.6997  0.0448 -1.6386
 4414TIP3   OH234656   6.359   1.379   3.414  0.4623  0.6487 -0.0278
 4414TIP3    H134657   6.283   1.345   3.462  0.9011  1.5034  1.3097
 4414TIP3    H234658   6.433   1.330   3.449  0.6334  0.3374 -0.8069
 4415TIP3   OH234659   3.121   2.942  13.925  0.1089  0.0034 -0.5117
 4415TIP3    H134660   3.150   2.960  14.014 -0.6647  0.7705 -0.4108
 4415TIP3    H234661   3.037   2.897  13.935  0.7324 -1.2862 -0.8330
 4416TIP3   OH234662   5.990   0.988   1.220 -0.0221  0.3313 -0.3575
 4416TIP3    H134663   6.033   1.062   1.262 -0.5401 -0.3766  1.5423
 4416TIP3    H234664   6.015   0.912   1.273  0.6545 -0.9199 -2.3604
 4417TIP3   OH234665   4.028   2.404   4.071  0.2525  0.1717 -0.4260
 4417TIP3    H134666   4.006   2.485   4.117  0.2755  0.1103 -0.3052
 4417TIP3    H234667   4.108   2.373   4.114  1.0138  0.7849 -1.3488
 4418TIP3   OH234668   4.226   6.003  10.594 -0.1820  0.5124  0.1992
 4418TIP3    H134669   4.146   6.026  10.641 -2.2247 -0.0908 -2.7152
 4418TIP3    H234670   4.285   5.969  10.661 -2.5271  0.5307  2.4045
 4419TIP3   OH234671   2.439   4.271   3.032  0.1323 -0.2761 -0.0266
 4419TIP3    H134672   2.471   4.241   2.947  0.2424  0.4597 -0.2502
 4419TIP3    H234673   2.383   4.199   3.063 -0.4500 -0.2724 -1.0193
 4420TIP3   OH234674   6.757   5.453  16.243 -0.2035 -0.0801 -0.0887
 4420TIP3    H134675   6.821   5.523  16.258 -0.9489  0.7781 -0.8162
 4420TIP3    H234676   6.672   5.497  16.242 -0.6665 -0.9441 -0.8719
 4421TIP3   OH234677   1.581   1.729   6.391  0.1325 -0.0068 -0.0530
 4421TIP3    H134678   1.556   1.650   6.439  1.6988 -0.0063  0.8339
 4421TIP3    H234679   1.542   1.718   6.304 -1.3520 -0.7949  0.6672
 4422TIP3   OH234680   5.200   4.116   0.598  0.3279 -0.1970  0.2525
 4422TIP3    H134681   5.214   4.103   0.504  1.8393  0.0802  0.4151
 4422TIP3    H234682   5.206   4.211   0.609  1.1967 -0.3008  0.7639
 4423TIP3   OH234683   2.643   2.881   3.913  0.7375  0.4077 -0.8293
 4423TIP3    H134684   2.589   2.887   3.992  1.1915 -1.4190 -0.3384
 4423TIP3    H234685   2.584   2.843   3.848  0.6124  1.1341 -1.1548
 4424TIP3   OH234686   5.029   5.874  12.038  0.8923 -0.2428  0.3652
 4424TIP3    H134687   4.994   5.786  12.026  0.7752 -0.0723 -0.6278
 4424TIP3    H234688   5.110   5.875  11.987  0.8895  0.2227  0.3609
 4425TIP3   OH234689   5.724   3.363  10.773 -0.3095  0.4320 -0.1717
 4425TIP3    H134690   5.717   3.298  10.704  0.2020 -0.1671  0.3366
 4425TIP3    H234691   5.634   3.393  10.787 -0.4010  0.6711 -1.1842
 4426TIP3   OH234692   2.214   0.799   5.293  0.0096  0.3585  0.4397
 4426TIP3    H134693   2.272   0.807   5.368  2.5545 -1.3187 -1.2096
 4426TIP3    H234694   2.177   0.711   5.300 -0.0362  0.3355 -0.0507
 4427TIP3   OH234695   2.830   0.367   4.542 -0.0906 -0.3841  0.3296
 4427TIP3    H134696   2.859   0.383   4.452 -0.4839 -2.8089 -0.3162
 4427TIP3    H234697   2.894   0.305   4.577 -1.0906 -1.0726  0.9892
 4428TIP3   OH234698   0.052   2.085  15.524  0.4091  0.3456  0.3897
 4428TIP3    H134699  -0.004   2.094  15.447  0.6380  0.1107  0.1931
 4428TIP3    H234700  -0.009   2.063  15.595  0.2576  0.0233  0.1644
 4429TIP3   OH234701   6.226   3.606  17.001  0.0103 -0.6019  0.0826
 4429TIP3    H134702   6.299   3.618  16.941 -0.4252  0.0910 -0.3173
 4429TIP3    H234703   6.252   3.654  17.080  0.5427 -1.4380  0.4291
 4430TIP3   OH234704   0.427   3.811  16.544  0.0784 -0.4169  0.2721
 4430TIP3    H134705   0.441   3.883  16.605  0.2142  0.9414 -1.2734
 4430TIP3    H234706   0.499   3.750  16.562  0.6038  0.3615  0.8952
 4431TIP3   OH234707   0.514   3.251  16.119 -0.0401 -0.0562  0.0509
 4431TIP3    H134708   0.517   3.166  16.165  1.0442 -0.4059 -0.6281
 4431TIP3    H234709   0.517   3.228  16.026  2.1345  0.7527 -0.1299
 4432TIP3   OH234710   1.924   5.163  11.663 -0.4440 -0.6647  0.2424
 4432TIP3    H134711   1.834   5.137  11.648 -0.8004  1.2030 -1.3470
 4432TIP3    H234712   1.957   5.185  11.576  1.4872 -1.1072  0.8194
 4433TIP3   OH234713   1.219   4.425   3.578 -0.3508 -0.5553  0.0868
 4433TIP3    H134714   1.199   4.337   3.612  0.7158 -1.0134 -0.4335
 4433TIP3    H234715   1.313   4.435   3.592 -0.1732 -0.1344 -1.2808
 4434TIP3   OH234716   5.577   4.829   5.412  0.0217 -0.1141 -0.1441
 4434TIP3    H134717   5.502   4.846   5.470  0.1554  1.0779 -0.2988
 4434TIP3    H234718   5.541   4.774   5.342 -0.9066  1.0093 -0.5894
 4435TIP3   OH234719   4.207   0.510   0.269  0.0020  0.1456 -0.1308
 4435TIP3    H134720   4.189   0.604   0.277 -0.7156 -0.0884  1.2278
 4435TIP3    H234721   4.124   0.472   0.240 -0.3880 -0.3391  1.5493
 4436TIP3   OH234722   1.033   3.591  14.791 -0.2435  0.5623 -0.3655
 4436TIP3    H134723   0.974   3.527  14.830 -1.0762  2.1957  1.2061
 4436TIP3    H234724   1.077   3.543  14.721 -1.0901 -1.5911  0.4806
 4437TIP3   OH234725   1.231   0.973  16.958  0.3791 -0.0521  0.0175
 4437TIP3    H134726   1.285   0.913  17.009 -0.3204 -0.1665  0.6559
 4437TIP3    H234727   1.249   0.950  16.867  0.4518 -0.9438  0.2472
 4438TIP3   OH234728   2.295   2.429   3.581  0.2645 -0.2115 -0.4970
 4438TIP3    H134729   2.227   2.475   3.631  0.7578 -0.4822  0.4343
 4438TIP3    H234730   2.246   2.376   3.517 -0.3591  0.3557 -0.5007
 4439TIP3   OH234731   3.715   0.970  13.291 -0.6390  0.0998 -0.0760
 4439TIP3    H134732   3.672   0.903  13.239  2.2331 -1.7538 -0.3135
 4439TIP3    H234733   3.758   1.026  13.227  1.0977 -0.8977  0.1367
 4440TIP3   OH234734   2.891   5.743   4.379  0.4534 -0.0296 -0.0604
 4440TIP3    H134735   2.799   5.722   4.396  0.2036 -0.1127 -1.3985
 4440TIP3    H234736   2.889   5.833   4.347  1.0247  0.4992  1.3002
 4441TIP3   OH234737   5.378   4.204  11.308 -0.1103  0.3295 -0.4656
 4441TIP3    H134738   5.311   4.172  11.368 -0.1611 -0.2349 -0.8092
 4441TIP3    H234739   5.347   4.177  11.221  0.2525  0.6112 -0.6866
 4442TIP3   OH234740   2.964   1.066  12.872  0.1730 -0.2243  0.0278
 4442TIP3    H134741   2.980   0.983  12.918 -0.0165  0.0427  0.5896
 4442TIP3    H234742   2.919   1.121  12.937 -0.0592  0.1791 -0.4680
 4443TIP3   OH234743   3.340   3.388   0.802 -0.6207 -0.2146 -0.7906
 4443TIP3    H134744   3.361   3.309   0.852  0.0271 -0.3935 -1.3299
 4443TIP3    H234745   3.317   3.356   0.715  1.2824  0.2538 -1.5346
 4444TIP3   OH234746   2.212   1.299   3.832  0.4463 -0.5375 -0.5772
 4444TIP3    H134747   2.142   1.261   3.779  0.4095 -1.3597  0.0272
 4444TIP3    H234748   2.291   1.285   3.780  0.2652 -0.2712 -0.9328
 4445TIP3   OH234749   5.903   6.642  15.422 -0.3394 -0.7213  0.4017
 4445TIP3    H134750   5.944   6.578  15.363 -0.9901  0.8788 -1.9135
 4445TIP3    H234751   5.920   6.727  15.382 -3.3459  0.2371  0.8830
 4446TIP3   OH234752   4.077   0.812   3.290 -0.7944  0.0236  0.0870
 4446TIP3    H134753   4.033   0.896   3.300 -0.8824  0.3822 -2.6087
 4446TIP3    H234754   4.122   0.798   3.373 -0.6554  2.7977  0.5564
 4447TIP3   OH234755   5.171   4.159   4.559 -0.1841  0.0054 -0.6119
 4447TIP3    H134756   5.185   4.167   4.465  2.2095 -0.9081 -0.4103
 4447TIP3    H234757   5.156   4.065   4.573 -2.2038  0.3380 -0.2151
 4448TIP3   OH234758   6.478   2.756  14.097 -0.5198 -0.0334  0.2300
 4448TIP3    H134759   6.406   2.708  14.055  0.0251  0.3301 -1.1765
 4448TIP3    H234760   6.518   2.692  14.156 -1.4077 -0.5211  0.3297
 4449TIP3   OH234761   3.284   3.691   1.781 -0.4912 -0.1680 -0.2673
 4449TIP3    H134762   3.309   3.783   1.778 -1.9774  0.3910  2.2504
 4449TIP3    H234763   3.353   3.648   1.832  0.5569 -0.6799 -1.9889
 4450TIP3   OH234764   4.820   6.350  10.619 -0.4988  0.0533 -0.0331
 4450TIP3    H134765   4.815   6.441  10.647 -1.5740  0.1485 -0.4691
 4450TIP3    H234766   4.902   6.317  10.655 -0.5522  0.9280  0.9045
 4451TIP3   OH234767   5.098   3.697  13.855  0.1670 -0.0734 -0.4204
 4451TIP3    H134768   5.164   3.657  13.913 -0.0081 -0.4788 -0.5000
 4451TIP3    H234769   5.138   3.780  13.829 -0.1805  0.6060  1.0999
 4452TIP3   OH234770   6.262   6.501  15.705  0.4077 -0.4454 -0.1287
 4452TIP3    H134771   6.259   6.596  15.720 -0.6121 -0.4303 -0.3165
 4452TIP3    H234772   6.172   6.478  15.683  0.6690 -1.4476 -0.1956
 4453TIP3   OH234773   4.634   4.758   4.354  0.2141  0.6170  0.2774
 4453TIP3    H134774   4.658   4.678   4.307 -2.0831 -0.1312  0.2271
 4453TIP3    H234775   4.560   4.793   4.305  0.6059  2.2942  0.8263
 4454TIP3   OH234776   5.079   3.462  14.586  0.5154 -0.2625 -0.2465
 4454TIP3    H134777   5.112   3.526  14.522  1.9695 -0.0528  0.6542
 4454TIP3    H234778   5.152   3.451  14.648 -0.3119 -1.5731  0.5346
 4455TIP3   OH234779   3.363   1.572   4.020  0.0684 -0.2930  0.5710
 4455TIP3    H134780   3.316   1.490   4.037 -0.4237  0.1401  1.3758
 4455TIP3    H234781   3.447   1.545   3.983 -0.9755 -1.0757 -1.3391
 4456TIP3   OH234782   5.275   2.507  14.851  0.6268  0.5497 -0.0246
 4456TIP3    H134783   5.337   2.466  14.911 -0.3735 -0.7823  0.1718
 4456TIP3    H234784   5.273   2.599  14.877  0.7097  0.1328  1.5786
 4457TIP3   OH234785   5.671   4.370  14.453  0.5016 -0.4451  0.2660
 4457TIP3    H134786   5.693   4.459  14.480  0.8427 -0.4033 -0.1455
 4457TIP3    H234787   5.628   4.332  14.530 -0.9496  0.5230 -0.0347
 4458TIP3   OH234788   2.399   4.746  12.181  0.1715 -0.3782 -0.1909
 4458TIP3    H134789   2.410   4.651  12.176  1.4697 -0.2351 -0.3572
 4458TIP3    H234790   2.322   4.764  12.126 -0.1848 -1.3356 -0.0251
 4459TIP3   OH234791   1.329   5.089  11.423 -0.0438  0.2340  0.8767
 4459TIP3    H134792   1.364   5.108  11.336 -2.4170  0.4196 -0.1132
 4459TIP3    H234793   1.267   5.160  11.440 -0.8635 -0.6964  1.9703
 4460TIP3   OH234794   3.964   0.935   5.786  0.4051 -0.3846 -0.1514
 4460TIP3    H134795   4.039   0.966   5.737  0.1606 -1.9381 -1.5799
 4460TIP3    H234796   3.949   1.002   5.852  1.9685  0.7886 -0.9419
 4461TIP3   OH234797   5.597   2.030   5.772  0.1429  0.3109 -0.1664
 4461TIP3    H134798   5.508   1.999   5.786  0.5044 -0.6348  0.1308
 4461TIP3    H234799   5.625   1.989   5.690  0.3572  0.4869 -0.1838
 4462TIP3   OH234800   3.454   4.694   4.151  0.2122  0.3648 -0.0586
 4462TIP3    H134801   3.543   4.727   4.162  0.9300 -1.3485 -0.4442
 4462TIP3    H234802   3.412   4.757   4.093  0.9947  1.4945  0.5757
 4463TIP3   OH234803   2.569   0.295  11.086 -0.0532  0.2376 -0.1143
 4463TIP3    H134804   2.545   0.380  11.121 -2.7210 -0.9380  1.1685
 4463TIP3    H234805   2.665   0.292  11.093 -0.0712  2.2098  1.9772
 4464TIP3   OH234806   0.271   2.124  15.335 -0.1077  0.1680 -0.3019
 4464TIP3    H134807   0.343   2.113  15.397 -1.2432 -1.5705  0.7986
 4464TIP3    H234808   0.200   2.163  15.386 -0.7523 -0.4196 -0.7204
 4465TIP3   OH234809   4.678   3.888  13.684 -0.0720 -0.2863 -0.5302
 4465TIP3    H134810   4.638   3.925  13.605 -1.5902  1.3401  0.9186
 4465TIP3    H234811   4.765   3.926  13.687 -0.0631 -0.2281 -1.3276
 4466TIP3   OH234812   5.440   2.795  13.259  0.5294  0.1656  0.0522
 4466TIP3    H134813   5.392   2.735  13.316 -0.2841 -1.1100 -1.8527
 4466TIP3    H234814   5.532   2.769  13.268  0.7584  1.4873  2.4112
 4467TIP3   OH234815   6.757   3.358  16.829 -0.0702 -0.7206  1.0547
 4467TIP3    H134816   6.702   3.413  16.883 -3.1042 -1.8943 -0.5866
 4467TIP3    H234817   6.828   3.415  16.800 -1.5916  1.5381  1.5531
 4468TIP3   OH234818   6.571   3.689   1.802  0.4354 -0.0309  0.1273
 4468TIP3    H134819   6.495   3.748   1.805 -0.6300 -1.3709  0.4628
 4468TIP3    H234820   6.569   3.652   1.713 -0.0083 -0.9203  0.4900
 4469TIP3   OH234821   1.244   2.582  15.428 -0.6787  0.2128 -0.0174
 4469TIP3    H134822   1.222   2.656  15.371  3.5235  1.1551 -0.7532
 4469TIP3    H234823   1.284   2.518  15.369 -1.6568 -1.4424  1.0543
 4470TIP3   OH234824   5.400   0.045  17.063 -0.3514 -0.2467 -0.4926
 4470TIP3    H134825   5.384   0.053  17.158 -0.1332 -0.3452 -0.4464
 4470TIP3    H234826   5.443   0.128  17.040 -0.8796  0.0012 -0.6065
 4471TIP3   OH234827   1.677   4.958  14.300 -0.4873 -0.0910 -0.3833
 4471TIP3    H134828   1.662   4.946  14.206 -0.0296 -1.2033 -0.3309
 4471TIP3    H234829   1.646   5.046  14.318 -1.4022 -0.1851 -1.4062
 4472TIP3   OH234830   2.021   5.137   2.882  0.5713  0.0424  1.3395
 4472TIP3    H134831   1.946   5.122   2.825  1.4970 -0.6423  0.2815
 4472TIP3    H234832   1.985   5.188   2.955 -0.9612 -0.4562  0.9685
 4473TIP3   OH234833   0.665   4.689  13.769  0.0716  0.0929  0.0503
 4473TIP3    H134834   0.575   4.659  13.777  0.2977 -0.2943  1.3816
 4473TIP3    H234835   0.717   4.609  13.761  0.4875  0.1849  1.5499
 4474TIP3   OH234836   3.447   0.404  15.340  0.3725 -0.0992 -0.3936
 4474TIP3    H134837   3.502   0.432  15.413  2.5055  1.1379 -2.3360
 4474TIP3    H234838   3.358   0.422  15.369  1.1253  0.2640  1.9117
 4475TIP3   OH234839   5.370   1.081  14.457 -0.2320  0.1403 -0.6655
 4475TIP3    H134840   5.425   1.006  14.481 -2.1232 -1.5429 -1.2954
 4475TIP3    H234841   5.303   1.084  14.526  0.1334  1.6442 -0.3428
 4476TIP3   OH234842   3.838   5.902  14.342  0.1311  0.1915  0.1363
 4476TIP3    H134843   3.928   5.872  14.351 -0.1351 -0.3673  1.0943
 4476TIP3    H234844   3.817   5.890  14.249  0.4591 -1.3679  0.2388
 4477TIP3   OH234845   4.129   6.075  16.754  0.1031 -1.0126  0.2614
 4477TIP3    H134846   4.187   6.101  16.826 -2.0392 -1.1405  2.1357
 4477TIP3    H234847   4.063   6.144  16.751 -0.5758 -1.6832 -0.7253
 4478TIP3   OH234848   2.176   3.299   3.286 -0.0838  0.5998  0.2712
 4478TIP3    H134849   2.163   3.329   3.376  0.8686 -0.7818  0.9033
 4478TIP3    H234850   2.271   3.287   3.278 -0.2213  0.0536 -0.7012
 4479TIP3   OH234851   5.846   2.638   2.400  0.2431  0.3217  0.4788
 4479TIP3    H134852   5.854   2.682   2.315  0.7377  0.7071  0.7232
 4479TIP3    H234853   5.762   2.667   2.435  0.5421  1.0387  0.6163
 4480TIP3   OH234854   0.070   6.476  15.406 -0.3068 -0.0872 -0.1500
 4480TIP3    H134855   0.100   6.566  15.405 -1.0137  0.1742  0.9426
 4480TIP3    H234856   0.145   6.425  15.374  0.3060  0.8189 -0.1732
 4481TIP3   OH234857   2.194   4.889  15.101 -0.0571  0.1929 -0.4061
 4481TIP3    H134858   2.242   4.855  15.025 -1.3296  1.8432 -2.0384
 4481TIP3    H234859   2.137   4.957  15.064  0.0583  1.8218  2.1928
 4482TIP3   OH234860   5.624   4.547   1.274 -0.1296 -0.1789  0.0109
 4482TIP3    H134861   5.693   4.481   1.268  1.1505  1.1138 -0.0577
 4482TIP3    H234862   5.622   4.572   1.366 -0.4717 -0.1659  0.0029
 4483TIP3   OH234863   2.415   1.889  14.361 -0.7438 -0.1558 -0.0926
 4483TIP3    H134864   2.400   1.837  14.440  0.6012  0.0917  0.3563
 4483TIP3    H234865   2.420   1.979  14.392 -2.3573  0.2100 -0.7731
 4484TIP3   OH234866   4.906   5.408   3.641 -0.4717 -0.6533 -0.0432
 4484TIP3    H134867   4.867   5.485   3.600 -0.4285 -0.6518 -0.0823
 4484TIP3    H234868   4.838   5.340   3.634  0.2942 -1.3086 -2.1318
 4485TIP3   OH234869   6.210   3.060  14.496 -0.5670  0.1226  0.7997
 4485TIP3    H134870   6.281   3.041  14.558  1.0993  0.4317 -0.9282
 4485TIP3    H234871   6.192   2.976  14.454  0.9455  0.5785 -0.8897
 4486TIP3   OH234872   5.685   4.983  11.304 -0.0971 -0.1491 -0.9090
 4486TIP3    H134873   5.605   5.000  11.254 -0.8540  0.2533  0.3867
 4486TIP3    H234874   5.703   5.066  11.348 -0.4844 -0.9785  0.8732
 4487TIP3   OH234875   5.971   1.000  11.374  0.2858  0.4101  1.0773
 4487TIP3    H134876   5.943   1.072  11.317  1.5188  0.5131  0.5731
 4487TIP3    H234877   5.986   1.041  11.459  0.7737  0.7142  0.8473
 4488TIP3   OH234878   5.864   2.992   5.843  0.0782 -0.0239 -0.2772
 4488TIP3    H134879   5.844   3.069   5.790 -0.1193 -0.7241 -1.2405
 4488TIP3    H234880   5.901   3.028   5.924  1.3225  1.0365 -1.2684
 4489TIP3   OH234881   0.627   0.628  16.878 -0.0549  0.0055 -0.2355
 4489TIP3    H134882   0.569   0.687  16.831  0.5156  0.9449  0.1988
 4489TIP3    H234883   0.631   0.549  16.824 -0.0604  0.7371 -1.3231
 4490TIP3   OH234884   6.600   1.130   1.410 -0.5424  0.3616 -0.0968
 4490TIP3    H134885   6.527   1.080   1.446  0.2872 -0.0366  1.1244
 4490TIP3    H234886   6.587   1.219   1.442 -1.0177  0.5149 -0.7093
 4491TIP3   OH234887   6.683   1.537   4.085  0.6390  0.6965  0.1032
 4491TIP3    H134888   6.736   1.616   4.092  0.7316  0.6684 -0.2447
 4491TIP3    H234889   6.594   1.565   4.102  0.3087  1.3423 -2.3577
 4492TIP3   OH234890   2.343   2.104  16.967  0.3052 -0.5368 -0.0136
 4492TIP3    H134891   2.284   2.029  16.954 -0.1205 -0.0519 -0.9818
 4492TIP3    H234892   2.398   2.078  17.041  0.3450 -1.9244 -0.4858
 4493TIP3   OH234893   2.124   5.163   5.086 -0.4251  0.4660 -0.7257
 4493TIP3    H134894   2.210   5.171   5.127 -1.1496  1.1012  0.7169
 4493TIP3    H234895   2.142   5.125   5.000  1.2499  0.2203 -0.2912
 4494TIP3   OH234896   2.869   1.562   1.049  0.0130 -0.1704  0.7514
 4494TIP3    H134897   2.818   1.547   0.970 -2.3347  1.3313  1.8674
 4494TIP3    H234898   2.869   1.478   1.095 -0.9095 -0.3768  0.3899
 4495TIP3   OH234899   4.221   4.350   3.487  0.1191  0.3394 -0.4373
 4495TIP3    H134900   4.258   4.418   3.544 -0.3574 -1.1209  1.7591
 4495TIP3    H234901   4.294   4.324   3.430  1.6034 -0.2215  1.5808
 4496TIP3   OH234902   2.311   1.003   3.260 -0.9236  0.5491 -0.0457
 4496TIP3    H134903   2.300   1.092   3.294  0.1788  1.7296 -2.4679
 4496TIP3    H234904   2.224   0.964   3.266 -0.9679  0.8985  3.1823
 4497TIP3   OH234905   0.688   2.760  13.622  0.8013 -0.0941  0.4482
 4497TIP3    H134906   0.746   2.836  13.623 -0.7588  1.1448  0.5124
 4497TIP3    H234907   0.605   2.793  13.657  0.0987 -1.8499  0.5330
 4498TIP3   OH234908   2.309   5.447  13.136 -0.2382 -0.1670  0.1830
 4498TIP3    H134909   2.248   5.452  13.062 -1.1458 -1.8105  0.7769
 4498TIP3    H234910   2.384   5.398  13.103  0.6511  1.5163 -0.4307
 4499TIP3   OH234911   5.453   2.379   5.590 -0.0462 -0.3710  0.2628
 4499TIP3    H134912   5.380   2.318   5.596 -2.0862  1.9086  0.3473
 4499TIP3    H234913   5.421   2.459   5.633  2.0909  1.0885 -0.6719
 4500TIP3   OH234914   5.612   1.657   4.561  0.6499  0.1303 -0.3286
 4500TIP3    H134915   5.553   1.583   4.546  0.6715  0.4290 -2.1917
 4500TIP3    H234916   5.694   1.632   4.518  0.5255  1.3657 -1.3632
 4501TIP3   OH234917   3.220   5.806  11.598  0.2109 -0.4966  0.3089
 4501TIP3    H134918   3.275   5.883  11.587 -0.4589  0.0407  0.6392
 4501TIP3    H234919   3.214   5.794  11.693  0.2220 -0.8952  0.2626
 4502TIP3   OH234920   2.556   1.292   1.425  0.0861 -0.1055 -0.3464
 4502TIP3    H134921   2.602   1.321   1.504 -0.3728  0.1480 -0.1675
 4502TIP3    H234922   2.598   1.209   1.403  0.3662 -0.0722  0.0401
 4503TIP3   OH234923   3.166   4.294  16.236  0.8381  0.4818  0.8179
 4503TIP3    H134924   3.212   4.231  16.180 -0.6458  0.5852 -0.6075
 4503TIP3    H234925   3.090   4.247  16.268  0.9127  0.8726  1.5838
 4504TIP3   OH234926   4.074   1.712   4.680 -0.1190 -0.2007 -0.3765
 4504TIP3    H134927   4.014   1.665   4.738  0.2751 -0.2044  0.0347
 4504TIP3    H234928   4.145   1.739   4.737  0.4071 -0.4367 -0.9112
 4505TIP3   OH234929   3.700   6.077   1.518  0.0906  0.2904  0.0827
 4505TIP3    H134930   3.749   6.000   1.546  2.7699  1.8783  0.0544
 4505TIP3    H234931   3.628   6.084   1.581  0.8088 -1.2252  1.1295
 4506TIP3   OH234932   6.321   0.841   4.629  0.4675 -0.7510  0.0180
 4506TIP3    H134933   6.345   0.796   4.549 -3.5076 -0.1661 -1.7715
 4506TIP3    H234934   6.342   0.933   4.613 -0.0798 -0.6743 -0.2986
 4507TIP3   OH234935   0.038   6.513   3.553 -0.0633 -0.2305 -0.1203
 4507TIP3    H134936  -0.036   6.520   3.493  0.3671 -0.6034 -0.7019
 4507TIP3    H234937   0.091   6.591   3.536 -0.7931  0.5344  0.9646
 4508TIP3   OH234938   6.291   3.143  14.061 -0.3376  0.0532  0.5522
 4508TIP3    H134939   6.320   3.106  13.978  0.9910  1.3359  0.3948
 4508TIP3    H234940   6.322   3.080  14.127 -0.1305 -0.2624  0.1584
 4509TIP3   OH234941   0.574   3.140  13.830 -0.1579 -0.1049  0.5175
 4509TIP3    H134942   0.489   3.163  13.794 -0.5759 -0.7556  1.0732
 4509TIP3    H234943   0.559   3.132  13.925  0.7609  0.8740  0.7670
 4510TIP3   OH234944   5.221   0.623   5.535  0.4162 -0.1684 -0.3567
 4510TIP3    H134945   5.315   0.643   5.525  0.2399  0.9451 -0.0058
 4510TIP3    H234946   5.177   0.698   5.495 -0.2941  0.7563  1.9814
 4511TIP3   OH234947   5.465   4.894  10.846  0.1861  0.2416 -0.0764
 4511TIP3    H134948   5.416   4.848  10.777  2.1002 -0.6985 -0.9004
 4511TIP3    H234949   5.406   4.963  10.876 -0.9158  0.3849 -2.3480
 4512TIP3   OH234950   1.113   3.526  14.378  0.4119 -0.3829 -0.6342
 4512TIP3    H134951   1.149   3.611  14.406 -0.6590  0.2265 -1.0571
 4512TIP3    H234952   1.107   3.475  14.459 -1.2701  0.8441  0.0659
 4513TIP3   OH234953   5.910   0.410  11.502 -0.1914  0.0305 -0.0152
 4513TIP3    H134954   5.937   0.497  11.531 -1.2259  0.5576 -0.5864
 4513TIP3    H234955   5.986   0.354  11.520  1.2360  1.4134 -1.3871
 4514TIP3   OH234956   5.175   0.426  13.906 -0.3069 -0.3555 -0.3883
 4514TIP3    H134957   5.215   0.512  13.896 -0.6759 -0.2159 -0.6748
 4514TIP3    H234958   5.248   0.364  13.898 -0.2339 -0.1399 -1.6093
 4515TIP3   OH234959   6.603   3.341   4.775  1.1384  0.2207 -0.3770
 4515TIP3    H134960   6.610   3.403   4.848  1.2440 -0.2549  0.0236
 4515TIP3    H234961   6.686   3.292   4.778  0.9720 -0.0766 -0.5579
 4516TIP3   OH234962   1.065   0.122  15.517  0.2171  0.0765  0.5796
 4516TIP3    H134963   0.980   0.165  15.515  0.0555 -0.2701 -1.3789
 4516TIP3    H234964   1.046   0.030  15.498  1.1063  0.1933 -1.0134
 4517TIP3   OH234965   0.028   0.775   4.036  0.6397 -0.5484 -0.2884
 4517TIP3    H134966  -0.038   0.832   3.997  1.0693 -0.6573 -1.1914
 4517TIP3    H234967   0.008   0.776   4.130 -1.0412 -1.0971 -0.6085
 4518TIP3   OH234968   0.616   2.874   5.216  0.1115  0.5561 -0.0852
 4518TIP3    H134969   0.698   2.855   5.261  0.0306  1.7572  0.6200
 4518TIP3    H234970   0.615   2.815   5.141  1.9042  0.9387 -0.4387
 4519TIP3   OH234971   2.463   4.141   2.438  0.4774 -0.3342  0.2232
 4519TIP3    H134972   2.432   4.225   2.404 -0.5079 -1.6159 -2.3709
 4519TIP3    H234973   2.551   4.132   2.402 -0.2119 -1.2757 -1.3490
 4520TIP3   OH234974   1.113   0.516  10.970 -0.3991 -0.7499 -0.0759
 4520TIP3    H134975   1.167   0.558  11.037 -1.4615 -0.2252  0.4811
 4520TIP3    H234976   1.123   0.422  10.986 -1.7666 -0.6313  1.8005
 4521TIP3   OH234977   2.198   3.720   3.431  0.2855  0.4920  0.2646
 4521TIP3    H134978   2.156   3.781   3.492 -0.5602  0.3772 -0.1869
 4521TIP3    H234979   2.129   3.700   3.367  1.4188  1.3621 -1.2902
 4522TIP3   OH234980   6.177   1.099  15.084 -0.0085  0.0388  0.6737
 4522TIP3    H134981   6.173   1.195  15.091 -1.6440  0.1184 -0.7842
 4522TIP3    H234982   6.248   1.082  15.021 -0.1203  0.3186  0.4714
 4523TIP3   OH234983   1.615   3.380  11.239 -0.6286 -0.2050 -0.6668
 4523TIP3    H134984   1.538   3.437  11.242 -0.2711  0.3250 -1.2771
 4523TIP3    H234985   1.678   3.423  11.297 -0.6087 -0.3580 -0.5759
 4524TIP3   OH234986   1.420   3.151   2.498 -0.0962  0.0618  0.0865
 4524TIP3    H134987   1.439   3.149   2.404 -0.2215 -0.4439  0.0689
 4524TIP3    H234988   1.326   3.170   2.503 -0.4966 -1.6943  0.0419
 4525TIP3   OH234989   0.544   2.494  13.705 -0.5097  0.3258 -0.3737
 4525TIP3    H134990   0.595   2.573  13.685 -2.4799  1.5868 -0.7044
 4525TIP3    H234991   0.514   2.507  13.795 -0.2238 -0.4308 -0.1607
 4526TIP3   OH234992   3.420   2.167   6.763 -0.4001 -0.7974  0.6234
 4526TIP3    H134993   3.408   2.259   6.786 -0.3209 -0.4799 -0.5074
 4526TIP3    H234994   3.355   2.151   6.694 -0.1192 -1.4662  0.5018
 4527TIP3   OH234995   6.071   4.145   1.655 -0.1035  0.4445  0.2956
 4527TIP3    H134996   6.166   4.153   1.647  0.3198 -1.8231  2.0677
 4527TIP3    H234997   6.046   4.084   1.586 -0.0361 -0.0472  0.6963
 4528TIP3   OH234998   5.542   4.361  12.464  0.2867 -0.2744 -0.1870
 4528TIP3    H134999   5.614   4.366  12.401  0.7249 -0.4791  0.2912
 4528TIP3    H235000   5.585   4.345  12.549 -0.2561  0.4381  0.2368
 4529TIP3   OH235001   5.107   3.162   2.280  0.3459 -0.2075 -0.3987
 4529TIP3    H135002   5.109   3.249   2.241 -2.3932  0.1064 -0.0286
 4529TIP3    H235003   5.037   3.117   2.234 -1.3556 -0.6403  2.4253
 4530TIP3   OH235004   6.461   2.418  14.513  0.2957  0.0243  0.0123
 4530TIP3    H135005   6.537   2.447  14.563  0.4166  0.0228 -0.1701
 4530TIP3    H235006   6.408   2.368  14.575  0.8046 -0.5956 -0.0477
 4531TIP3   OH235007   4.225   0.236  14.910 -0.0556  0.2296 -0.1013
 4531TIP3    H135008   4.143   0.187  14.917 -0.1483  0.1144 -1.5803
 4531TIP3    H235009   4.289   0.184  14.959 -0.9820  0.6592  1.6304
 4532TIP3   OH235010   2.142   3.467   4.888  0.3454  0.4689 -0.4395
 4532TIP3    H135011   2.205   3.471   4.961  2.7633  1.8961 -2.4214
 4532TIP3    H235012   2.100   3.552   4.889 -0.9856 -0.1753  0.3522
 4533TIP3   OH235013   5.415   3.200   1.285 -0.3578 -0.0642  0.1365
 4533TIP3    H135014   5.395   3.115   1.245  2.7126 -1.1051  0.5184
 4533TIP3    H235015   5.483   3.238   1.229  0.6041  0.6388  1.6869
 4534TIP3   OH235016   2.057   3.648  15.661  0.3063  0.6179 -0.4419
 4534TIP3    H135017   1.981   3.688  15.617 -1.0264 -1.2348  0.0753
 4534TIP3    H235018   2.056   3.686  15.749 -0.4071  0.1441 -0.2396
 4535TIP3   OH235019   4.334   3.032   2.657  0.0255 -0.0350  0.5248
 4535TIP3    H135020   4.274   3.031   2.582 -0.9178  0.3065  1.2536
 4535TIP3    H235021   4.280   3.004   2.731  0.8963 -0.1933  1.1154
 4536TIP3   OH235022   4.247   1.545   2.074  0.3469  0.1175  0.8514
 4536TIP3    H135023   4.314   1.492   2.119  0.2529  1.1619  2.2790
 4536TIP3    H235024   4.280   1.635   2.079 -2.0710  0.9834  3.4387
 4537TIP3   OH235025   0.327   5.302  12.995 -0.4146  0.5063 -0.0611
 4537TIP3    H135026   0.307   5.275  13.084 -1.2436  1.6369  0.1126
 4537TIP3    H235027   0.308   5.225  12.941 -1.2563  0.2582  0.5794
 4538TIP3   OH235028   3.399   0.356   4.404  0.1151 -0.5996  0.0694
 4538TIP3    H135029   3.320   0.356   4.458 -1.3589  0.7913 -1.9662
 4538TIP3    H235030   3.396   0.438   4.355  2.6944 -0.6415 -0.3091
 4539TIP3   OH235031   6.263   0.208  15.951  0.1956  0.0118  0.4537
 4539TIP3    H135032   6.257   0.214  16.046 -1.2095 -0.7980  0.4415
 4539TIP3    H235033   6.341   0.258  15.929  0.4111  0.4116  2.0082
 4540TIP3   OH235034   0.569   1.328  11.268  0.0498 -0.5251 -0.8703
 4540TIP3    H135035   0.528   1.399  11.319 -1.9755 -1.6763 -0.7996
 4540TIP3    H235036   0.623   1.281  11.331 -0.5752 -0.5248 -0.3291
 4541TIP3   OH235037   5.373   4.362  14.639  0.0522 -0.3305 -0.3207
 4541TIP3    H135038   5.396   4.445  14.680 -0.8436  0.4504 -1.3434
 4541TIP3    H235039   5.455   4.313  14.638  0.3822  0.1341  1.1798
 4542TIP3   OH235040   6.613   3.758   4.363 -0.2372  0.0281 -0.3474
 4542TIP3    H135041   6.582   3.671   4.338  0.3300 -0.2400 -0.1454
 4542TIP3    H235042   6.709   3.751   4.361 -0.1841  0.7205 -0.5799
 4543TIP3   OH235043   1.289   2.529   2.964  0.2011 -0.4181  0.2478
 4543TIP3    H135044   1.299   2.601   2.902  1.0718 -0.4521  0.3260
 4543TIP3    H235045   1.377   2.490   2.969 -0.5565 -2.4834 -1.0233
 4544TIP3   OH235046   3.321   6.216  17.101  0.2733 -0.2427  0.2428
 4544TIP3    H135047   3.251   6.280  17.115  0.9307  0.2541  1.4314
 4544TIP3    H235048   3.375   6.253  17.032 -0.2587 -0.3128 -0.2199
 4545TIP3   OH235049   6.460   5.851   5.613  0.6646 -0.3007 -0.5137
 4545TIP3    H135050   6.410   5.930   5.591 -0.5224 -0.4087  1.5609
 4545TIP3    H235051   6.547   5.883   5.636  0.3183  0.3605 -0.1105
 4546TIP3   OH235052   3.044   6.016  10.781  0.1402  0.1471 -0.7361
 4546TIP3    H135053   2.990   6.059  10.848  2.3723  0.1415  1.1915
 4546TIP3    H235054   3.087   6.088  10.735 -1.4198  0.1527 -2.2876
 4547TIP3   OH235055   0.839   0.118  13.397  0.2324 -0.1022 -0.0580
 4547TIP3    H135056   0.882   0.065  13.464  1.0077  0.7424  0.1318
 4547TIP3    H235057   0.881   0.204  13.403 -0.9569  0.5307 -0.3951
 4548TIP3   OH235058   0.853   3.022   1.907 -0.1681  0.9269 -0.1255
 4548TIP3    H135059   0.899   2.974   1.977  0.2948  1.0869 -0.3137
 4548TIP3    H235060   0.876   2.975   1.827 -0.8317  0.6478 -0.1555
 4549TIP3   OH235061   1.059   5.261   3.673  0.2144 -0.0986 -0.3060
 4549TIP3    H135062   1.056   5.266   3.769  1.6074 -1.7339 -0.1268
 4549TIP3    H235063   0.989   5.200   3.650  0.1006  0.0300 -0.3018
 4550TIP3   OH235064   5.348   5.837   5.877 -0.2238  0.4969  0.1060
 4550TIP3    H135065   5.352   5.748   5.911 -2.2401  0.3163  0.0050
 4550TIP3    H235066   5.371   5.893   5.951  0.1404 -0.0651  0.4205
 4551TIP3   OH235067   6.576   1.821   1.660  0.1815  0.1323  0.2182
 4551TIP3    H135068   6.591   1.800   1.568 -1.2228 -0.0328  0.0067
 4551TIP3    H235069   6.661   1.807   1.702  1.4921  2.4767 -1.4310
 4552TIP3   OH235070   5.393   2.229   4.308 -0.0450  0.2526  0.0581
 4552TIP3    H135071   5.435   2.186   4.382 -2.1145  0.2748  1.3238
 4552TIP3    H235072   5.315   2.271   4.345 -2.0538 -1.0702 -2.3277
 4553TIP3   OH235073   5.271   3.977  13.475 -0.2125  0.0505  0.0926
 4553TIP3    H135074   5.343   4.040  13.480  0.5510 -0.8363  0.6702
 4553TIP3    H235075   5.239   3.970  13.565 -1.6307  1.0787 -0.2834
 4554TIP3   OH235076   0.658   0.589   1.431 -0.3170 -0.3650  0.1984
 4554TIP3    H135077   0.710   0.657   1.473  0.3341 -0.7893  0.0902
 4554TIP3    H235078   0.688   0.507   1.471  0.5396 -0.8180 -1.2917
 4555TIP3   OH235079   0.986   1.009  12.679  0.3147  0.7711 -0.1825
 4555TIP3    H135080   1.080   0.998  12.665  0.2592 -0.1215  0.0793
 4555TIP3    H235081   0.951   0.920  12.674 -0.5866  1.1498 -0.7379
 4556TIP3   OH235082   0.669   6.655  12.524  0.3206  0.3247 -0.6074
 4556TIP3    H135083   0.633   6.726  12.471 -3.3677 -0.7424  0.1979
 4556TIP3    H235084   0.625   6.576  12.491  2.8480 -1.3638 -0.2074
 4557TIP3   OH235085   1.195   4.667   5.022 -0.1971  0.8553 -0.0672
 4557TIP3    H135086   1.209   4.753   4.982  0.7388  1.7181  1.9388
 4557TIP3    H235087   1.126   4.681   5.086  0.5664  0.3651  0.9021
 4558TIP3   OH235088   4.028   1.451   4.166  0.1891  0.1340  0.1192
 4558TIP3    H135089   3.963   1.512   4.130 -1.4985 -1.8076 -0.2901
 4558TIP3    H235090   4.014   1.455   4.261  0.5513  0.8441  0.1518
 4559TIP3   OH235091   1.267   5.999  13.788 -0.3485 -0.8491 -0.4830
 4559TIP3    H135092   1.272   5.905  13.771  0.8746 -0.6375 -1.4275
 4559TIP3    H235093   1.272   6.006  13.883 -0.7519 -1.7467 -0.3800
 4560TIP3   OH235094   2.624   5.178   5.000  0.0925  0.4413 -0.1773
 4560TIP3    H135095   2.678   5.136   4.934 -0.7683  0.4442 -0.8959
 4560TIP3    H235096   2.686   5.207   5.067  1.1921  1.9883 -1.7835
 4561TIP3   OH235097   4.778   4.469   0.764  0.2252 -0.1637  0.1290
 4561TIP3    H135098   4.693   4.428   0.781  0.0670  0.5836  1.2386
 4561TIP3    H235099   4.770   4.503   0.674 -0.4232 -0.6185  0.0053
 4562TIP3   OH235100   0.019   5.368   2.526 -0.0170 -0.5425 -0.3310
 4562TIP3    H135101   0.002   5.462   2.534  1.6259  0.1134 -3.1064
 4562TIP3    H235102   0.080   5.348   2.596 -0.7260  0.3423  0.5568
 4563TIP3   OH235103   0.350   3.694   4.407 -0.3610 -0.3696 -0.1167
 4563TIP3    H135104   0.355   3.744   4.325 -1.3458  1.2797  0.7859
 4563TIP3    H235105   0.257   3.680   4.421 -0.1478 -1.5885  0.1993
 4564TIP3   OH235106   4.601   2.935  15.707 -0.2494  0.0974 -0.6060
 4564TIP3    H135107   4.686   2.896  15.685 -0.4471 -0.0059 -1.2218
 4564TIP3    H235108   4.618   3.029  15.711  0.0437  0.0236 -0.0066
 4565TIP3   OH235109   0.949   0.404  15.798 -0.0979 -0.3231 -0.0370
 4565TIP3    H135110   0.912   0.328  15.845 -1.1554 -0.2477 -0.7140
 4565TIP3    H235111   1.023   0.431  15.852  0.4491 -1.9716  0.1062
 4566TIP3   OH235112   5.732   1.204   1.601  0.9520  0.5895  0.3324
 4566TIP3    H135113   5.787   1.240   1.531 -0.0288  1.1391 -0.1830
 4566TIP3    H235114   5.649   1.185   1.558  0.6424  0.0284  1.1523
 4567TIP3   OH235115   2.102   5.174   0.851 -0.2805 -0.6250 -0.0631
 4567TIP3    H135116   2.161   5.204   0.920 -1.7547  0.8891  0.6119
 4567TIP3    H235117   2.119   5.234   0.778 -1.0198 -0.1350  0.1623
 4568TIP3   OH235118   0.988   4.437   5.737 -0.0605  0.5340  0.0640
 4568TIP3    H135119   0.971   4.344   5.726  2.4623  0.0816 -0.6190
 4568TIP3    H235120   0.968   4.475   5.651  1.7192  0.0883 -0.5873
 4569TIP3   OH235121   6.401   1.915   0.545  0.7028  0.1880  0.7744
 4569TIP3    H135122   6.410   1.925   0.640 -1.6765 -0.0134  1.1019
 4569TIP3    H235123   6.349   1.991   0.518 -0.4854 -0.8452  0.0202
 4570TIP3   OH235124   3.781   4.507  12.115  0.2036  0.4841 -0.2153
 4570TIP3    H135125   3.842   4.520  12.042 -0.9925 -1.5768 -1.6557
 4570TIP3    H235126   3.837   4.491  12.191  1.4507  1.3143 -0.9269
 4571TIP3   OH235127   1.504   4.657  15.003  0.0636  0.5180 -0.1180
 4571TIP3    H135128   1.516   4.614  15.088  1.1499  1.2624  0.1139
 4571TIP3    H235129   1.514   4.586  14.939 -0.8549 -0.0656  0.3566
 4572TIP3   OH235130   3.766   4.086   3.038 -0.1621  0.0685 -0.0678
 4572TIP3    H135131   3.833   4.067   3.104 -0.5157 -2.2215 -0.3007
 4572TIP3    H235132   3.683   4.068   3.082 -0.4531 -0.4727 -0.8245
 4573TIP3   OH235133   0.560   1.015   0.586  0.0697 -0.1150  0.0358
 4573TIP3    H135134   0.629   0.984   0.645 -0.2709 -0.7322  0.1113
 4573TIP3    H235135   0.559   0.952   0.514  1.0670  1.1064 -1.0970
 4574TIP3   OH235136   3.643   2.897   2.187  0.0534 -0.5290 -0.2946
 4574TIP3    H135137   3.650   2.819   2.242  0.2621  0.1915  0.7470
 4574TIP3    H235138   3.556   2.931   2.206 -0.5419 -1.1879 -1.7204
 4575TIP3   OH235139   0.372   6.500  13.844  0.3239 -0.2750 -0.0528
 4575TIP3    H135140   0.426   6.575  13.870 -1.2477  0.7755  0.3502
 4575TIP3    H235141   0.422   6.423  13.874  1.9301  0.5931 -0.3969
 4576TIP3   OH235142   5.084   2.623   5.086 -0.6999 -0.0256  0.1453
 4576TIP3    H135143   5.003   2.594   5.045 -1.4544  2.3416 -0.2194
 4576TIP3    H235144   5.066   2.622   5.180 -1.0636  0.2715  0.0772
 4577TIP3   OH235145   3.210   3.618   1.280  0.2028 -0.1553 -0.2912
 4577TIP3    H135146   3.141   3.588   1.221  1.1485 -0.1845 -1.4356
 4577TIP3    H235147   3.188   3.709   1.300 -0.3830 -0.2950 -0.2939
 4578TIP3   OH235148   5.052   1.101   1.362 -0.2425 -0.3295 -0.1904
 4578TIP3    H135149   5.063   1.129   1.452 -0.0268 -0.8640 -0.0471
 4578TIP3    H235150   4.961   1.070   1.357 -0.2148 -0.4227 -0.1209
 4579TIP3   OH235151   6.277   2.033  13.290 -0.0656 -0.3403 -0.6686
 4579TIP3    H135152   6.277   2.078  13.205  1.0484  0.2726 -0.3622
 4579TIP3    H235153   6.330   1.955  13.276  1.2376  0.4256 -0.2349
 4580TIP3   OH235154   1.746   3.929   1.348 -0.2715 -0.6004 -0.2106
 4580TIP3    H135155   1.730   3.835   1.337 -1.5824 -0.1646 -2.7267
 4580TIP3    H235156   1.821   3.933   1.407  2.1362 -3.3859 -2.7345
 4581TIP3   OH235157   5.861   4.942   3.948  0.3902 -0.5476  0.0599
 4581TIP3    H135158   5.801   4.890   3.895 -0.4899  0.6344 -0.1326
 4581TIP3    H235159   5.828   4.934   4.037  1.9213 -2.6092  0.5184
 4582TIP3   OH235160   3.790   0.179   2.069 -0.4735  0.0623 -0.0725
 4582TIP3    H135161   3.870   0.158   2.117  0.0987 -0.3283 -1.1674
 4582TIP3    H235162   3.740   0.236   2.129 -0.5207 -1.6537  1.6207
 4583TIP3   OH235163   2.012   1.642   0.003 -0.4340  0.0067 -0.2920
 4583TIP3    H135164   1.962   1.690   0.069 -1.2000 -0.6996 -0.3497
 4583TIP3    H235165   2.089   1.698  -0.014 -0.6620  0.5978  0.5622
 4584TIP3   OH235166   0.857   5.426  13.277 -0.1738  0.4634  0.4834
 4584TIP3    H135167   0.889   5.337  13.293  1.4336  0.8918 -0.1383
 4584TIP3    H235168   0.930   5.482  13.304 -0.8361  1.5554  0.0362
 4585TIP3   OH235169   2.917   5.008  14.064 -0.3255  0.1525 -0.2735
 4585TIP3    H135170   2.982   5.028  14.132 -1.0292 -1.5590  0.9815
 4585TIP3    H235171   2.874   5.092  14.047 -0.7437  0.4926  2.1151
 4586TIP3   OH235172   6.318   1.165  17.070  0.5790  0.0007 -0.2048
 4586TIP3    H135173   6.298   1.131  16.983 -0.9865 -0.6491  0.3615
 4586TIP3    H235174   6.388   1.108  17.103 -0.6919 -1.5605 -0.0179
 4587TIP3   OH235175   1.579   5.353  12.548  0.3980  0.0601 -0.1145
 4587TIP3    H135176   1.591   5.295  12.472 -0.4281 -1.2389  0.6976
 4587TIP3    H235177   1.543   5.434  12.511 -0.3212 -0.6726 -1.0871
 4588TIP3   OH235178   6.127   4.421  13.414 -0.2670  0.7011  0.5291
 4588TIP3    H135179   6.102   4.367  13.338 -0.7861  1.5366  0.0968
 4588TIP3    H235180   6.115   4.363  13.489  2.7114 -1.0239 -0.1531
 4589TIP3   OH235181   1.320   5.862  16.629  0.4287 -0.7832  0.2914
 4589TIP3    H135182   1.329   5.952  16.598 -1.5761 -0.7486 -0.3733
 4589TIP3    H235183   1.229   5.839  16.609  0.6791 -2.7100  1.1194
 4590TIP3   OH235184   3.883   5.492   0.685 -0.9621  0.5099  0.4373
 4590TIP3    H135185   3.820   5.457   0.622  0.7272 -0.2970 -0.8876
 4590TIP3    H235186   3.904   5.418   0.741 -0.9513  0.6927  0.6756
 4591TIP3   OH235187   0.848   2.460  14.919 -0.0535 -0.0411  0.2133
 4591TIP3    H135188   0.767   2.506  14.896 -0.5983 -0.9998  0.1555
 4591TIP3    H235189   0.910   2.486  14.852 -0.0372  1.4039  0.7582
 4592TIP3   OH235190   2.261   0.512   4.358  0.5266 -0.3406 -0.0820
 4592TIP3    H135191   2.266   0.446   4.289  0.8841 -0.8427  0.4256
 4592TIP3    H235192   2.309   0.587   4.323 -0.3650 -0.1175 -0.8972
 4593TIP3   OH235193   1.502   2.622   5.010 -0.1710  0.1282  0.1796
 4593TIP3    H135194   1.440   2.564   5.054  1.0799 -0.5924  1.0634
 4593TIP3    H235195   1.508   2.699   5.066  1.2656 -0.7011  1.2364
 4594TIP3   OH235196   2.720   1.892   5.406  0.4843 -0.2186  0.5142
 4594TIP3    H135197   2.708   1.910   5.499  1.0851  0.4072  0.4780
 4594TIP3    H235198   2.741   1.798   5.403  1.4855 -0.0344  1.1239
 4595TIP3   OH235199   1.963   6.466  12.075 -0.2437  0.0738  0.8572
 4595TIP3    H135200   1.971   6.374  12.101  1.7653  0.5700  2.2286
 4595TIP3    H235201   2.046   6.486  12.031 -0.7503  1.1861  0.3597
 4596TIP3   OH235202   1.487   0.788   5.052  0.1966  0.1316 -0.3969
 4596TIP3    H135203   1.565   0.817   5.097 -1.1093  1.8573  0.8735
 4596TIP3    H235204   1.477   0.696   5.079  1.8690 -0.2050 -0.7953
 4597TIP3   OH235205   2.845   5.019  15.134  0.5745 -0.3607  0.6823
 4597TIP3    H135206   2.831   5.014  15.040 -0.6422  0.6207  0.7819
 4597TIP3    H235207   2.802   5.100  15.160  1.6290 -0.1861  1.9611
 4598TIP3   OH235208   2.182   3.792  14.710  0.3014 -0.5251  0.1226
 4598TIP3    H135209   2.199   3.744  14.629  0.2071  0.2270 -0.3568
 4598TIP3    H235210   2.216   3.880  14.693  1.8840 -0.8071  1.5227
 4599TIP3   OH235211   6.082   5.597  14.530  0.3417  0.0887  0.2787
 4599TIP3    H135212   6.146   5.668  14.534  2.4228 -1.4848 -2.0958
 4599TIP3    H235213   6.133   5.517  14.539 -1.3928 -1.2384 -0.9233
 4600TIP3   OH235214   1.862   1.856  16.849 -0.3038 -0.0254  0.7925
 4600TIP3    H135215   1.809   1.896  16.918 -0.4311  0.5277  0.3862
 4600TIP3    H235216   1.853   1.916  16.775 -1.0287 -1.1481 -0.0587
 4601TIP3   OH235217   3.757   5.645   1.755  0.2580 -0.5416  0.0625
 4601TIP3    H135218   3.690   5.702   1.792 -0.2876 -0.8089 -0.4909
 4601TIP3    H235219   3.805   5.610   1.831  0.9145  1.0071  0.3938
 4602TIP3   OH235220   5.678   3.839  15.903 -0.4539  0.6203 -0.0759
 4602TIP3    H135221   5.673   3.792  15.986  2.2481 -2.0747 -1.2433
 4602TIP3    H235222   5.609   3.800  15.849  1.2635 -1.6555 -0.7731
 4603TIP3   OH235223   6.464   0.137  16.536 -0.1194 -0.0792 -0.0456
 4603TIP3    H135224   6.464   0.191  16.457  1.1944 -0.9968 -0.7198
 4603TIP3    H235225   6.460   0.047  16.503  1.6971 -0.5267  0.8284
 4604TIP3   OH235226   1.138   6.196   5.626 -0.0908  0.6917 -0.0797
 4604TIP3    H135227   1.162   6.227   5.539  1.6384  1.2174  0.5453
 4604TIP3    H235228   1.103   6.108   5.611  1.9618 -0.0087 -1.1515
 4605TIP3   OH235229   6.604   1.574  15.826  0.4376 -0.1060  0.1502
 4605TIP3    H135230   6.700   1.572  15.827  0.4638 -0.0309 -1.3338
 4605TIP3    H235231   6.580   1.561  15.735 -0.9853 -0.3376  0.5349
 4606TIP3   OH235232   5.391   0.766  16.430  0.0747  0.2625 -0.2099
 4606TIP3    H135233   5.440   0.809  16.501  1.9137 -0.9625 -0.6789
 4606TIP3    H235234   5.392   0.673  16.452 -3.0684  0.2469  0.3124
 4607TIP3   OH235235   4.172   0.763   5.141 -0.2483  0.1660 -0.2049
 4607TIP3    H135236   4.179   0.673   5.111 -2.0767 -0.3087  0.6800
 4607TIP3    H235237   4.226   0.766   5.220  1.1002  0.3038 -1.0936
 4608TIP3   OH235238   3.431   2.717   5.049 -0.1082  0.1844 -0.1012
 4608TIP3    H135239   3.486   2.647   5.013  1.4987  1.1143  0.4293
 4608TIP3    H235240   3.365   2.733   4.981 -0.2863 -1.5664 -0.3837
 4609TIP3   OH235241   5.052   2.298  13.998 -0.5964 -0.2444 -0.5031
 4609TIP3    H135242   4.969   2.256  13.976  0.0267 -1.3862 -0.7376
 4609TIP3    H235243   5.117   2.256  13.942  0.6619 -1.6196  1.8061
 4610TIP3   OH235244   0.397   2.006   1.119 -0.1313  0.3846 -0.0961
 4610TIP3    H135245   0.435   1.971   1.039  1.0474  0.9805  0.1931
 4610TIP3    H235246   0.334   1.939   1.147  1.1243 -0.9011 -0.2632
 4611TIP3   OH235247   6.743   6.304  14.191 -0.1397  0.1981  0.1140
 4611TIP3    H135248   6.690   6.229  14.219  0.8183 -0.0713  1.3059
 4611TIP3    H235249   6.732   6.308  14.096 -2.7512  0.5300  0.3736
 4612TIP3   OH235250   6.432   4.343  11.332 -0.6274 -0.0194 -0.3184
 4612TIP3    H135251   6.390   4.326  11.248 -0.3872 -2.4940  0.0010
 4612TIP3    H235252   6.360   4.362  11.392 -0.9941 -0.6277 -0.5672
 4613TIP3   OH235253   5.299   6.758   4.297 -0.4574  0.0150  0.5638
 4613TIP3    H135254   5.380   6.805   4.275 -1.4144  0.7605 -1.7857
 4613TIP3    H235255   5.243   6.825   4.336 -1.2519  0.5404 -1.3405
 4614TIP3   OH235256   6.249   4.362  16.732 -0.1304  0.0346 -0.2843
 4614TIP3    H135257   6.315   4.428  16.752 -0.8442  0.6770  0.0339
 4614TIP3    H235258   6.267   4.291  16.793  0.8273 -0.2041 -0.8253
 4615TIP3   OH235259   4.291   4.397  15.282 -0.0385  0.0780 -0.5120
 4615TIP3    H135260   4.299   4.458  15.355 -1.8171  0.1344 -0.3289
 4615TIP3    H235261   4.324   4.314  15.317 -0.9446  0.0845  0.4070
 4616TIP3   OH235262   4.315   3.932  15.101 -0.0472  0.5910 -0.6145
 4616TIP3    H135263   4.265   3.917  15.021 -2.0031  0.4363  0.5961
 4616TIP3    H235264   4.339   4.025  15.097 -0.3851  0.6583 -1.2114
 4617TIP3   OH235265   5.668   6.544  16.877  1.0463 -0.2739 -0.1050
 4617TIP3    H135266   5.714   6.619  16.838 -0.7847 -0.0994 -2.1114
 4617TIP3    H235267   5.625   6.580  16.954  0.8591  0.5556 -0.5840
 4618TIP3   OH235268   4.954   2.297  12.121 -0.1889 -0.1225  0.6852
 4618TIP3    H135269   5.029   2.256  12.079 -0.0839  0.1776  0.5786
 4618TIP3    H235270   4.942   2.379  12.074 -1.1835 -0.6021  0.0559
 4619TIP3   OH235271   0.737   0.954  11.188  0.5983  0.1328  0.0658
 4619TIP3    H135272   0.722   1.048  11.199 -0.8971 -0.3463  3.2845
 4619TIP3    H235273   0.660   0.923  11.141  0.1315  0.2738  0.7230
 4620TIP3   OH235274   1.556   5.277  11.792  0.1537  0.2097 -0.0116
 4620TIP3    H135275   1.519   5.284  11.880  1.2704  0.2849  0.4776
 4620TIP3    H235276   1.571   5.368  11.766 -0.4832  0.1990 -0.4180
 4621TIP3   OH235277   0.893   3.612   4.287 -0.3965 -0.0241 -0.1189
 4621TIP3    H135278   0.833   3.597   4.359 -0.1819 -1.6827 -0.2582
 4621TIP3    H235279   0.978   3.582   4.320 -0.6258 -2.5504 -1.6276
 4622TIP3   OH235280   6.157   6.447  14.292  0.0264 -0.2051 -0.7079
 4622TIP3    H135281   6.089   6.381  14.280  0.0033 -0.1219 -1.0341
 4622TIP3    H235282   6.118   6.511  14.352  0.2110 -0.7171 -0.0286
 4623TIP3   OH235283   1.702   0.769  12.089  0.4245  0.0516  0.0304
 4623TIP3    H135284   1.609   0.778  12.108  0.7007 -1.0578  2.2047
 4623TIP3    H235285   1.707   0.696  12.027 -0.1930  0.7633 -0.8816
 4624TIP3   OH235286   2.156   4.570   3.296  0.0848 -0.5019  0.6082
 4624TIP3    H135287   2.179   4.498   3.236  3.9263 -1.0740  2.4865
 4624TIP3    H235288   2.128   4.526   3.376  1.8024  0.0142  1.5396
 4625TIP3   OH235289   5.735   1.860  14.081  0.4893  0.3028 -0.2497
 4625TIP3    H135290   5.677   1.788  14.104  1.6316 -0.6886 -0.3371
 4625TIP3    H235291   5.677   1.929  14.050 -0.6461 -0.5829 -0.1755
 4626TIP3   OH235292   5.876   0.264  16.788 -0.4311 -0.3327  0.0980
 4626TIP3    H135293   5.962   0.245  16.825 -0.5084  1.8816  1.5810
 4626TIP3    H235294   5.895   0.300  16.701  0.1509  0.1017  0.3968
 4627TIP3   OH235295   1.046   1.513  12.251 -0.0921  0.1445  0.1154
 4627TIP3    H135296   1.123   1.462  12.227 -0.6043 -0.5249 -0.1188
 4627TIP3    H235297   1.074   1.564  12.327  0.7617  0.3572 -0.3262
 4628TIP3   OH235298   6.230   5.113   4.244  0.2503 -0.0057  0.1032
 4628TIP3    H135299   6.151   5.084   4.290  0.4457  0.1478  0.5328
 4628TIP3    H235300   6.287   5.036   4.244 -0.3691 -0.5078 -1.2764
 4629TIP3   OH235301   4.679   4.993   0.291  0.0565 -0.6087 -0.1452
 4629TIP3    H135302   4.738   4.946   0.350  0.5432  0.8851  0.6008
 4629TIP3    H235303   4.714   5.082   0.288 -0.9209 -0.2386 -1.3990
 4630TIP3   OH235304   3.949   1.773  12.881  0.4326 -0.5338  0.2486
 4630TIP3    H135305   3.858   1.769  12.909  0.4709 -1.1335  0.3008
 4630TIP3    H235306   3.947   1.753  12.788  0.2762  1.7543 -0.2883
 4631TIP3   OH235307   1.002   4.779   5.179 -0.0732 -0.2130  0.1205
 4631TIP3    H135308   0.995   4.867   5.215  0.4199 -0.3283  0.5160
 4631TIP3    H235309   0.912   4.751   5.165 -0.2187  0.5600 -0.5307
 4632TIP3   OH235310   4.338   3.188   4.631 -0.1481  0.4406  0.3265
 4632TIP3    H135311   4.348   3.114   4.572 -3.4850 -0.6418  0.9038
 4632TIP3    H235312   4.282   3.249   4.584 -0.3572  0.9363  1.1938
 4633TIP3   OH235313   0.331   6.305   5.433 -0.0651  0.2601 -0.2422
 4633TIP3    H135314   0.251   6.321   5.382 -1.0783  1.2810  1.5611
 4633TIP3    H235315   0.307   6.329   5.522  1.5296 -1.7476  0.8082
 4634TIP3   OH235316   4.306   1.399  13.809 -0.1885 -0.9741 -0.4182
 4634TIP3    H135317   4.253   1.445  13.743  1.0956  0.0494 -0.7761
 4634TIP3    H235318   4.290   1.448  13.890  0.4434 -0.4621 -0.5969
 4635TIP3   OH235319   2.598   4.870  11.964  0.2148  0.2823  0.4424
 4635TIP3    H135320   2.600   4.792  11.909  0.0925 -1.0435  2.2285
 4635TIP3    H235321   2.508   4.874  11.996  1.1630 -1.3017  3.6372
 4636TIP3   OH235322   6.283   1.496  11.882  0.8335 -0.0605  0.2886
 4636TIP3    H135323   6.370   1.498  11.842  1.5475 -0.0808  1.7854
 4636TIP3    H235324   6.289   1.559  11.954 -0.1415 -0.6586  0.9007
 4637TIP3   OH235325   6.771   4.645  14.476  0.4290 -0.5288  0.0112
 4637TIP3    H135326   6.676   4.640  14.475  0.3124  0.8189  1.0001
 4637TIP3    H235327   6.800   4.554  14.469 -0.9069 -0.9259 -0.6762
 4638TIP3   OH235328   4.814   0.442   6.489 -0.4510  1.2296  0.1940
 4638TIP3    H135329   4.811   0.500   6.413 -0.4198  0.5317 -0.3434
 4638TIP3    H235330   4.730   0.396   6.488 -1.4165  2.8450  1.8972
 4639TIP3   OH235331   1.271   6.820   0.889 -0.4610 -0.5491  0.2143
 4639TIP3    H135332   1.310   6.767   0.958 -0.8632  0.2022  1.0295
 4639TIP3    H235333   1.343   6.872   0.855 -0.0592 -1.5833 -0.5998
 4640TIP3   OH235334   6.083   4.110   4.661  0.5433  0.2352  0.2762
 4640TIP3    H135335   6.168   4.067   4.672  0.5568  0.0683 -0.4154
 4640TIP3    H235336   6.090   4.154   4.576  0.0040  0.3855  0.3071
 4641TIP3   OH235337   0.633   2.614   5.997  0.5935 -0.0989  0.6713
 4641TIP3    H135338   0.580   2.550   5.950  2.0628 -1.7115  1.1501
 4641TIP3    H235339   0.577   2.643   6.069  0.0132 -1.0777  0.6321
 4642TIP3   OH235340   0.314   3.174  13.788 -0.3416 -0.0965  0.0215
 4642TIP3    H135341   0.268   3.096  13.756 -1.2602 -0.5713  2.2913
 4642TIP3    H235342   0.249   3.221  13.840  0.0112  2.5837 -1.7394
 4643TIP3   OH235343   5.740   3.603   5.602 -0.3048 -0.2961  0.3110
 4643TIP3    H135344   5.787   3.634   5.680  0.9688 -1.4724  0.0321
 4643TIP3    H235345   5.807   3.595   5.535 -1.3279  0.3347 -0.8333
 4644TIP3   OH235346   4.982   5.360   2.864  0.2685  0.2486  0.2185
 4644TIP3    H135347   4.912   5.296   2.881 -0.2260  0.7424  0.0896
 4644TIP3    H235348   5.021   5.332   2.782  0.1253  0.0441  0.2200
 4645TIP3   OH235349   3.325   0.271  12.792 -0.0337  0.1820  0.6085
 4645TIP3    H135350   3.387   0.232  12.730  1.8582 -0.6169  2.8843
 4645TIP3    H235351   3.346   0.364  12.791  1.3719 -0.0917  1.4408
 4646TIP3   OH235352   2.141   3.614  15.126  0.3428  0.1010  0.1975
 4646TIP3    H135353   2.179   3.535  15.166 -0.7707  0.0349  1.2014
 4646TIP3    H235354   2.052   3.587  15.101  0.3793  0.7004 -0.5738
 4647TIP3   OH235355   4.448   3.970   4.589 -0.1067 -0.4417 -0.2688
 4647TIP3    H135356   4.368   3.980   4.538  0.0096  1.3038 -0.1407
 4647TIP3    H235357   4.420   3.976   4.680  0.3178  1.6194 -0.2447
 4648TIP3   OH235358   2.795   2.606  15.451  0.8480 -0.2845 -0.3353
 4648TIP3    H135359   2.759   2.682  15.404  2.9874  1.0974  0.0937
 4648TIP3    H235360   2.755   2.610  15.537  2.0385  1.3529  0.2083
 4649TIP3   OH235361   2.081   4.007  13.006  0.2602 -0.1304  0.2392
 4649TIP3    H135362   2.030   4.042  13.079 -1.8912  0.7279 -1.5222
 4649TIP3    H235363   2.015   3.989  12.938  2.2728  0.7158 -2.0844
 4650TIP3   OH235364   5.122   3.646  17.056  0.1285 -0.3025 -0.3944
 4650TIP3    H135365   5.152   3.565  17.014 -0.5541  0.9926 -3.6220
 4650TIP3    H235366   5.027   3.643  17.049  0.0609  0.4742  0.0886
 4651TIP3   OH235367   2.278   1.785   3.003  0.1080  0.1165  0.0803
 4651TIP3    H135368   2.313   1.793   3.092 -3.1731  1.3600  1.4234
 4651TIP3    H235369   2.315   1.860   2.956  1.3311 -0.1499  0.5861
 4652TIP3   OH235370   3.726   2.143  11.414 -0.0084  0.5407 -0.3002
 4652TIP3    H135371   3.709   2.123  11.322  0.5283 -3.2117  0.2264
 4652TIP3    H235372   3.815   2.177  11.416  0.0333  0.4927 -1.1562
 4653TIP3   OH235373   0.020   2.569   3.535  0.4592  0.1331  0.1428
 4653TIP3    H135374  -0.045   2.560   3.605  3.4675  2.2091  3.5986
 4653TIP3    H235375  -0.019   2.631   3.474 -1.9156 -0.9611  0.4457
 4654TIP3   OH235376   0.108   3.291  14.711  0.3629 -0.3260 -0.1188
 4654TIP3    H135377   0.162   3.286  14.632  0.0581 -0.4197 -0.3250
 4654TIP3    H235378   0.142   3.221  14.767  1.7718  0.8964  0.6026
 4655TIP3   OH235379   2.241   1.455   6.309 -0.4419 -0.4846  0.2475
 4655TIP3    H135380   2.319   1.484   6.262 -0.6115 -1.8747 -0.9961
 4655TIP3    H235381   2.171   1.457   6.243 -0.7430 -2.2622  0.4519
 4656TIP3   OH235382   2.017   5.448  16.343  0.3223 -0.5222  0.0086
 4656TIP3    H135383   2.054   5.446  16.431 -1.2833 -1.4862  0.7081
 4656TIP3    H235384   2.092   5.430  16.285  1.5632  0.9449  1.0773
 4657TIP3   OH235385   5.701   5.276  16.818 -0.1668  0.6104  0.8055
 4657TIP3    H135386   5.632   5.342  16.820 -1.2088 -0.4163 -0.1719
 4657TIP3    H235387   5.663   5.202  16.773  1.4573 -0.1493  0.5953
 4658TIP3   OH235388   5.789   4.747   1.143  0.4038 -0.1167  0.0244
 4658TIP3    H135389   5.730   4.696   1.200  0.5574  0.8230  1.0589
 4658TIP3    H235390   5.807   4.689   1.069 -0.2557 -1.1633  0.6579
 4659TIP3   OH235391   3.523   5.810   2.296  0.0672 -0.1458 -0.2247
 4659TIP3    H135392   3.531   5.778   2.386 -0.6259  0.9892  0.2640
 4659TIP3    H235393   3.555   5.900   2.299 -0.6808  0.1560 -0.9386
 4660TIP3   OH235394   5.968   6.665  16.421  0.1590 -0.1828  0.5559
 4660TIP3    H135395   5.915   6.667  16.341  1.0828  0.6412 -0.0629
 4660TIP3    H235396   5.908   6.635  16.489 -0.9813  0.2966 -0.2095
 4661TIP3   OH235397   0.645   1.143  13.082 -0.6744 -0.6723  0.6348
 4661TIP3    H135398   0.667   1.134  12.989  2.3189 -1.9023  1.3665
 4661TIP3    H235399   0.579   1.212  13.083  0.2368  0.4207 -2.2822
 4662TIP3   OH235400   0.844   1.606   4.140  0.2736 -0.5436  0.1568
 4662TIP3    H135401   0.838   1.659   4.060  0.1417 -2.3716 -1.1191
 4662TIP3    H235402   0.938   1.594   4.153  0.2964 -1.6485 -0.7774
 4663TIP3   OH235403   4.320   6.268  12.858 -0.1924  0.0089 -0.7771
 4663TIP3    H135404   4.354   6.341  12.909  0.2670 -0.6299 -0.1381
 4663TIP3    H235405   4.250   6.306  12.805  2.4694  1.6910 -3.3182
 4664TIP3   OH235406   6.455   5.528   0.806 -0.1689 -0.5839 -0.5670
 4664TIP3    H135407   6.497   5.609   0.777 -0.5071 -0.8729 -1.9067
 4664TIP3    H235408   6.464   5.530   0.902 -0.7727  1.3716 -0.4973
 4665TIP3   OH235409   5.481   5.477  12.005 -0.2900  0.5212  0.0137
 4665TIP3    H135410   5.520   5.488  12.092  0.9901 -0.4245 -0.4135
 4665TIP3    H235411   5.393   5.445  12.022  0.5666 -1.4967  0.9851
 4666TIP3   OH235412   1.624   6.766   6.063 -0.3227  0.0986 -0.2937
 4666TIP3    H135413   1.578   6.718   6.132 -0.2038  1.4607  0.7913
 4666TIP3    H235414   1.646   6.700   5.998 -1.5018 -1.0275  0.4063
 4667TIP3   OH235415   4.368   1.655  15.807  0.8531 -0.5312 -0.4191
 4667TIP3    H135416   4.310   1.685  15.877  1.2897  0.8520 -0.6215
 4667TIP3    H235417   4.452   1.638  15.849  0.5027 -1.9806 -0.2293
 4668TIP3   OH235418   2.349   1.347   4.731  0.0290  0.1706  0.1502
 4668TIP3    H135419   2.283   1.371   4.667  0.2396 -3.0140 -1.4657
 4668TIP3    H235420   2.430   1.340   4.680  0.4294 -1.3682  0.9320
 4669TIP3   OH235421   0.393   2.412  13.487 -0.1930  0.3155 -0.2697
 4669TIP3    H135422   0.436   2.344  13.434 -1.8543 -1.4846  0.5525
 4669TIP3    H235423   0.461   2.444  13.545  1.1230  0.7913 -1.9959
 4670TIP3   OH235424   6.490   4.582   0.431  0.3790 -0.4210 -0.2736
 4670TIP3    H135425   6.497   4.517   0.501  0.6598  0.9037  0.9903
 4670TIP3    H235426   6.427   4.544   0.370  0.5330 -1.8665  0.4094
 4671TIP3   OH235427   2.798   3.615   0.562 -0.3381 -0.0462  0.1755
 4671TIP3    H135428   2.743   3.608   0.640 -1.2415 -0.7735 -0.5094
 4671TIP3    H235429   2.746   3.666   0.500 -0.0503 -0.3305 -0.3053
 4672TIP3   OH235430   3.499   1.526   0.639 -0.0986  0.3333 -0.0349
 4672TIP3    H135431   3.543   1.605   0.606  1.9499 -0.0015  1.6751
 4672TIP3    H235432   3.442   1.558   0.709  0.2453  0.3815  0.2259
 4673TIP3   OH235433   3.577   1.222  11.157  0.2220  0.0423 -0.0396
 4673TIP3    H135434   3.492   1.179  11.145  0.0414  0.4253 -0.1426
 4673TIP3    H235435   3.597   1.259  11.071 -0.6806  2.0826  0.5725
 4674TIP3   OH235436   0.620   2.947  12.780 -0.4576  0.2178  0.3555
 4674TIP3    H135437   0.603   3.033  12.741 -0.9644 -0.3311 -0.6674
 4674TIP3    H235438   0.660   2.967  12.864 -2.0291  1.4851  0.8439
 4675TIP3   OH235439   1.716   2.564  16.317 -0.2902  0.0557 -0.3064
 4675TIP3    H135440   1.752   2.598  16.235 -0.5461 -0.6242 -0.7103
 4675TIP3    H235441   1.764   2.483  16.333 -0.3292  0.1183  0.1489
 4676TIP3   OH235442   1.104   2.802  15.656  0.1187 -0.2427  0.1182
 4676TIP3    H135443   1.114   2.795  15.561 -0.8157 -2.1410  0.1015
 4676TIP3    H235444   1.187   2.770  15.692  0.4572  0.4377 -0.0481
 4677TIP3   OH235445   1.298   4.668  12.545  0.3362  0.4878 -0.5621
 4677TIP3    H135446   1.250   4.600  12.593 -0.4698  1.4763  0.0636
 4677TIP3    H235447   1.389   4.639  12.547 -0.1987 -1.4570 -1.8191
 4678TIP3   OH235448   1.867   4.996   1.824  0.1253 -0.2455  0.0386
 4678TIP3    H135449   1.871   5.083   1.785  2.4990 -0.0835  0.5381
 4678TIP3    H235450   1.900   4.938   1.756  1.3910 -0.3449  0.7141
 4679TIP3   OH235451   4.604   1.261   2.348  0.0739 -0.1092 -0.5369
 4679TIP3    H135452   4.688   1.227   2.318  1.3230  1.0580  1.3831
 4679TIP3    H235453   4.627   1.336   2.404 -2.2672  0.4977 -0.2717
 4680TIP3   OH235454   5.065   4.434   5.129  0.0700  0.3610 -0.2465
 4680TIP3    H135455   4.985   4.473   5.164 -0.4344  0.3634 -1.3762
 4680TIP3    H235456   5.102   4.386   5.204  0.4796  2.5575  1.0600
 4681TIP3   OH235457   2.517   1.386  13.099 -0.1967  0.0584 -0.3238
 4681TIP3    H135458   2.574   1.422  13.031  0.6522  1.7106  1.1497
 4681TIP3    H235459   2.436   1.437  13.092 -0.7823 -0.9580 -1.1724
 4682TIP3   OH235460   5.975   1.698   1.248 -0.1859 -0.2809 -0.1308
 4682TIP3    H135461   5.939   1.786   1.241 -1.2968 -0.8336 -1.9315
 4682TIP3    H235462   5.985   1.668   1.157  0.0932 -2.0356  0.4287
 4683TIP3   OH235463   1.259   5.552  15.508 -0.4308  0.3129 -0.1475
 4683TIP3    H135464   1.225   5.569  15.420  1.3680  0.5724 -0.8329
 4683TIP3    H235465   1.260   5.457  15.516 -1.7475  0.3081  0.0765
 4684TIP3   OH235466   5.660   4.225   3.873 -0.1632 -0.4753  0.8658
 4684TIP3    H135467   5.752   4.199   3.870 -0.0090 -0.0726  1.6512
 4684TIP3    H235468   5.623   4.194   3.791  1.1049  0.9513 -0.3059
 4685TIP3   OH235469   2.281   0.534  16.643  0.2788  0.1562  0.3307
 4685TIP3    H135470   2.278   0.460  16.703  0.9239 -0.4418 -0.3461
 4685TIP3    H235471   2.237   0.605  16.690 -2.6392 -1.3180  0.0432
 4686TIP3   OH235472   0.426   0.366   5.880  0.3834  0.0957 -0.3722
 4686TIP3    H135473   0.486   0.418   5.933  0.3740 -0.0992 -0.1683
 4686TIP3    H235474   0.346   0.361   5.932  0.1271  0.5120 -0.7286
 4687TIP3   OH235475   0.552   2.895   2.538 -0.0993 -0.5070 -0.0390
 4687TIP3    H135476   0.570   2.819   2.482 -2.2031  0.1936 -1.8467
 4687TIP3    H235477   0.456   2.904   2.535 -0.3039 -0.2622  3.5646
 4688TIP3   OH235478   6.638   1.185   2.485  0.0531  0.0670 -0.1418
 4688TIP3    H135479   6.677   1.122   2.545  0.6053  1.9315  1.5980
 4688TIP3    H235480   6.709   1.206   2.424  0.4259  0.2606  0.3457
 4689TIP3   OH235481   0.329   0.746  16.831 -0.0260  0.1242 -0.0611
 4689TIP3    H135482   0.356   0.834  16.803 -0.6043  0.5674  0.7371
 4689TIP3    H235483   0.237   0.756  16.854  0.5340 -0.0417  2.5902
 4690TIP3   OH235484   1.920   1.590   2.619  0.6194 -0.7304 -0.4196
 4690TIP3    H135485   2.002   1.638   2.632  0.6460 -0.7264 -0.5972
 4690TIP3    H235486   1.927   1.514   2.676 -0.0894  0.2841  1.0947
 4691TIP3   OH235487   1.636   4.772  12.836  0.8691  0.4294 -0.0071
 4691TIP3    H135488   1.682   4.855  12.841 -0.1695  0.9941  0.4066
 4691TIP3    H235489   1.564   4.787  12.775 -0.0993  0.2351  1.0546
 4692TIP3   OH235490   4.888   4.040   0.335  0.0536 -0.8592 -0.6151
 4692TIP3    H135491   4.865   4.074   0.249 -2.6243 -2.1893 -0.5347
 4692TIP3    H235492   4.904   3.947   0.321  0.7021 -0.8824  0.1794
 4693TIP3   OH235493   1.734   3.106   0.411 -0.2931  0.9367 -0.3587
 4693TIP3    H135494   1.686   3.031   0.377 -0.1502 -1.6874  4.4488
 4693TIP3    H235495   1.666   3.163   0.448 -0.1400  1.4406 -0.8298
 4694TIP3   OH235496   1.257   3.316   3.726 -0.2523  0.2158  0.3144
 4694TIP3    H135497   1.340   3.319   3.679 -0.0132 -1.0707  0.6374
 4694TIP3    H235498   1.195   3.279   3.663 -0.6562  1.3877 -0.0048
 4695TIP3   OH235499   5.719   0.155   3.633  0.4104  0.6447 -0.0309
 4695TIP3    H135500   5.737   0.071   3.590  1.5858  0.7070  0.3055
 4695TIP3    H235501   5.696   0.214   3.562 -1.5371 -0.2095 -0.1803
 4696TIP3   OH235502   6.475   4.262  15.546 -0.1817  0.1604  0.0254
 4696TIP3    H135503   6.545   4.314  15.587  0.1582 -0.7794  0.6601
 4696TIP3    H235504   6.488   4.174  15.580 -1.8582  0.0209  0.3663
 4697TIP3   OH235505   0.187   3.635  10.710  0.5647 -0.2523 -0.3611
 4697TIP3    H135506   0.254   3.612  10.645  3.1373  0.7325  1.7750
 4697TIP3    H235507   0.122   3.686  10.661  1.6003 -0.8068 -2.4278
 4698TIP3   OH235508   2.017   4.621   2.329  0.4757  0.0722 -0.2120
 4698TIP3    H135509   2.066   4.628   2.247 -0.0748 -0.3635 -0.5874
 4698TIP3    H235510   1.926   4.612   2.301  0.2282  0.4698  0.4666
 4699TIP3   OH235511   3.192   2.483  12.880  0.6420  0.6464 -0.6064
 4699TIP3    H135512   3.234   2.534  12.810 -0.3043  1.8468 -0.3414
 4699TIP3    H235513   3.180   2.546  12.951  1.4720 -0.5309  0.6076
 4700TIP3   OH235514   1.136   5.631   4.566  0.2129  0.0640  0.1501
 4700TIP3    H135515   1.147   5.550   4.615  3.3558 -0.0870 -0.5956
 4700TIP3    H235516   1.168   5.699   4.625  1.2957  0.2367 -0.6148
 4701TIP3   OH235517   6.301   4.706   2.177  0.1245  0.1050 -0.3222
 4701TIP3    H135518   6.395   4.708   2.193 -0.0890  0.1445  1.0584
 4701TIP3    H235519   6.266   4.778   2.230 -0.5525  1.0250 -1.9249
 4702TIP3   OH235520   2.054   6.255   2.652 -0.1791  0.6811 -0.1902
 4702TIP3    H135521   2.036   6.191   2.720  1.1206  1.2703  0.7344
 4702TIP3    H235522   1.983   6.319   2.660 -0.0056  0.7751  0.6523
 4703TIP3   OH235523   3.039   6.245   1.656 -0.6804 -0.2575 -0.0474
 4703TIP3    H135524   3.017   6.338   1.666  0.0317  0.1877 -2.1462
 4703TIP3    H235525   3.109   6.244   1.592 -1.4717 -2.3438 -0.9627
 4704TIP3   OH235526   3.762   1.567   3.821  0.8363  0.2866  0.2012
 4704TIP3    H135527   3.776   1.520   3.739 -1.7938 -0.2305 -0.0383
 4704TIP3    H235528   3.700   1.513   3.869  0.8220  1.5641  1.6944
 4705TIP3   OH235529   2.844   2.559   3.824  0.1348  0.0267 -0.5987
 4705TIP3    H135530   2.892   2.636   3.855 -0.8416 -0.2337  1.7756
 4705TIP3    H235531   2.911   2.502   3.786  1.4690  0.4144  1.0641
 4706TIP3   OH235532   0.539   1.551  10.577 -0.2486 -0.0768  0.2522
 4706TIP3    H135533   0.599   1.603  10.524  0.1408 -0.4411  0.3234
 4706TIP3    H235534   0.596   1.507  10.641 -0.5153 -0.9282 -0.0844
 4707TIP3   OH235535   6.303   6.415  15.266 -0.3127  0.0039 -0.4309
 4707TIP3    H135536   6.368   6.464  15.316 -0.5386 -0.6873  0.5566
 4707TIP3    H235537   6.318   6.323  15.290 -0.5148 -0.3350 -1.5361
 4708TIP3   OH235538   4.688   6.123  15.651 -0.4633 -0.2033  0.3328
 4708TIP3    H135539   4.696   6.179  15.728  0.1011 -2.1463  1.7649
 4708TIP3    H235540   4.759   6.151  15.594 -1.1269  1.5229  0.3160
 4709TIP3   OH235541   1.500   1.831  10.440  0.2322 -0.1669 -0.3108
 4709TIP3    H135542   1.416   1.819  10.396  0.0689  0.0083 -0.0490
 4709TIP3    H235543   1.520   1.924  10.428 -0.1677  0.0486  0.6088
 4710TIP3   OH235544   1.979   6.350  11.702  0.3387 -0.0272  0.0933
 4710TIP3    H135545   1.920   6.371  11.774 -0.1419 -0.7224 -0.0831
 4710TIP3    H235546   2.026   6.272  11.732 -0.0307 -0.4573 -0.4278
 4711TIP3   OH235547   3.649   3.923   3.646 -0.0245 -0.2929  0.3928
 4711TIP3    H135548   3.712   3.995   3.643 -0.0229 -0.3224 -1.2333
 4711TIP3    H235549   3.579   3.954   3.702  1.3254 -0.1845  2.0943
 4712TIP3   OH235550   3.037   2.709  11.325 -0.3458  0.3778  0.2774
 4712TIP3    H135551   2.984   2.677  11.252 -2.0399  0.6693  1.3088
 4712TIP3    H235552   2.998   2.794  11.348  1.8531  1.5901 -0.1672
 4713TIP3   OH235553   0.966   4.471   3.591 -0.5677  0.2322 -0.2345
 4713TIP3    H135554   0.934   4.382   3.575 -1.7630  0.7275 -0.7872
 4713TIP3    H235555   1.059   4.467   3.570 -0.6762 -0.8097 -0.6040
 4714TIP3   OH235556   2.944   2.677   1.120 -0.8448  0.7389 -0.2566
 4714TIP3    H135557   3.022   2.720   1.157 -1.6694  1.2109  0.9964
 4714TIP3    H235558   2.979   2.620   1.051  0.9172 -0.9987  1.9072
 4715TIP3   OH235559   0.983   4.644  15.358  0.2971 -0.3526 -0.1396
 4715TIP3    H135560   0.914   4.704  15.331 -0.6349 -0.6619  1.4016
 4715TIP3    H235561   0.937   4.575  15.406  1.6236 -0.9142  0.3790
 4716TIP3   OH235562   5.107   0.026   6.782 -0.0827 -0.3276  0.0810
 4716TIP3    H135563   5.175   0.057   6.841 -0.4798  1.6969 -0.4282
 4716TIP3    H235564   5.112  -0.069   6.786  1.5492 -0.2215  1.4325
 4717TIP3   OH235565   0.681   5.243   0.156 -0.0503  0.8414  0.0788
 4717TIP3    H135566   0.627   5.181   0.108  0.5166  1.4106 -1.3259
 4717TIP3    H235567   0.731   5.189   0.218  0.9735 -0.2289 -1.6189
 4718TIP3   OH235568   1.696   2.173  15.753  0.1878 -0.6856  0.5270
 4718TIP3    H135569   1.764   2.108  15.770 -1.3613 -2.3413  0.7250
 4718TIP3    H235570   1.701   2.233  15.828  0.3847 -1.7344  1.3849
 4719TIP3   OH235571   3.482   4.518   2.534 -0.6974  0.3962  0.0467
 4719TIP3    H135572   3.471   4.514   2.439 -1.4263  0.0561  0.1415
 4719TIP3    H235573   3.393   4.518   2.569 -0.4273 -1.1646  0.7980
 4720TIP3   OH235574   4.172   0.961   0.684 -0.6080 -0.2742  0.9622
 4720TIP3    H135575   4.111   0.934   0.616 -0.8704  0.6944  0.7938
 4720TIP3    H235576   4.117   0.976   0.761 -0.7307  1.3111  0.6141
 4721TIP3   OH235577   3.104   1.592  13.065 -0.0151 -0.5912 -0.2834
 4721TIP3    H135578   3.112   1.499  13.085  0.3250 -0.0343  2.4670
 4721TIP3    H235579   3.010   1.611  13.073 -0.0183 -0.5716 -0.3562
 4722TIP3   OH235580   6.681   4.096   5.975 -0.0481  0.2319 -0.2679
 4722TIP3    H135581   6.768   4.113   5.939  0.8484 -0.8568  1.2746
 4722TIP3    H235582   6.684   4.134   6.063 -0.5238 -1.3294  0.4495
 4723TIP3   OH235583   5.184   1.696  13.458 -0.6285  0.2355 -0.0215
 4723TIP3    H135584   5.205   1.685  13.365 -1.1211 -2.0205  0.0959
 4723TIP3    H235585   5.269   1.699  13.502 -0.3317  2.6737 -0.6052
 4724TIP3   OH235586   4.726   3.243   0.991  0.3154 -0.0074 -0.1777
 4724TIP3    H135587   4.729   3.148   1.004  2.9431  0.2068  1.4184
 4724TIP3    H235588   4.695   3.277   1.075  2.0749  0.6487  0.2348
 4725TIP3   OH235589   2.265   1.789   1.948  0.4894 -0.6681  0.5959
 4725TIP3    H135590   2.330   1.745   2.002  0.5034 -0.6751  0.5731
 4725TIP3    H235591   2.187   1.795   2.004  1.5565  2.5218  1.9328
 4726TIP3   OH235592   3.648   3.554   5.753  0.2496  0.0732 -0.1325
 4726TIP3    H135593   3.620   3.463   5.755 -2.2738  0.7269 -1.5172
 4726TIP3    H235594   3.578   3.600   5.706  1.4718  2.7160  0.4266
 4727TIP3   OH235595   5.486   6.581  12.684  0.0315 -0.0373 -0.2281
 4727TIP3    H135596   5.566   6.536  12.714 -0.4242 -0.4856  0.3382
 4727TIP3    H235597   5.450   6.621  12.763 -1.2131 -1.2656 -0.1257
 4728TIP3   OH235598   4.323   4.513  16.300 -0.1109 -0.1003 -0.0305
 4728TIP3    H135599   4.316   4.479  16.389  1.0424  0.6873  0.3879
 4728TIP3    H235600   4.363   4.441  16.250 -0.3407 -0.3824  0.1923
 4729TIP3   OH235601   2.280   0.914  16.481 -0.0720  0.0685  0.3563
 4729TIP3    H135602   2.249   0.974  16.550  1.0594  0.0184  0.9402
 4729TIP3    H235603   2.375   0.922  16.484 -0.0023  1.3015 -2.3290
 4730TIP3   OH235604   4.266   5.510  15.420 -0.1992  0.5373 -0.4832
 4730TIP3    H135605   4.215   5.431  15.437 -1.2857  1.1990 -0.5622
 4730TIP3    H235606   4.357   5.480  15.411 -0.0890 -0.3622  2.5840
 4731TIP3   OH235607   6.786   3.299   5.356 -0.4872  0.0798 -0.2136
 4731TIP3    H135608   6.732   3.243   5.413  0.4895 -0.1513  0.5291
 4731TIP3    H235609   6.875   3.286   5.389  0.1694 -0.3555 -2.0686
 4732TIP3   OH235610   5.359   2.078   5.992  0.1239 -0.5809  0.2675
 4732TIP3    H135611   5.342   1.984   6.003  1.9371 -1.0019 -0.2774
 4732TIP3    H235612   5.439   2.095   6.042 -0.1315  0.6705  0.2962
 4733TIP3   OH235613   5.954   5.386   6.100 -0.4284 -0.0387 -0.3948
 4733TIP3    H135614   6.019   5.445   6.063 -1.3209  1.2771  0.0811
 4733TIP3    H235615   5.962   5.397   6.194 -1.0133 -0.2312 -0.3192
 4734TIP3   OH235616   6.013   2.459  11.366 -0.0723  0.1638  0.9226
 4734TIP3    H135617   5.933   2.406  11.369  0.2459 -0.3702  0.1740
 4734TIP3    H235618   5.986   2.542  11.328 -0.2044 -0.1405  0.3506
 4735TIP3   OH235619   5.539   1.408  15.002 -0.7110  0.1370  0.0009
 4735TIP3    H135620   5.541   1.318  14.971  0.0807 -0.2459  1.1328
 4735TIP3    H235621   5.446   1.428  15.011 -0.8788 -0.8427  0.5433
 4736TIP3   OH235622   6.009   3.102  12.044  0.0393  0.1885  0.4985
 4736TIP3    H135623   6.076   3.065  11.986  0.1647 -0.1147  0.8347
 4736TIP3    H235624   5.931   3.049  12.028  0.0711  0.1113  0.5985
 4737TIP3   OH235625   0.564   0.189  15.622  0.1061 -0.0891  0.0757
 4737TIP3    H135626   0.655   0.214  15.607 -0.0420  2.1183  2.2447
 4737TIP3    H235627   0.564   0.146  15.707 -0.9561  0.5648  0.4254
 4738TIP3   OH235628   1.692   4.635   4.541 -0.1489  0.0438  0.6773
 4738TIP3    H135629   1.751   4.700   4.580 -0.7559  1.2089 -0.2697
 4738TIP3    H235630   1.719   4.631   4.449 -0.8381 -0.2240  0.4837
 4739TIP3   OH235631   1.526   3.213   5.753  0.1198  0.3645  0.1174
 4739TIP3    H135632   1.495   3.132   5.711  1.1239 -0.4252  0.8576
 4739TIP3    H235633   1.502   3.282   5.691 -1.8268 -0.3452  0.0168
 4740TIP3   OH235634   6.362   1.145   3.696 -0.3664  0.1160  0.1449
 4740TIP3    H135635   6.325   1.071   3.649 -2.2657  1.2058 -0.2012
 4740TIP3    H235636   6.418   1.189   3.632 -2.4566  1.2409 -1.0454
 4741TIP3   OH235637   4.097   5.602  16.040  0.2316  0.5968  0.2399
 4741TIP3    H135638   4.163   5.670  16.052 -0.5742  1.3393  0.5073
 4741TIP3    H235639   4.048   5.629  15.963 -0.7100  0.8381  0.9080
 4742TIP3   OH235640   1.904   3.523  13.132  0.4491 -0.3345  0.1000
 4742TIP3    H135641   1.858   3.606  13.147  0.1651 -0.7582  1.7512
 4742TIP3    H235642   1.993   3.549  13.109 -0.2842  0.4730 -2.1570
 4743TIP3   OH235643   3.629   1.406   2.234 -0.1893 -0.0482  0.0543
 4743TIP3    H135644   3.685   1.338   2.198  1.1953  1.2066 -0.2302
 4743TIP3    H235645   3.560   1.358   2.280  0.3553 -1.6338 -0.7230
 4744TIP3   OH235646   0.495   0.774   0.865 -0.1682  0.5426  0.2464
 4744TIP3    H135647   0.433   0.772   0.792  0.5742  0.5542 -0.4008
 4744TIP3    H235648   0.500   0.683   0.894  1.3483  0.0614 -1.3237
 4745TIP3   OH235649   6.653   2.225   4.939 -0.4661  0.1114  0.4206
 4745TIP3    H135650   6.748   2.221   4.944 -0.1406  3.8995 -0.2666
 4745TIP3    H235651   6.624   2.229   5.030  0.0861 -0.0459  0.6051
 4746TIP3   OH235652   4.700   5.551  13.001 -0.9292 -0.4391 -0.2445
 4746TIP3    H135653   4.622   5.517  13.045 -0.6964 -0.4459  0.1677
 4746TIP3    H235654   4.692   5.647  13.009 -0.7148 -0.4516  0.1101
 4747TIP3   OH235655   5.933   1.746  15.776  0.0378 -0.4135 -0.3272
 4747TIP3    H135656   5.867   1.765  15.710  0.3470  0.1485 -0.4859
 4747TIP3    H235657   5.900   1.669  15.823 -0.5617 -0.3358 -0.6194
 4748TIP3   OH235658   5.778   0.172  11.503 -0.1963  0.1580 -0.4646
 4748TIP3    H135659   5.736   0.167  11.589 -0.0157 -0.3499 -0.3995
 4748TIP3    H235660   5.807   0.263  11.496  1.2795 -0.1839  0.7372
 4749TIP3   OH235661   6.564   1.232  15.652 -0.3060  0.2118 -0.1474
 4749TIP3    H135662   6.470   1.227  15.633 -0.2930 -1.4786  0.0688
 4749TIP3    H235663   6.585   1.325  15.646 -1.4038  0.3653 -3.0072
 4750TIP3   OH235664   6.103   0.217   3.401 -0.2704  0.0745  0.1900
 4750TIP3    H135665   6.058   0.160   3.339  0.2298 -1.3347  1.0789
 4750TIP3    H235666   6.195   0.210   3.377 -0.2360  0.7849  0.1034
 4751TIP3   OH235667   2.881   0.479   4.979 -0.6161  0.2527 -0.0152
 4751TIP3    H135668   2.951   0.504   4.918  0.1532 -0.4751  0.5583
 4751TIP3    H235669   2.926   0.458   5.061 -1.6620  1.6580  0.9824
 4752TIP3   OH235670   3.008   0.006  12.513  0.4855 -0.5069 -0.6445
 4752TIP3    H135671   2.981   0.033  12.425  2.2484  2.1352 -0.5141
 4752TIP3    H235672   3.071  -0.064  12.498 -0.0979 -0.8868 -1.4029
 4753TIP3   OH235673   4.194   3.586   3.185 -0.2464  0.2364 -0.3501
 4753TIP3    H135674   4.221   3.645   3.255 -0.0258 -3.7324  3.2897
 4753TIP3    H235675   4.098   3.592   3.184 -0.2398  0.4341  0.2057
 4754TIP3   OH235676   3.430   2.440  15.131  0.1654  0.0578 -0.1282
 4754TIP3    H135677   3.523   2.441  15.109  0.2306  1.2653  0.1464
 4754TIP3    H235678   3.426   2.478  15.219 -0.6383  0.4184 -0.3139
 4755TIP3   OH235679   3.320   4.030   6.083  0.2627  0.1961 -0.7525
 4755TIP3    H135680   3.378   3.955   6.096 -1.8348 -1.0314  3.3273
 4755TIP3    H235681   3.232   3.992   6.079 -0.7071  2.3066 -0.8410
 4756TIP3   OH235682   5.408   0.233  15.641 -0.7500  0.2191  0.3026
 4756TIP3    H135683   5.497   0.219  15.609 -1.2452 -1.3294 -0.5046
 4756TIP3    H235684   5.395   0.165  15.707 -0.8834  1.2967  1.4183
 4757TIP3   OH235685   6.419   3.463   5.363 -0.1007  0.7429  0.8130
 4757TIP3    H135686   6.416   3.402   5.437 -0.1444  0.7420  0.8104
 4757TIP3    H235687   6.393   3.547   5.401  0.0320  0.7761  0.8331
 4758TIP3   OH235688   0.064   4.980   2.290  0.4327 -0.9121 -0.3279
 4758TIP3    H135689   0.025   4.927   2.359 -0.0185 -0.5105 -0.2680
 4758TIP3    H235690   0.150   4.942   2.276  0.1002 -1.6876 -0.3138
 4759TIP3   OH235691   3.029   5.873   0.769 -0.7966  0.5104  0.4205
 4759TIP3    H135692   3.091   5.801   0.764  0.6973  1.4872  3.0440
 4759TIP3    H235693   3.058   5.934   0.701  1.0148  0.8135  1.4021
 4760TIP3   OH235694   6.220   3.263  11.833  0.5808  0.4043 -0.2065
 4760TIP3    H135695   6.289   3.203  11.862 -0.7634  0.0719  2.6928
 4760TIP3    H235696   6.167   3.211  11.772  1.2768 -0.2659 -0.2585
 4761TIP3   OH235697   4.764   3.457   5.676  0.4859  0.1718 -0.5610
 4761TIP3    H135698   4.797   3.409   5.752  0.5229 -1.5853 -1.6278
 4761TIP3    H235699   4.749   3.546   5.708  1.9170 -0.1328  1.1113
 4762TIP3   OH235700   0.639   5.293  11.519  0.1682 -0.1598  0.0805
 4762TIP3    H135701   0.698   5.344  11.574  1.5735 -0.7445 -0.8248
 4762TIP3    H235702   0.624   5.212  11.567  0.1965 -0.0521  0.2691
 4763TIP3   OH235703   4.540   3.324   4.348  0.5937 -0.0887 -0.1055
 4763TIP3    H135704   4.533   3.337   4.443  1.9738 -2.4966  0.4019
 4763TIP3    H235705   4.634   3.327   4.331  0.3333  0.7144 -1.5015
 4764TIP3   OH235706   4.801   0.249  13.185  0.0351 -0.4978 -0.2806
 4764TIP3    H135707   4.858   0.291  13.250  0.5268 -0.5376 -0.6762
 4764TIP3    H235708   4.859   0.187  13.140 -0.2653 -0.3771 -0.8395
 4765TIP3   OH235709   6.628   5.150  11.471  0.2586 -0.1069  0.0642
 4765TIP3    H135710   6.534   5.167  11.457  0.4198  1.5315  0.7163
 4765TIP3    H235711   6.640   5.059  11.444 -1.4676 -0.2731 -0.2870
 4766TIP3   OH235712   1.593   5.195  12.273  0.0498 -0.5269  0.0502
 4766TIP3    H135713   1.669   5.230  12.227 -0.3755 -2.2303 -2.0983
 4766TIP3    H235714   1.518   5.239  12.233 -0.2206 -0.3513  0.7334
 4767TIP3   OH235715   2.306   1.102   4.009  0.3915  0.3653  0.0250
 4767TIP3    H135716   2.356   1.050   3.945 -0.1351 -2.3875  1.7020
 4767TIP3    H235717   2.253   1.161   3.955  1.6079 -0.2731 -1.9836
 4768TIP3   OH235718   5.473   3.491   1.485 -0.5506 -0.0152  0.6541
 4768TIP3    H135719   5.547   3.527   1.435  0.9832  1.0276  3.4345
 4768TIP3    H235720   5.467   3.400   1.457  0.0801  0.5386 -1.4908
 4769TIP3   OH235721   6.783   1.606  11.442 -0.1956  0.2247  0.2968
 4769TIP3    H135722   6.785   1.550  11.520 -0.8882 -1.3695 -0.7828
 4769TIP3    H235723   6.694   1.641  11.439 -0.6581 -0.9761 -0.6049
 4770TIP3   OH235724   3.375   6.462   3.604  0.0709  0.8056  0.8797
 4770TIP3    H135725   3.384   6.557   3.591  1.0331  0.8601  1.8015
 4770TIP3    H235726   3.438   6.441   3.673 -1.4523 -0.2179  2.0148
 4771TIP3   OH235727   0.585   0.544   3.751  0.3695 -0.0514 -0.4428
 4771TIP3    H135728   0.490   0.548   3.743  0.2781 -0.0677  0.5243
 4771TIP3    H235729   0.604   0.453   3.774  0.4192  0.3742  1.3932
 4772TIP3   OH235730   6.780   5.921   0.988 -0.2761 -0.2305 -0.5180
 4772TIP3    H135731   6.771   5.826   0.994  0.9943 -0.3405 -0.0586
 4772TIP3    H235732   6.873   5.935   0.970 -0.6368  0.8957 -1.6648
 4773TIP3   OH235733   4.964   4.668   0.867 -0.1711 -0.2835  0.3627
 4773TIP3    H135734   4.960   4.671   0.962  1.9462 -0.0782  0.4740
 4773TIP3    H235735   4.885   4.619   0.842 -2.1012  1.7299  2.0186
 4774TIP3   OH235736   5.909   5.345   5.270  0.8509  0.2402 -0.4635
 4774TIP3    H135737   5.881   5.370   5.358 -1.3775 -2.1640 -0.3479
 4774TIP3    H235738   5.839   5.377   5.213  1.2657  0.0248 -1.0993
 4775TIP3   OH235739   4.980   3.116  11.356 -0.1889  0.1571  0.1235
 4775TIP3    H135740   5.052   3.143  11.413 -1.2486  0.4025  1.3725
 4775TIP3    H235741   4.901   3.132  11.407 -1.4694  3.3948 -2.4721
 4776TIP3   OH235742   6.694   1.254   5.129 -0.1517  0.0181  0.2652
 4776TIP3    H135743   6.702   1.216   5.041  2.2227 -0.3791  0.5827
 4776TIP3    H235744   6.769   1.219   5.177  0.0139  2.1891  1.7260
 4777TIP3   OH235745   5.370   3.307  11.939 -0.0355 -0.2508  0.4707
 4777TIP3    H135746   5.323   3.370  11.995 -0.0239  0.9648 -0.8396
 4777TIP3    H235747   5.305   3.240  11.919 -0.7936  0.6280 -0.0924
 4778TIP3   OH235748   6.139   5.738   0.895  0.0368 -0.7760 -0.2031
 4778TIP3    H135749   6.209   5.715   0.957 -0.4241 -2.7086 -0.3534
 4778TIP3    H235750   6.066   5.763   0.951  0.6825  0.9030 -0.0420
 4779TIP3   OH235751   4.466   3.186  15.144  0.2377 -0.1753 -0.0632
 4779TIP3    H135752   4.552   3.218  15.117  0.9057 -2.0986 -0.3116
 4779TIP3    H235753   4.470   3.092  15.130 -1.8070 -0.3393  0.2505
 4780TIP3   OH235754   4.561   2.824   1.134  0.2697  0.1140  0.0657
 4780TIP3    H135755   4.609   2.878   1.072  0.5032 -0.2341 -0.0583
 4780TIP3    H235756   4.539   2.883   1.206  0.8258  0.2857  0.0940
 4781TIP3   OH235757   0.260   5.051  12.893 -0.3453 -0.3785  0.2644
 4781TIP3    H135758   0.174   5.062  12.854 -0.5792 -2.1931  0.1592
 4781TIP3    H235759   0.307   4.992  12.834  0.8821  0.3518  0.4635
 4782TIP3   OH235760   3.442   6.739   3.186 -0.3474  0.3430  0.3476
 4782TIP3    H135761   3.404   6.657   3.154 -0.2578  0.3763  0.1542
 4782TIP3    H235762   3.486   6.776   3.110 -0.7558  0.7863  0.3271
 4783TIP3   OH235763   4.933   5.657  11.484  0.3118 -0.1916 -0.7099
 4783TIP3    H135764   4.897   5.580  11.529  0.5116 -0.4570 -0.9990
 4783TIP3    H235765   4.868   5.680  11.419 -0.2531  0.5574  0.1056
 4784TIP3   OH235766   1.631   4.372  11.263 -0.0201  0.2337 -0.0908
 4784TIP3    H135767   1.571   4.337  11.198  0.6604 -4.1177  1.2884
 4784TIP3    H235768   1.715   4.378  11.218  0.1118 -1.2736 -0.1044
 4785TIP3   OH235769   2.294   0.850   2.932 -0.4313 -0.0684  0.0948
 4785TIP3    H135770   2.225   0.794   2.897 -0.6286  0.1699  0.1001
 4785TIP3    H235771   2.356   0.789   2.973 -0.9380 -0.2380  0.6061
 4786TIP3   OH235772   0.230   2.993  12.400 -0.1511 -0.1957 -0.4196
 4786TIP3    H135773   0.274   2.909  12.411  0.9528  0.4536  0.2841
 4786TIP3    H235774   0.136   2.971  12.404  0.1155 -1.3018  0.4867
 4787TIP3   OH235775   5.215   0.100   3.231 -0.2122 -0.0986 -0.0957
 4787TIP3    H135776   5.154   0.064   3.295  0.6603 -0.5959  0.4855
 4787TIP3    H235777   5.162   0.116   3.153 -1.3754  0.8377  0.8441
 4788TIP3   OH235778   1.563   4.577   5.632 -0.3734 -0.6005 -0.1488
 4788TIP3    H135779   1.582   4.485   5.651 -1.1533 -1.1590 -1.8541
 4788TIP3    H235780   1.599   4.625   5.706 -0.2095 -2.3034  0.9202
 4789TIP3   OH235781   6.278   0.750  12.678  0.4254 -0.0651 -0.1305
 4789TIP3    H135782   6.244   0.789  12.758 -0.2619 -0.3254 -0.2869
 4789TIP3    H235783   6.220   0.781  12.609 -0.3436 -1.5948 -0.2140
 4790TIP3   OH235784   3.799   2.942   3.695 -0.1008 -0.0216  0.3102
 4790TIP3    H135785   3.811   2.859   3.650 -0.0449  1.0944 -1.8929
 4790TIP3    H235786   3.716   2.933   3.743 -0.4699 -1.0856 -0.5112
 4791TIP3   OH235787   6.382   1.206  14.535 -0.3758 -0.5127  0.2889
 4791TIP3    H135788   6.382   1.113  14.559 -2.1093 -0.7924 -0.6380
 4791TIP3    H235789   6.290   1.227  14.522  0.0392  1.2224  0.0078
 4792TIP3   OH235790   2.358   0.730   4.182  0.1764  0.1527 -0.3316
 4792TIP3    H135791   2.373   0.824   4.177 -0.8900  0.5651  2.6000
 4792TIP3    H235792   2.287   0.713   4.120  0.1313  1.3301 -0.6148
 4793TIP3   OH235793   2.173   4.079   1.189 -0.0752  0.1126 -0.0835
 4793TIP3    H135794   2.135   4.106   1.272  1.1779 -3.0999  1.7472
 4793TIP3    H235795   2.098   4.057   1.134 -0.9381  2.5301  0.0053
 4794TIP3   OH235796   1.431   5.139  11.155 -0.4016  0.4283 -0.0828
 4794TIP3    H135797   1.508   5.084  11.167 -0.9162 -0.2092  0.3706
 4794TIP3    H235798   1.401   5.118  11.066  0.7140  1.6968 -0.8042
 4795TIP3   OH235799   0.471   2.725   3.703 -0.0740 -0.0093 -0.5829
 4795TIP3    H135800   0.376   2.736   3.693  0.2633  3.2921 -1.4258
 4795TIP3    H235801   0.495   2.791   3.768  1.7977 -0.0468 -1.2020
 4796TIP3   OH235802   6.325   2.462  10.899  0.4005 -0.4637 -0.6371
 4796TIP3    H135803   6.386   2.499  10.835 -0.9186 -0.4264 -1.9316
 4796TIP3    H235804   6.265   2.410  10.847 -0.6724 -0.5113  0.6029
 4797TIP3   OH235805   6.663   1.829   3.600  0.1561 -1.0840  0.3270
 4797TIP3    H135806   6.577   1.864   3.620  0.6891  0.0475  0.7458
 4797TIP3    H235807   6.652   1.734   3.603 -0.7727 -0.9589  1.7152
 4798TIP3   OH235808   2.515   6.078  12.546 -0.2156 -0.3514 -0.2719
 4798TIP3    H135809   2.595   6.032  12.521  1.2428  1.0700  1.5139
 4798TIP3    H235810   2.458   6.071  12.469  1.1947 -2.2680 -1.2259
 4799TIP3   OH235811   2.402   5.274   4.831  0.6304  0.1624 -0.2574
 4799TIP3    H135812   2.325   5.220   4.849  0.4642 -0.5122 -2.6961
 4799TIP3    H235813   2.467   5.247   4.896 -0.5796 -0.5183  0.7008
 4800TIP3   OH235814   3.666   3.909   5.136 -0.2078  0.2017  0.5418
 4800TIP3    H135815   3.697   3.993   5.101 -2.6250  1.1848  0.5624
 4800TIP3    H235816   3.624   3.933   5.219 -3.9496 -0.3691 -0.9831
 4801TIP3   OH235817   0.062   4.360  11.097  0.0692  0.6323  0.0585
 4801TIP3    H135818   0.088   4.282  11.146  0.6932 -0.6288 -2.1610
 4801TIP3    H235819  -0.024   4.339  11.060  0.4120  0.8214 -0.8795
 4802TIP3   OH235820   4.137   4.616  12.485 -0.3904  0.5640  0.3205
 4802TIP3    H135821   4.066   4.552  12.475 -0.9296  0.9759  1.3873
 4802TIP3    H235822   4.176   4.597  12.570  1.4290 -0.2604 -0.6497
 4803TIP3   OH235823   5.402   6.320   3.866  0.2638  0.3319  0.3926
 4803TIP3    H135824   5.392   6.249   3.929  0.0808  0.8444  0.9496
 4803TIP3    H235825   5.490   6.353   3.882 -0.3907  1.5855  1.5862
 4804TIP3   OH235826   0.003   6.139  13.677  0.1252 -0.1104  0.7693
 4804TIP3    H135827  -0.031   6.223  13.648 -0.6429 -0.6631  0.0127
 4804TIP3    H235828   0.097   6.143  13.658  0.2690  0.9174  1.6190
 4805TIP3   OH235829   5.489   3.381   4.096  0.3136 -0.2444  0.0571
 4805TIP3    H135830   5.567   3.356   4.046  0.8097  1.6166 -0.1760
 4805TIP3    H235831   5.524   3.419   4.177 -0.3454  0.4692  0.0111
 4806TIP3   OH235832   3.724   4.121  13.074  0.0418 -0.0750 -0.3301
 4806TIP3    H135833   3.721   4.036  13.030 -1.7784  0.1081 -0.6320
 4806TIP3    H235834   3.638   4.159  13.058  0.4377  1.3561  0.7608
 4807TIP3   OH235835   0.358   3.709   3.878 -0.2594  0.2347  0.3902
 4807TIP3    H135836   0.340   3.617   3.896 -1.0931  0.0493 -1.1777
 4807TIP3    H235837   0.446   3.724   3.914 -0.3111 -1.0277  1.0963
 4808TIP3   OH235838   3.905   5.881   2.589  0.7146  0.5594 -0.8658
 4808TIP3    H135839   3.990   5.926   2.589  0.7947  0.4279 -0.0408
 4808TIP3    H235840   3.922   5.797   2.631  0.0977  0.6868 -0.3478
 4809TIP3   OH235841   3.673   6.203  11.505  0.0293 -0.1119  0.7116
 4809TIP3    H135842   3.648   6.135  11.443 -0.2275 -0.5268  1.2626
 4809TIP3    H235843   3.753   6.240  11.469  0.5843 -1.2064  0.7920
 4810TIP3   OH235844   0.476   2.938   3.268 -0.0041 -0.0797 -0.7589
 4810TIP3    H135845   0.560   2.941   3.223  0.6824  1.5727  0.5381
 4810TIP3    H235846   0.496   2.902   3.354 -0.4249  1.2481 -0.0859
 4811TIP3   OH235847   2.240   1.701  16.151 -0.5625  0.2198 -0.3589
 4811TIP3    H135848   2.172   1.640  16.181 -2.5510  0.9458 -2.9686
 4811TIP3    H235849   2.262   1.753  16.228 -2.8908 -0.1385  0.6372
 4812TIP3   OH235850   4.099   2.612  10.535 -0.3272  0.3162  0.2245
 4812TIP3    H135851   4.019   2.630  10.487  0.6601  0.9957 -1.2500
 4812TIP3    H235852   4.107   2.684  10.597 -0.7038  0.4098  0.1642
 4813TIP3   OH235853   6.222   2.902   1.453 -0.3167  0.2953 -0.1523
 4813TIP3    H135854   6.187   2.879   1.367 -0.4602 -1.1644  0.2807
 4813TIP3    H235855   6.145   2.924   1.505 -0.5212 -1.5740  0.3980
 4814TIP3   OH235856   0.909   6.115   3.978 -0.4064 -0.1647 -0.5041
 4814TIP3    H135857   0.978   6.181   3.974  0.0525 -0.5390  0.9085
 4814TIP3    H235858   0.828   6.165   3.984 -0.2301  0.2673 -1.4330
 4815TIP3   OH235859   5.765   4.108  16.270 -0.3199 -0.5218  0.5903
 4815TIP3    H135860   5.756   4.012  16.269  0.4804 -0.6999  3.0071
 4815TIP3    H235861   5.843   4.124  16.323 -0.2370  1.4846 -0.0548
 4816TIP3   OH235862   1.410   2.267  12.766  0.2362  0.3458 -0.2479
 4816TIP3    H135863   1.431   2.356  12.794  2.9149 -0.6885  1.5193
 4816TIP3    H235864   1.355   2.232  12.836 -1.9449  0.9429 -1.5861
 4817TIP3   OH235865   0.985   2.905  12.803 -0.1431 -0.1266  0.2075
 4817TIP3    H135866   1.081   2.906  12.793 -0.1831 -0.7316 -0.2727
 4817TIP3    H235867   0.952   2.898  12.714 -0.6905  1.6210  0.2357
 4818TIP3   OH235868   1.787   0.618  15.391  0.6657 -0.2875  0.0030
 4818TIP3    H135869   1.822   0.663  15.468  1.2479  0.6513 -0.7816
 4818TIP3    H235870   1.852   0.636  15.322  0.0911 -1.0014 -0.7337
 4819TIP3   OH235871   2.262   3.277  15.798  0.2307  0.1653 -0.4431
 4819TIP3    H135872   2.269   3.213  15.728 -2.0459  0.2708 -0.8312
 4819TIP3    H235873   2.337   3.259  15.855  1.0773 -1.1284 -1.8964
 4820TIP3   OH235874   1.926   1.931  15.014 -0.2739 -0.1508 -0.0960
 4820TIP3    H135875   2.008   1.976  15.037 -0.6510  0.0532  0.9129
 4820TIP3    H235876   1.864   1.958  15.082 -0.4988 -2.2418  0.6007
 4821TIP3   OH235877   3.852   3.223  11.602 -0.3732 -0.2502  0.6052
 4821TIP3    H135878   3.942   3.219  11.632 -0.6482 -1.3289  1.3349
 4821TIP3    H235879   3.846   3.306  11.555  0.4643  0.8155  2.3005
 4822TIP3   OH235880   2.503   6.476   4.045 -0.4184 -0.2314 -0.1522
 4822TIP3    H135881   2.557   6.537   4.095  0.7474 -0.0128 -1.6114
 4822TIP3    H235882   2.413   6.502   4.064 -0.0031  0.0904  1.4879
 4823TIP3   OH235883   5.282   2.821   3.014  0.1424 -0.0851  0.2653
 4823TIP3    H135884   5.277   2.912   3.045  1.4182  0.5279 -1.1890
 4823TIP3    H235885   5.207   2.778   3.054 -0.1936  1.4772  1.4250
 4824TIP3   OH235886   0.755   1.973  12.335  1.0479  0.2543 -0.0732
 4824TIP3    H135887   0.815   2.046  12.350  1.5735 -0.4818  1.6881
 4824TIP3    H235888   0.812   1.901  12.309  0.8158 -0.1676  0.5783
 4825TIP3   OH235889   5.626   0.921  15.261 -0.2177 -0.0532 -0.2487
 4825TIP3    H135890   5.569   0.911  15.184 -0.6995  1.0987 -0.0666
 4825TIP3    H235891   5.658   1.011  15.256  1.8578 -0.7427 -0.4975
 4826TIP3   OH235892   4.150   2.321  12.828 -0.3300 -0.4079  0.7585
 4826TIP3    H135893   4.175   2.408  12.859  0.4425 -0.9819  1.8057
 4826TIP3    H235894   4.128   2.334  12.736  0.0292  0.8469  0.8298
 4827TIP3   OH235895   1.213   2.720   6.098  0.1684 -0.5581 -0.2093
 4827TIP3    H135896   1.179   2.790   6.042  0.0594  0.1258  0.6846
 4827TIP3    H235897   1.137   2.689   6.147  0.7847  1.2079  2.0488
 4828TIP3   OH235898   0.093   0.442   4.214  0.6908 -0.0903 -0.4358
 4828TIP3    H135899   0.089   0.348   4.233  0.5124 -0.0040 -0.0416
 4828TIP3    H235900   0.170   0.472   4.262  1.1164 -0.1448 -1.0644
 4829TIP3   OH235901   6.284   6.609   5.839  0.2988  0.5401 -0.1178
 4829TIP3    H135902   6.372   6.615   5.877  1.6122 -0.7789 -2.6918
 4829TIP3    H235903   6.272   6.691   5.792 -1.0367  1.8686  2.3722
 4830TIP3   OH235904   2.384   0.842  14.252  0.0880 -0.2105 -0.3913
 4830TIP3    H135905   2.326   0.895  14.197 -1.3918 -0.2456  1.0519
 4830TIP3    H235906   2.393   0.759  14.204 -0.8649 -0.1168 -0.7573
 4831TIP3   OH235907   0.179   6.342  11.591  0.0365  0.0713  0.1671
 4831TIP3    H135908   0.217   6.426  11.568  1.5096 -0.7005 -0.3728
 4831TIP3    H235909   0.170   6.295  11.508 -0.7098 -0.3310  0.4616
 4832TIP3   OH235910   3.519   3.298   5.798 -0.2060 -0.1606 -0.4150
 4832TIP3    H135911   3.542   3.208   5.821 -2.8359 -0.3090  2.2490
 4832TIP3    H235912   3.470   3.290   5.716  1.5792 -0.7856 -1.4849
 4833TIP3   OH235913   2.577   3.668  16.687  0.1467  0.2003 -0.1906
 4833TIP3    H135914   2.665   3.645  16.715 -0.8978 -0.3484  3.0444
 4833TIP3    H235915   2.534   3.584  16.670 -0.7580  0.1630  1.9283
 4834TIP3   OH235916   4.052   4.943  16.289  0.2216  0.0569  0.4752
 4834TIP3    H135917   4.086   4.869  16.240 -0.9158 -1.1570  1.4506
 4834TIP3    H235918   4.128   4.980  16.333  0.8273 -0.4189 -0.1474
 4835TIP3   OH235919   4.521   4.398  13.920 -0.4435 -0.2013 -0.5951
 4835TIP3    H135920   4.444   4.412  13.975  1.0831  2.3855  1.0791
 4835TIP3    H235921   4.539   4.304  13.927 -2.2950 -0.5143  0.5228
 4836TIP3   OH235922   6.063   6.037   0.755 -0.6696 -0.4958  0.0529
 4836TIP3    H135923   5.973   6.014   0.775 -0.2511 -0.5494  2.0705
 4836TIP3    H235924   6.115   5.962   0.784 -0.0637 -1.2021 -2.6401
 4837TIP3   OH235925   5.384   3.180   5.455 -0.2451 -0.1502  0.1335
 4837TIP3    H135926   5.459   3.160   5.399 -2.3470  0.3017 -3.1582
 4837TIP3    H235927   5.354   3.266   5.424 -0.3025  1.2034  3.5752
 4838TIP3   OH235928   0.960   4.542   4.281 -0.1879 -0.6793  0.1858
 4838TIP3    H135929   0.874   4.543   4.238 -0.6538 -1.1887  1.0888
 4838TIP3    H235930   0.981   4.449   4.290 -0.3212 -0.6007  1.4887
 4839TIP3   OH235931   6.167   6.377   4.485 -0.2566 -0.3237 -0.3250
 4839TIP3    H135932   6.177   6.329   4.402  1.4703 -1.4016  0.4623
 4839TIP3    H235933   6.088   6.339   4.525 -0.2708 -0.8293 -0.8116
 4840TIP3   OH235934   6.495   5.789   1.487 -0.1938  0.0730 -0.0783
 4840TIP3    H135935   6.487   5.814   1.395 -0.2348  0.6802  0.0812
 4840TIP3    H235936   6.579   5.744   1.493 -0.7424 -1.0427 -0.6350
 4841TIP3   OH235937   0.977   6.051  15.756 -0.4065  0.0174  0.0000
 4841TIP3    H135938   0.958   6.122  15.695  0.3719 -0.4929 -0.8676
 4841TIP3    H235939   0.902   6.048  15.815 -1.1042  0.6242 -0.8413
 4842TIP3   OH235940   2.731   4.890   4.994  0.2000 -0.2703  0.5314
 4842TIP3    H135941   2.643   4.867   4.963 -0.1256  1.6236 -0.0762
 4842TIP3    H235942   2.723   4.900   5.088  0.5629 -3.2968  1.0031
 4843TIP3   OH235943   3.230   2.946   3.263  0.4207 -0.9462  0.1626
 4843TIP3    H135944   3.237   2.977   3.173 -0.7661  0.2005  0.4382
 4843TIP3    H235945   3.168   2.873   3.259 -0.9155  0.1440  0.2507
 4844TIP3   OH235946   3.897   5.520   4.605 -0.5543 -0.2602 -0.0403
 4844TIP3    H135947   3.820   5.542   4.658 -1.6890 -1.0256 -1.3044
 4844TIP3    H235948   3.955   5.473   4.665 -1.6644 -0.8246  0.6311
 4845TIP3   OH235949   5.790   3.953  14.566  1.1604  0.3342  0.3819
 4845TIP3    H135950   5.705   3.916  14.539  1.8543  0.0128 -1.5034
 4845TIP3    H235951   5.809   4.020  14.500  1.6598  1.5320  1.6878
 4846TIP3   OH235952   4.854   5.477   6.368  0.0810 -0.3850  0.0690
 4846TIP3    H135953   4.925   5.477   6.432  0.4163 -1.2100 -0.2901
 4846TIP3    H235954   4.833   5.570   6.356  0.8467 -0.1494  0.4547
 4847TIP3   OH235955   3.042   1.340  15.756  0.3859 -0.4218 -0.6094
 4847TIP3    H135956   3.042   1.254  15.798  0.8654  0.1937  0.7065
 4847TIP3    H235957   3.133   1.355  15.731  0.8298  0.7409  1.4710
 4848TIP3   OH235958   6.612   4.841   5.616  0.0261  0.4525  0.4831
 4848TIP3    H135959   6.614   4.865   5.708  0.0276  1.3053  0.2666
 4848TIP3    H235960   6.544   4.896   5.578 -0.6223 -0.5554  0.1456
 4849TIP3   OH235961   0.041   6.303   4.555 -0.3736 -0.0950 -0.0492
 4849TIP3    H135962   0.086   6.245   4.616  1.7859 -2.4518 -3.5133
 4849TIP3    H235963   0.095   6.382   4.553  1.2366 -1.1557 -0.9199
 4850TIP3   OH235964   1.406   2.793   1.073 -0.1023  0.3163  0.5684
 4850TIP3    H135965   1.365   2.762   0.992  0.7658  0.6750 -0.0273
 4850TIP3    H235966   1.499   2.777   1.060  0.0958  0.8288  1.2952
 4851TIP3   OH235967   5.851   3.159  13.293  0.1871 -0.1619 -0.0596
 4851TIP3    H135968   5.821   3.242  13.329  0.9890 -0.6948  2.0044
 4851TIP3    H235969   5.946   3.169  13.286  0.3028 -0.9293  0.3202
 4852TIP3   OH235970   3.499   0.200   1.881 -0.0515  0.3268 -0.2257
 4852TIP3    H135971   3.555   0.123   1.890 -1.1335 -0.4049  0.4990
 4852TIP3    H235972   3.558   0.269   1.853  0.5781 -1.3183 -3.5010
 4853TIP3   OH235973   6.093   1.855   5.597  0.4375  1.0668 -0.1410
 4853TIP3    H135974   6.132   1.926   5.649  2.1857 -0.7518  1.1859
 4853TIP3    H235975   6.162   1.789   5.591 -0.4000  0.2795 -3.0976
 4854TIP3   OH235976   1.870   5.856  12.193  0.4775  0.2654 -0.6978
 4854TIP3    H135977   1.863   5.844  12.098  0.2331  0.2076 -0.6722
 4854TIP3    H235978   1.854   5.768  12.229 -0.4302  0.4788 -0.5523
 4855TIP3   OH235979   3.196   3.571  13.127  0.2423  0.1900  0.2375
 4855TIP3    H135980   3.173   3.634  13.058  1.7659 -0.0960 -0.5611
 4855TIP3    H235981   3.232   3.625  13.197  0.1146  0.3488  0.1817
 4856TIP3   OH235982   4.425   3.804  11.511 -0.2340  0.0255  0.1777
 4856TIP3    H135983   4.368   3.787  11.586  1.9645 -0.2021  1.9003
 4856TIP3    H235984   4.385   3.879  11.467 -1.7072  0.0218  1.4279
 4857TIP3   OH235985   3.563   5.815  15.657  0.5723  0.0353 -0.0449
 4857TIP3    H135986   3.488   5.766  15.692  0.3794 -0.2764 -0.8686
 4857TIP3    H235987   3.618   5.831  15.734 -0.2559  0.1338  0.5516
 4858TIP3   OH235988   1.218   2.324   3.140  0.4964 -0.4869 -0.3138
 4858TIP3    H135989   1.227   2.238   3.098 -0.3106 -1.5945  1.6287
 4858TIP3    H235990   1.233   2.387   3.069 -1.9029 -2.1933 -2.5584
 4859TIP3   OH235991   2.664   1.780  16.166 -0.0036  0.2949  0.3578
 4859TIP3    H135992   2.699   1.698  16.202  1.3605  1.1309  1.0166
 4859TIP3    H235993   2.664   1.766  16.071  1.5373  0.0020  0.3740
 4860TIP3   OH235994   4.757   3.211  12.210  0.6676  0.1561  0.3197
 4860TIP3    H135995   4.752   3.136  12.270 -1.5947 -0.4352 -0.4960
 4860TIP3    H235996   4.699   3.276  12.248  0.9522  0.6555 -0.0893
 4861TIP3   OH235997   3.578   1.776  15.019 -0.5951  0.0159 -0.0455
 4861TIP3    H135998   3.666   1.796  14.986 -0.5664  0.2159  0.1450
 4861TIP3    H235999   3.577   1.815  15.106 -0.5639 -0.7716  0.3159
 4862TIP3   OH236000   4.191   5.253   4.245  0.2260  0.1660  0.6152
 4862TIP3    H136001   4.257   5.188   4.267  0.4524  0.0279 -0.3912
 4862TIP3    H236002   4.107   5.209   4.260  0.3384  0.4010  2.0613
 4863TIP3   OH236003   5.752   4.753   0.742 -0.5779  0.0636 -0.2359
 4863TIP3    H136004   5.808   4.827   0.723 -1.4265  1.4585  2.1586
 4863TIP3    H236005   5.663   4.784   0.722 -0.8186 -0.8637 -0.6705
 4864TIP3   OH236006   5.483   2.093   4.064 -0.3310  0.3702 -0.2010
 4864TIP3    H136007   5.541   2.169   4.068  0.3420 -0.1708  1.1747
 4864TIP3    H236008   5.406   2.119   4.114  0.5348 -0.3157  1.5848
 4865TIP3   OH236009   2.407   6.231   4.122  0.6237  0.0196  0.0013
 4865TIP3    H136010   2.372   6.261   4.205  3.2947  0.8822  0.9348
 4865TIP3    H236011   2.473   6.297   4.098  1.2734 -1.1854 -1.8212
 4866TIP3   OH236012   0.509   0.895  17.094  0.4058  0.0731 -0.2622
 4866TIP3    H136013   0.441   0.959  17.114 -0.1917  0.0745 -2.1345
 4866TIP3    H236014   0.462   0.822  17.054  1.4121 -0.2748 -0.8352
 4867TIP3   OH236015   3.003   2.144   0.721 -0.1542 -0.3687 -0.2592
 4867TIP3    H136016   3.002   2.178   0.631 -0.3541  1.4666  0.4006
 4867TIP3    H236017   3.084   2.179   0.758 -0.4083 -0.5679  0.4837
 4868TIP3   OH236018   1.240   5.698   3.839  0.1678 -0.2485 -1.0447
 4868TIP3    H136019   1.156   5.684   3.883 -0.4940 -0.3014 -2.2957
 4868TIP3    H236020   1.297   5.735   3.907 -0.9905  0.1895 -0.2946
 4869TIP3   OH236021   3.853   1.447   1.089 -0.4236  0.1835  0.7800
 4869TIP3    H136022   3.790   1.510   1.053 -0.1946  0.2698  0.5250
 4869TIP3    H236023   3.847   1.372   1.030 -0.9882 -0.1978  1.3164
 4870TIP3   OH236024   4.467   2.707   2.933  0.2849  0.7518  0.0210
 4870TIP3    H136025   4.512   2.724   2.850  2.5575 -0.7759  0.8458
 4870TIP3    H236026   4.521   2.749   2.999  0.0228 -0.3443  0.9671
 4871TIP3   OH236027   3.632   2.890  14.873  0.2640  0.7352  0.0972
 4871TIP3    H136028   3.630   2.957  14.805 -0.9909  0.4655 -0.1591
 4871TIP3    H236029   3.626   2.807  14.826  0.0527  0.5209  0.4866
 4872TIP3   OH236030   6.737   5.965  14.369 -0.3240 -0.0539 -0.2654
 4872TIP3    H136031   6.829   5.940  14.382 -0.6496 -1.0444  0.2570
 4872TIP3    H236032   6.712   5.923  14.287 -0.4631 -0.2405 -0.1280
 4873TIP3   OH236033   2.047   3.387   0.380  0.3063  0.6099  0.3373
 4873TIP3    H136034   2.064   3.303   0.423  0.4783  1.5527  2.1581
 4873TIP3    H236035   1.952   3.396   0.383  0.2988  0.5513  0.2771
 4874TIP3   OH236036   1.023   5.071  13.545  0.7677 -0.3518  0.5498
 4874TIP3    H136037   0.938   5.029  13.559 -0.2109  1.9000  1.9048
 4874TIP3    H236038   1.086   4.999  13.548 -0.9999 -1.9941  0.2693
 4875TIP3   OH236039   1.835   0.517   0.272 -0.2703  0.3094 -0.2119
 4875TIP3    H136040   1.920   0.476   0.256 -1.1482 -1.8355  0.1710
 4875TIP3    H236041   1.850   0.574   0.347  0.7104 -0.5646  0.3015
 4876TIP3   OH236042   6.681   1.364   3.851 -0.3513  0.0547 -0.3723
 4876TIP3    H136043   6.656   1.432   3.913 -0.3028  0.4730 -0.8085
 4876TIP3    H236044   6.656   1.282   3.894  1.1361  0.2226  0.8998
 4877TIP3   OH236045   5.437   6.427   4.706 -0.1853 -0.4514  0.0090
 4877TIP3    H136046   5.404   6.497   4.649 -0.6438  1.0045  1.9724
 4877TIP3    H236047   5.529   6.448   4.719 -0.2988 -0.2592  0.5165
 4878TIP3   OH236048   2.679   5.773   5.289  0.1215  0.0715  0.2253
 4878TIP3    H136049   2.648   5.863   5.291  0.4611  0.2178  2.8362
 4878TIP3    H236050   2.762   5.775   5.337  0.0618 -1.6313  0.4653
 4879TIP3   OH236051   0.426   2.397   5.086  0.2769 -0.2884  0.5805
 4879TIP3    H136052   0.429   2.311   5.045  0.5693 -0.2529  0.5304
 4879TIP3    H236053   0.396   2.455   5.016 -0.4619 -0.4397  0.7649
 4880TIP3   OH236054   0.124   0.187  15.415  0.5051 -0.1736  0.0590
 4880TIP3    H136055   0.110   0.257  15.479  0.9717 -0.1544  0.1419
 4880TIP3    H236056   0.215   0.197  15.388  0.6560 -0.9287  0.2799
 4881TIP3   OH236057   1.757   6.685   5.233  0.2017  0.9366 -0.3324
 4881TIP3    H136058   1.730   6.775   5.252  1.3345  1.2561 -0.1245
 4881TIP3    H236059   1.852   6.691   5.222  0.4299 -0.4045  0.7098
 4882TIP3   OH236060   5.079   6.451  14.163 -0.3556  0.1231 -0.0889
 4882TIP3    H136061   5.131   6.510  14.110  0.0199 -0.0623  0.0686
 4882TIP3    H236062   5.006   6.505  14.195 -2.2793 -0.4522 -3.1529
 4883TIP3   OH236063   0.462   0.822   2.801  0.7485  0.1634 -0.1915
 4883TIP3    H136064   0.500   0.857   2.720  0.6605  0.1406 -0.2424
 4883TIP3    H236065   0.426   0.899   2.846  2.5564  0.4994  0.7911
 4884TIP3   OH236066   0.312   3.907   3.687 -0.4034  0.6299 -0.1295
 4884TIP3    H136067   0.224   3.888   3.656 -0.4440  0.0070  0.3666
 4884TIP3    H236068   0.336   3.832   3.741  1.3844 -0.4343 -2.2158
 4885TIP3   OH236069   4.890   4.130   0.602 -0.3884 -0.3101 -0.1034
 4885TIP3    H136070   4.968   4.186   0.604 -0.8884  0.5048 -1.7263
 4885TIP3    H236071   4.883   4.104   0.510 -1.4354 -1.2545  0.2306
 4886TIP3   OH236072   4.172   2.732   2.931  0.0626  0.5692 -0.1386
 4886TIP3    H136073   4.142   2.709   3.019  2.2046 -0.1556  0.4596
 4886TIP3    H236074   4.267   2.724   2.935  0.2755  1.3501 -2.3053
 4887TIP3   OH236075   5.771   1.619   1.536  0.0191  0.3521 -0.0634
 4887TIP3    H136076   5.805   1.610   1.447 -0.1842  0.7748 -0.1881
 4887TIP3    H236077   5.844   1.595   1.593  0.0496 -0.2339 -0.3462
 4888TIP3   OH236078   1.578   6.320  13.819  0.1369  0.0890 -0.2870
 4888TIP3    H136079   1.506   6.310  13.882  0.7436  0.1660  0.4284
 4888TIP3    H236080   1.614   6.232  13.809 -0.3937 -0.0479 -1.0616
 4889TIP3   OH236081   1.878   1.840  13.342 -0.1347  0.2467 -0.2908
 4889TIP3    H136082   1.843   1.752  13.331  0.6310 -0.0521 -0.3726
 4889TIP3    H236083   1.955   1.829  13.398  0.0805  0.8295 -0.4618
 4890TIP3   OH236084   0.768   5.519   4.901  0.6005  0.0963  0.3230
 4890TIP3    H136085   0.779   5.574   4.823  1.4849 -2.2449 -1.3172
 4890TIP3    H236086   0.778   5.580   4.974 -1.8351  2.7049 -1.2868
 4891TIP3   OH236087   2.934   6.462   1.445  0.4329  0.2051  0.2230
 4891TIP3    H136088   2.990   6.472   1.523  0.1044  0.3823  0.4404
 4891TIP3    H236089   2.927   6.551   1.409  1.5237 -0.0582 -0.6789
 4892TIP3   OH236090   3.405   0.396  11.638  0.0696  0.7075 -0.2780
 4892TIP3    H136091   3.455   0.405  11.557  0.9080  0.5863  0.2195
 4892TIP3    H236092   3.395   0.486  11.669 -0.8949  0.8240 -0.8880
 4893TIP3   OH236093   0.224   1.973   4.923 -0.5662  0.1774 -0.2361
 4893TIP3    H136094   0.280   1.959   4.999  1.0292  2.2760 -0.9295
 4893TIP3    H236095   0.192   2.063   4.932 -0.9729  0.2031 -1.6387
 4894TIP3   OH236096   1.981   5.797  14.820 -0.4867 -0.0919  0.5311
 4894TIP3    H136097   2.023   5.748  14.750  1.1841  0.8830  0.8021
 4894TIP3    H236098   1.941   5.730  14.876 -0.9747 -0.9278 -0.7704
 4895TIP3   OH236099   3.133   3.868   3.760  0.9795 -0.0144  0.2023
 4895TIP3    H136100   3.224   3.837   3.762  0.5709 -1.4703 -1.4993
 4895TIP3    H236101   3.095   3.827   3.683 -1.3889 -0.1071  1.3273
 4896TIP3   OH236102   3.998   3.607   5.338  0.6098  0.7546 -0.2797
 4896TIP3    H136103   3.982   3.512   5.341  3.3775  0.0047 -3.1816
 4896TIP3    H236104   3.911   3.646   5.341 -0.7163 -1.9368 -0.1707
 4897TIP3   OH236105   2.662   6.412   5.089 -0.4011 -0.0328  0.1487
 4897TIP3    H136106   2.732   6.436   5.030 -0.8868 -1.0127 -0.8628
 4897TIP3    H236107   2.589   6.387   5.032 -0.8198 -1.1871  1.1292
 4898TIP3   OH236108   5.123   4.959   5.217 -0.5619  0.6053 -0.3792
 4898TIP3    H136109   5.103   5.013   5.141 -1.6203  0.6966 -0.0510
 4898TIP3    H236110   5.209   4.921   5.197 -1.5252 -0.6952 -2.3755
 4899TIP3   OH236111   1.324   0.678  11.898 -0.2833 -0.5355  0.3283
 4899TIP3    H136112   1.383   0.689  11.823 -1.0866 -0.6297 -0.3285
 4899TIP3    H236113   1.344   0.753  11.954 -1.5694  1.1289 -1.3021
 4900TIP3   OH236114   6.737   2.113  13.417 -0.1936  0.2592 -0.0995
 4900TIP3    H136115   6.800   2.180  13.392 -0.2241  1.1265  1.9582
 4900TIP3    H236116   6.778   2.067  13.490 -1.1372 -0.4272  0.0198
 4901TIP3   OH236117   5.608   0.539   4.074 -0.7622 -0.2362 -0.0399
 4901TIP3    H136118   5.547   0.466   4.066  0.1334 -1.2390  1.7984
 4901TIP3    H236119   5.690   0.499   4.101  0.1756  1.3085 -0.4674
 4902TIP3   OH236120   2.654   3.080   5.973  0.4322 -0.0678  0.1367
 4902TIP3    H136121   2.613   3.098   6.058  0.1545  1.0707 -0.2162
 4902TIP3    H236122   2.605   3.006   5.938 -0.1201  0.0980  0.5350
 4903TIP3   OH236123   4.831   0.587  15.738 -0.4158 -0.0306 -0.1538
 4903TIP3    H136124   4.736   0.598  15.728 -1.0938 -3.3120  1.2766
 4903TIP3    H236125   4.860   0.552  15.653 -1.3125 -2.7488  0.5538
 4904TIP3   OH236126   3.224   3.557  12.628 -0.0753  0.0218 -0.0301
 4904TIP3    H136127   3.270   3.555  12.544 -1.3672  1.2331 -0.8182
 4904TIP3    H236128   3.138   3.519  12.610 -0.2648  0.0214  0.8130
 4905TIP3   OH236129   6.570   3.187   4.554  0.2195 -0.3383 -0.5905
 4905TIP3    H136130   6.551   3.237   4.633  1.4097 -0.1380 -0.4033
 4905TIP3    H236131   6.639   3.126   4.580 -0.1574 -1.0464 -1.2023
 4906TIP3   OH236132   5.982   6.327   4.052 -0.1220  0.2829  0.3501
 4906TIP3    H136133   5.984   6.293   3.963  1.9495 -0.3865  0.6042
 4906TIP3    H236134   5.993   6.249   4.107  0.1523  0.8539  1.1204
 4907TIP3   OH236135   0.936   2.352   4.954 -0.4742 -0.1351 -0.2033
 4907TIP3    H136136   0.850   2.393   4.961  0.4888  2.1261 -0.6527
 4907TIP3    H236137   0.938   2.315   4.866 -0.0783  2.2085 -1.2504
 4908TIP3   OH236138   0.365   1.605  15.002  0.1548 -0.3893 -0.3194
 4908TIP3    H136139   0.437   1.594  15.064  0.5925  0.4503 -0.6601
 4908TIP3    H236140   0.401   1.662  14.933 -0.2860 -1.3932 -1.4101
 4909TIP3   OH236141   2.126   6.624   4.644 -0.5198 -0.4090 -0.0540
 4909TIP3    H136142   2.049   6.602   4.591 -1.7035  1.4791  0.7719
 4909TIP3    H236143   2.102   6.598   4.733  0.5223 -1.4243 -0.0565
 4910TIP3   OH236144   4.293   5.551   2.022 -0.3031 -0.1568 -0.1643
 4910TIP3    H136145   4.339   5.582   1.944 -0.1522 -0.0165 -0.0216
 4910TIP3    H236146   4.361   5.550   2.090 -0.2164 -1.1134 -0.2408
 4911TIP3   OH236147   3.249   5.252   1.466 -0.1515 -0.1339  0.3698
 4911TIP3    H136148   3.247   5.346   1.487 -0.7852 -0.3943  1.5306
 4911TIP3    H236149   3.162   5.220   1.492  0.1962 -1.1217  0.3477
 4912TIP3   OH236150   5.303   1.487  12.170  0.3823  0.0853  0.6554
 4912TIP3    H136151   5.262   1.406  12.200  0.2936 -1.6520 -3.4108
 4912TIP3    H236152   5.375   1.458  12.114 -0.0444  2.6928 -1.4897
 4913TIP3   OH236153   4.561   5.509  15.211 -0.3403 -0.4477  0.1376
 4913TIP3    H136154   4.591   5.588  15.256 -0.9926 -0.2145  0.1739
 4913TIP3    H236155   4.632   5.486  15.151  1.4933 -1.9496  2.7004
 4914TIP3   OH236156   0.768   0.787   1.126 -0.0215 -0.2983 -0.1952
 4914TIP3    H136157   0.830   0.742   1.183  0.8523  1.0867 -0.0073
 4914TIP3    H236158   0.805   0.875   1.114 -1.4516  0.2515 -0.8715
 4915TIP3   OH236159   2.918   5.224   3.692 -0.0098 -0.3966 -0.4837
 4915TIP3    H136160   3.003   5.239   3.651 -0.3123  0.1995 -0.9041
 4915TIP3    H236161   2.854   5.234   3.621 -0.6092  1.4979  0.2674
 4916TIP3   OH236162   2.650   1.034  11.276  0.0705  0.3157 -0.3963
 4916TIP3    H136163   2.640   1.099  11.206 -0.2002  0.0376 -0.6202
 4916TIP3    H236164   2.734   1.055  11.316  0.0239  0.7551 -0.5186
 4917TIP3   OH236165   3.795   0.798   1.293  0.2719 -0.1261 -0.2980
 4917TIP3    H136166   3.790   0.838   1.380  3.3340 -2.7901  1.3360
 4917TIP3    H236167   3.819   0.870   1.235 -1.5888  1.6749  1.0482
 4918TIP3   OH236168   1.238   0.376   5.936  0.1295 -0.4420 -0.4943
 4918TIP3    H136169   1.217   0.314   6.005 -1.2241  0.0787 -0.4041
 4918TIP3    H236170   1.155   0.421   5.918  1.2752  2.1992  0.3167
 4919TIP3   OH236171   1.026   3.272   1.845 -0.1023  0.2572  0.2597
 4919TIP3    H136172   0.955   3.319   1.887 -2.5866 -2.8952  0.0124
 4919TIP3    H236173   1.020   3.183   1.879  0.4802 -1.4147 -3.4279
 4920TIP3   OH236174   2.200   4.288   0.321 -0.1308 -0.5757 -0.1317
 4920TIP3    H136175   2.160   4.242   0.395 -2.8864  3.6114  1.3519
 4920TIP3    H236176   2.280   4.326   0.357 -0.1003 -0.6876 -0.0816
 4921TIP3   OH236177   6.460   1.270  11.573 -0.7236 -0.1642  0.2358
 4921TIP3    H136178   6.447   1.217  11.495 -4.3153  0.0032  0.5607
 4921TIP3    H236179   6.417   1.220  11.643 -0.5121  1.2309  1.4103
 4922TIP3   OH236180   6.735   2.088   3.675 -0.1486  0.6711  0.1823
 4922TIP3    H136181   6.708   2.003   3.641  1.1556  0.9986 -1.8125
 4922TIP3    H236182   6.813   2.110   3.625 -1.3151  3.7478 -0.4890
 4923TIP3   OH236183   5.564   2.086   3.204 -0.1045 -0.0857 -0.3810
 4923TIP3    H136184   5.551   2.038   3.286  0.1412 -0.9503 -0.8263
 4923TIP3    H236185   5.476   2.109   3.175 -0.2480 -0.4807 -0.2694
 4924TIP3   OH236186   4.541   6.269   4.894  0.0098 -0.1986 -0.1210
 4924TIP3    H136187   4.632   6.239   4.880 -0.3058 -0.2679 -2.3437
 4924TIP3    H236188   4.493   6.188   4.913  0.1165 -0.4025 -0.6908
 4925TIP3   OH236189   5.235   2.750  13.076  0.3204 -0.2468  0.4052
 4925TIP3    H136190   5.320   2.778  13.110 -0.6195  0.9702  1.8937
 4925TIP3    H236191   5.231   2.787  12.988  1.0702  0.2208  0.5605
 4926TIP3   OH236192   0.914   4.358   5.042 -0.2741  0.4442 -0.1973
 4926TIP3    H136193   0.864   4.420   5.095 -0.3476  0.2210 -0.0049
 4926TIP3    H236194   0.992   4.338   5.094 -0.4224  0.1043 -0.0989
 4927TIP3   OH236195   3.389   1.002  11.155  1.1293  0.9198  0.2938
 4927TIP3    H136196   3.468   0.951  11.143  1.7180  1.6517  0.9324
 4927TIP3    H236197   3.329   0.971  11.087  0.6574 -2.1065  1.9430
 4928TIP3   OH236198   5.283   1.115   5.350 -1.2990 -0.5322  0.3990
 4928TIP3    H136199   5.226   1.189   5.326 -1.6064 -0.5110  1.1868
 4928TIP3    H236200   5.339   1.103   5.273  0.6487  2.2814  1.1921
 4929TIP3   OH236201   0.809   5.126   3.587 -0.4983 -0.6221  0.3306
 4929TIP3    H136202   0.789   5.189   3.518 -5.6012 -0.8371  1.2477
 4929TIP3    H236203   0.843   5.050   3.540 -0.9527  0.2887 -1.5930
 4930TIP3   OH236204   0.474   2.275   2.373  0.1460 -0.7477 -0.2781
 4930TIP3    H136205   0.433   2.197   2.335 -0.8045 -0.7459  0.7071
 4930TIP3    H236206   0.512   2.244   2.456 -2.8307  0.3549  1.6604
 4931TIP3   OH236207   5.387   0.943   1.280  0.7894  0.3305 -0.1032
 4931TIP3    H136208   5.479   0.954   1.256  0.7532 -0.2921 -0.5636
 4931TIP3    H236209   5.368   0.851   1.261 -0.0883  0.5946 -0.5622
 4932TIP3   OH236210   0.162   2.538  11.475 -0.1971  0.8143  0.5519
 4932TIP3    H136211   0.086   2.504  11.522 -1.5582  1.5467 -0.9926
 4932TIP3    H236212   0.124   2.587  11.402  1.7534  2.3711  0.5074
 4933TIP3   OH236213   3.059   1.673  12.276 -0.2078 -0.2462 -0.4779
 4933TIP3    H136214   3.123   1.623  12.225  0.3118  1.8954 -2.0480
 4933TIP3    H236215   2.978   1.623  12.270  0.7760 -1.9506 -0.1957
 4934TIP3   OH236216   2.648   2.094  15.396  0.8507 -0.1285  0.3637
 4934TIP3    H136217   2.670   2.017  15.448 -2.5785 -1.1747  0.4842
 4934TIP3    H236218   2.682   2.075  15.309  1.7203 -0.8749  0.8488
 4935TIP3   OH236219   0.847   2.757   4.937 -0.0732  0.1101  0.1773
 4935TIP3    H136220   0.779   2.697   4.906  0.1847  0.7252 -1.6567
 4935TIP3    H236221   0.877   2.717   5.019 -1.6376 -0.9262  0.3018
 4936TIP3   OH236222   0.079   5.620  14.055 -0.3297  0.8233  0.1286
 4936TIP3    H136223   0.028   5.572  13.989  0.1554 -2.6302  1.9922
 4936TIP3    H236224   0.170   5.602  14.031 -0.1505 -0.6526  1.7142
 4937TIP3   OH236225   1.513   2.391  16.693  0.1021 -0.7077  0.6219
 4937TIP3    H136226   1.492   2.313  16.642 -0.9598 -0.5161  0.7317
 4937TIP3    H236227   1.444   2.395  16.759  0.3504  0.1256  0.8445
 4938TIP3   OH236228   0.817   2.217   3.381  0.0921 -0.3799  0.1624
 4938TIP3    H136229   0.783   2.229   3.470  0.3793 -1.4568  0.4283
 4938TIP3    H236230   0.876   2.291   3.368 -1.0505  0.5902  0.3232
 4939TIP3   OH236231   3.570   3.171   3.776 -0.6930  0.9451 -0.1369
 4939TIP3    H136232   3.489   3.178   3.826 -0.7184 -0.2892  0.0349
 4939TIP3    H236233   3.580   3.077   3.759  0.2371  1.1653 -0.9247
 4940TIP3   OH236234   0.610   3.172   0.263 -0.1598  0.1145 -0.2122
 4940TIP3    H136235   0.601   3.206   0.352  0.8938  1.7803 -0.7088
 4940TIP3    H236236   0.704   3.174   0.246 -0.3088 -0.6837 -1.1956
 4941TIP3   OH236237   6.372   5.525  13.753 -0.2504  0.2774  0.4579
 4941TIP3    H136238   6.400   5.466  13.824 -0.8751  0.5882  0.9763
 4941TIP3    H236239   6.437   5.595  13.753 -1.8363  1.9468  2.8329
 4942TIP3   OH236240   3.306   3.516  15.251  0.0047  0.3378  0.0582
 4942TIP3    H136241   3.271   3.428  15.237 -0.2098  0.3860  0.2673
 4942TIP3    H236242   3.234   3.563  15.294  0.7067  0.1123  1.5515
 4943TIP3   OH236243   2.863   3.634   3.821 -0.1567 -0.3669  0.2201
 4943TIP3    H136244   2.924   3.705   3.801 -0.0790 -0.4894  0.0183
 4943TIP3    H236245   2.785   3.656   3.770  1.1412 -2.3475 -2.8699
 4944TIP3   OH236246   2.971   1.618   2.340  0.1168  0.0877 -0.1115
 4944TIP3    H136247   3.035   1.552   2.367  0.3120 -0.1689 -1.1569
 4944TIP3    H236248   2.905   1.618   2.409  1.0471  0.0978  0.8088
 4945TIP3   OH236249   5.322   3.008  15.123  0.6306  0.0503 -0.2365
 4945TIP3    H136250   5.361   3.052  15.198  0.3157 -1.2289  0.7225
 4945TIP3    H236251   5.228   3.011  15.138  0.6407 -2.7713  1.0298
 4946TIP3   OH236252   0.119   4.115  11.195  0.4298  0.0418  0.0854
 4946TIP3    H136253   0.068   4.069  11.129  0.4257  0.6814 -0.3663
 4946TIP3    H236254   0.204   4.072  11.195  0.7263  0.5944 -0.9757
 4947TIP3   OH236255   4.103   1.245  11.629  0.3563  0.1480  0.1729
 4947TIP3    H136256   4.171   1.184  11.600  0.2848  0.2052 -0.1196
 4947TIP3    H236257   4.021   1.198  11.614  0.3905 -0.7427  2.4397
 4948TIP3   OH236258   4.731   1.980   1.425 -0.1129 -0.4924  0.2437
 4948TIP3    H136259   4.803   2.041   1.441 -0.4197 -0.6024  2.2179
 4948TIP3    H236260   4.652   2.027   1.451 -0.7523 -0.5080 -1.5569
 4949TIP3   OH236261   5.281   4.659  13.496 -0.5652 -0.1912 -0.3144
 4949TIP3    H136262   5.288   4.710  13.577 -0.3148  0.5131 -0.7812
 4949TIP3    H236263   5.187   4.647  13.484 -0.6757  0.9679 -0.7045
 4950TIP3   OH236264   4.724   0.469  14.368 -0.2200  0.3164  0.1161
 4950TIP3    H136265   4.800   0.528  14.367 -1.6715  2.3150 -0.7621
 4950TIP3    H236266   4.690   0.477  14.457  0.5484 -0.5483  0.4983
 4951TIP3   OH236267   5.466   0.325  16.754  0.1308 -0.6888 -0.2870
 4951TIP3    H136268   5.405   0.360  16.819 -1.0273 -0.9664 -1.1895
 4951TIP3    H236269   5.548   0.372  16.769 -0.6115  0.4571  0.2690
 4952TIP3   OH236270   2.134   1.218  14.007  0.0636  0.1508  0.0295
 4952TIP3    H136271   2.043   1.237  13.982  0.2326 -0.7461 -1.3396
 4952TIP3    H236272   2.186   1.254  13.936  0.8577  1.2905  1.1468
 4953TIP3   OH236273   2.534   6.433  14.426 -0.5124 -0.1125 -0.5995
 4953TIP3    H136274   2.556   6.469  14.340  0.2469  0.0486 -0.3484
 4953TIP3    H236275   2.619   6.420  14.469 -0.8847  2.7909  1.3426
 4954TIP3   OH236276   3.091   1.591   0.503 -0.3745  0.7165 -0.0343
 4954TIP3    H136277   3.143   1.592   0.424 -0.3925 -2.4183 -0.2221
 4954TIP3    H236278   3.155   1.592   0.575 -0.0620 -0.9532 -0.2347
 4955TIP3   OH236279   0.159   1.430   0.750 -0.2452  0.0435 -0.0740
 4955TIP3    H136280   0.200   1.348   0.775  1.2872  0.4191 -1.2161
 4955TIP3    H236281   0.085   1.440   0.811 -0.4416 -2.1299  0.1180
 4956TIP3   OH236282   0.788   1.715  15.782  0.3301 -0.5953  0.2406
 4956TIP3    H136283   0.878   1.746  15.771 -0.1294  0.4012 -1.0076
 4956TIP3    H236284   0.744   1.785  15.831  0.1512 -0.9092  0.5289
 4957TIP3   OH236285   1.804   2.643   6.209 -0.6115  0.1349  0.2467
 4957TIP3    H136286   1.840   2.717   6.258 -0.6915 -0.1632  0.7612
 4957TIP3    H236287   1.798   2.572   6.274 -2.2199  0.2057  0.2052
 4958TIP3   OH236288   0.004   1.334   5.504  0.0375  0.2697 -0.1512
 4958TIP3    H136289   0.012   1.341   5.599  0.5068  1.5440 -0.2619
 4958TIP3    H236290   0.093   1.315   5.474  0.0980  0.9221 -0.4040
 4959TIP3   OH236291   2.704   4.984   2.884 -0.3166  0.1293 -0.2414
 4959TIP3    H136292   2.735   4.904   2.842 -0.7367  0.2803 -0.8493
 4959TIP3    H236293   2.675   4.956   2.971 -1.7619 -0.6366 -0.9415
 4960TIP3   OH236294   6.076   4.015  15.709  0.0336  0.2120  0.0380
 4960TIP3    H136295   6.013   4.053  15.648  1.9540  2.3423 -0.7784
 4960TIP3    H236296   6.027   3.948  15.756 -2.4403  0.8488 -1.4552
 4961TIP3   OH236297   0.907   4.062   0.273 -0.1839 -0.1577 -0.0548
 4961TIP3    H136298   0.988   4.053   0.223 -1.9169 -2.2534 -2.7350
 4961TIP3    H236299   0.891   4.156   0.276  2.4046  0.3465  0.7979
 4962TIP3   OH236300   1.284   6.287  12.065  0.8087 -0.6129 -0.5391
 4962TIP3    H136301   1.300   6.370  12.021 -1.0839  0.4193  0.6018
 4962TIP3    H236302   1.286   6.222  11.995 -0.4269  0.7544 -1.9078
 4963TIP3   OH236303   5.500   4.692  12.379 -0.0579  0.3708 -0.1010
 4963TIP3    H136304   5.573   4.639  12.347  0.1874 -0.0405  1.0762
 4963TIP3    H236305   5.441   4.699  12.304 -0.2549 -1.8577 -0.2403
 4964TIP3   OH236306   2.417   2.729   4.338 -0.0995 -0.5860 -0.4832
 4964TIP3    H136307   2.387   2.689   4.257  0.8743 -2.1796 -0.0899
 4964TIP3    H236308   2.363   2.689   4.406 -1.2192  1.0574 -0.3283
 4965TIP3   OH236309   6.463   4.383  13.361 -0.2589 -0.0776  0.0433
 4965TIP3    H136310   6.408   4.370  13.284  1.7216 -1.4121 -1.2391
 4965TIP3    H236311   6.414   4.445  13.414 -1.2229  1.8200 -2.7968
 4966TIP3   OH236312   6.513   2.451   3.152  0.2061 -0.6874  0.4229
 4966TIP3    H136313   6.570   2.514   3.109 -0.4852 -0.5279 -0.2812
 4966TIP3    H236314   6.545   2.447   3.242  0.9723 -0.1937  0.1774
 4967TIP3   OH236315   0.703   1.316   5.532  0.9607 -0.4130 -0.6326
 4967TIP3    H136316   0.686   1.317   5.438 -0.0982  1.1297 -0.4680
 4967TIP3    H236317   0.706   1.409   5.556  0.3487 -0.7893  0.9869
 4968TIP3   OH236318   2.780   0.563  12.402  0.0061 -0.1231  0.3365
 4968TIP3    H136319   2.783   0.657  12.384 -0.2303 -0.5267 -2.0693
 4968TIP3    H236320   2.728   0.556  12.482 -1.0463  1.6996 -0.1293
 4969TIP3   OH236321   1.570   1.765   2.638 -0.2721 -0.2090 -0.5480
 4969TIP3    H136322   1.559   1.675   2.668  1.8375 -0.8699 -1.5787
 4969TIP3    H236323   1.517   1.817   2.698 -1.0282 -2.0615  0.4623
 4970TIP3   OH236324   3.933   0.102  13.369  0.6847 -0.5712  0.2233
 4970TIP3    H136325   3.977   0.036  13.422  0.6392 -0.4245  0.4426
 4970TIP3    H236326   4.005   0.150  13.327  0.7767  0.3217  1.3600
 4971TIP3   OH236327   5.321   4.026   3.715  0.6035 -0.7249 -0.0206
 4971TIP3    H136328   5.355   3.998   3.800  0.5080  4.2909  2.0101
 4971TIP3    H236329   5.397   4.058   3.668  0.1142  0.9738  0.2717
 4972TIP3   OH236330   1.166   1.614   1.461 -0.4321 -0.7016  0.2164
 4972TIP3    H136331   1.139   1.678   1.395  0.6044  0.3400  0.7539
 4972TIP3    H236332   1.213   1.547   1.411 -0.2819 -0.2968 -0.1914
 4973TIP3   OH236333   2.009   3.972   1.455 -0.2078 -0.0020 -0.1552
 4973TIP3    H136334   2.007   4.068   1.454  2.0297  0.0966 -0.3515
 4973TIP3    H236335   2.060   3.949   1.533  1.1173 -0.9059 -1.2247
 4974TIP3   OH236336   4.353   1.411   0.968 -0.0001  0.8760 -0.1579
 4974TIP3    H136337   4.358   1.426   1.062  1.5932 -0.3197  0.0021
 4974TIP3    H236338   4.400   1.485   0.929  0.1711  0.8845  0.0624
 4975TIP3   OH236339   4.419   6.636  14.527  0.3403  0.1135  0.0844
 4975TIP3    H136340   4.379   6.695  14.464 -1.4394 -1.3142 -0.2053
 4975TIP3    H236341   4.391   6.669  14.612 -1.8322 -0.9958 -0.1163
 4976TIP3   OH236342   0.894   2.039  11.723 -0.2521  0.1015  0.4072
 4976TIP3    H136343   0.821   2.097  11.749 -0.6510 -0.2992  0.1970
 4976TIP3    H236344   0.894   2.044  11.627  1.5759  2.0309  0.4354
 4977TIP3   OH236345   5.938   0.071   3.210  0.1327  0.6356 -0.1734
 4977TIP3    H136346   5.856   0.099   3.170 -0.0393 -0.0472 -0.3264
 4977TIP3    H236347   6.004   0.083   3.141 -0.3875 -1.8471 -1.2299
 4978TIP3   OH236348   5.683   5.231  15.566  0.2607  0.3009  0.4259
 4978TIP3    H136349   5.666   5.292  15.638  1.5280 -0.1284  1.1152
 4978TIP3    H236350   5.732   5.283  15.502  2.0321 -0.1456  1.3586
 4979TIP3   OH236351   3.459   0.003  15.785  0.1647 -0.3441 -0.4471
 4979TIP3    H136352   3.462  -0.079  15.737  0.9483  0.4660 -1.8743
 4979TIP3    H236353   3.371   0.037  15.769  0.2732 -0.2959 -0.9694
 4980TIP3   OH236354   1.840   2.029   1.267  0.1109 -0.1857  0.1660
 4980TIP3    H136355   1.776   2.048   1.198  0.8325 -1.0148 -0.7724
 4980TIP3    H236356   1.907   2.096   1.257 -0.6341  0.7368  1.2075
 4981TIP3   OH236357   6.201   1.773  14.634 -0.2262  0.1372  0.8289
 4981TIP3    H136358   6.209   1.699  14.574  1.9518  1.0529 -0.0931
 4981TIP3    H236359   6.134   1.829  14.595  1.8131  1.2056 -1.4257
 4982TIP3   OH236360   5.932   5.435  10.813 -0.0972 -0.4906  0.4157
 4982TIP3    H136361   5.993   5.382  10.864  1.0870 -0.5430 -0.9646
 4982TIP3    H236362   5.891   5.372  10.754 -0.3990 -0.2330  0.3527
 4983TIP3   OH236363   3.178   2.431   1.840 -0.1972  0.0038 -0.1952
 4983TIP3    H136364   3.256   2.415   1.787 -1.1747 -0.9538 -1.3920
 4983TIP3    H236365   3.133   2.346   1.844  0.3432 -0.2712  3.0864
 4984TIP3   OH236366   4.071   5.356   2.771  0.8971 -0.1668  0.0133
 4984TIP3    H136367   4.110   5.377   2.686 -0.8160  0.2484 -0.6998
 4984TIP3    H236368   4.072   5.260   2.775  0.6271 -0.2028 -0.6551
 4985TIP3   OH236369   1.376   3.473   0.305 -0.1890 -0.0438  0.8133
 4985TIP3    H136370   1.415   3.398   0.260 -1.0288 -0.6456  1.0809
 4985TIP3    H236371   1.423   3.478   0.388  0.9642  0.7143  0.1467
 4986TIP3   OH236372   3.660   0.758   0.972  0.6037  0.2580  0.4466
 4986TIP3    H136373   3.622   0.699   1.038 -0.0831  0.7196  0.4798
 4986TIP3    H236374   3.737   0.712   0.939 -0.8494 -1.4390 -0.7615
 4987TIP3   OH236375   3.316   4.775   1.214  0.4119 -0.1472  0.8289
 4987TIP3    H136376   3.321   4.855   1.267  0.2874  0.7929 -0.5422
 4987TIP3    H236377   3.392   4.779   1.156  0.3588 -0.9896  0.6883
 4988TIP3   OH236378   2.010   6.380   6.582 -0.0300 -0.3976 -0.3196
 4988TIP3    H136379   2.098   6.385   6.621 -0.1667 -0.4339 -0.0052
 4988TIP3    H236380   1.986   6.288   6.590  1.1466 -1.0719 -3.1596
 4989TIP3   OH236381   6.105   1.987   3.038 -0.1738 -0.2644 -0.7486
 4989TIP3    H136382   6.081   2.006   3.129 -0.9276 -0.7158 -0.8493
 4989TIP3    H236383   6.102   1.891   3.033  1.1541 -0.3282 -0.9069
 4990TIP3   OH236384   5.901   5.223  13.438  0.3180 -0.1661  0.1590
 4990TIP3    H136385   5.920   5.163  13.367  0.2992  0.5405 -0.4620
 4990TIP3    H236386   5.840   5.176  13.495 -0.1077 -0.5278 -0.5951
 4991TIP3   OH236387   5.540   3.882   1.912 -0.9187 -0.1397  0.0964
 4991TIP3    H136388   5.508   3.809   1.965 -0.2239  0.3581  1.2373
 4991TIP3    H236389   5.566   3.948   1.976 -0.1621  0.5259 -0.8766
 4992TIP3   OH236390   1.097   3.703  15.550 -0.6776 -0.2866  0.2252
 4992TIP3    H136391   1.143   3.732  15.629  1.0583 -1.5558 -0.2604
 4992TIP3    H236392   1.059   3.783  15.514 -0.7822  0.4475  1.8703
 4993TIP3   OH236393   1.711   4.349  12.516 -0.5549  0.1751  0.4533
 4993TIP3    H136394   1.779   4.303  12.467 -0.2284 -0.4032  1.4205
 4993TIP3    H236395   1.645   4.372  12.450  0.9069  1.4314 -0.6419
 4994TIP3   OH236396   1.351   0.710   1.682 -0.7183  0.4911  0.0614
 4994TIP3    H136397   1.411   0.781   1.708 -0.2202 -0.3572  1.2976
 4994TIP3    H236398   1.307   0.744   1.604  0.0239  1.8809  0.2121
 4995TIP3   OH236399   2.878   5.795  14.500  0.2346 -0.1970  0.0113
 4995TIP3    H136400   2.918   5.873  14.462 -0.5788  0.8290  1.1729
 4995TIP3    H236401   2.830   5.754  14.428  0.9522  0.1756 -0.6909
 4996TIP3   OH236402   6.108   3.298  12.950 -0.0488  0.2491  0.0466
 4996TIP3    H136403   6.017   3.329  12.943 -0.6572 -1.1814  1.0976
 4996TIP3    H236404   6.137   3.288  12.859 -1.5283 -0.8660 -0.3310
 4997TIP3   OH236405   0.559   6.237  16.385  0.0865  0.4533 -0.1887
 4997TIP3    H136406   0.558   6.327  16.416  1.2393 -0.5029  2.9367
 4997TIP3    H236407   0.494   6.192  16.439  1.0478 -1.0179 -0.2098
 4998TIP3   OH236408   1.943   0.226  12.084 -0.2394 -0.1379  0.0559
 4998TIP3    H136409   1.902   0.153  12.131 -0.5480  0.3795  0.6080
 4998TIP3    H236410   2.033   0.228  12.116 -0.1161 -0.5144 -0.2532
 4999TIP3   OH236411   5.609   6.033   4.618  0.0663 -0.0638  0.8262
 4999TIP3    H136412   5.703   6.012   4.619 -0.0104 -0.9385 -1.5238
 4999TIP3    H236413   5.566   5.948   4.611 -0.7314  0.4098 -0.5400
 5000TIP3   OH236414   4.466   5.773  11.689 -0.1589 -0.3552  0.4244
 5000TIP3    H136415   4.438   5.702  11.630  1.6579 -1.3577  0.7125
 5000TIP3    H236416   4.464   5.734  11.776 -0.7037  0.4636  0.7892
 5001TIP3   OH236417   3.506   2.290  11.602 -0.2287  0.2614 -0.1397
 5001TIP3    H136418   3.412   2.280  11.620 -0.1549  1.3892  1.0740
 5001TIP3    H236419   3.515   2.266  11.510 -1.5984 -0.4838 -0.1145
 5002TIP3   OH236420   4.233   3.056   0.551  0.1762  0.1945 -0.1398
 5002TIP3    H136421   4.311   3.011   0.584 -0.1290 -1.3898 -1.3983
 5002TIP3    H236422   4.186   3.083   0.629  0.6750 -1.2185  0.6927
 5003TIP3   OH236423   2.993   1.346   1.182  0.2436 -0.1231 -0.2320
 5003TIP3    H136424   3.044   1.321   1.259  0.0873  1.8636  0.5754
 5003TIP3    H236425   3.003   1.272   1.121  2.5374 -0.5976  0.6297
 5004TIP3   OH236426   4.975   1.419   0.832  0.0257  0.1460  0.0660
 5004TIP3    H136427   4.933   1.393   0.750 -1.6568  2.1688  0.2262
 5004TIP3    H236428   5.066   1.390   0.822 -0.6455 -1.6121 -1.5729
 5005TIP3   OH236429   3.900   2.139  12.653 -0.4066  0.3572 -0.0804
 5005TIP3    H136430   3.860   2.075  12.593  1.0064  1.0081 -1.8013
 5005TIP3    H236431   3.894   2.222  12.607 -1.9949  1.4853  2.0326
 5006TIP3   OH236432   0.982   0.430  14.896  0.1079  0.2474  0.3474
 5006TIP3    H136433   0.973   0.403  14.804  0.1942 -0.0552  0.4296
 5006TIP3    H236434   0.909   0.491  14.910 -0.3897 -0.3353  0.3130
 5007TIP3   OH236435   2.878   5.416   1.390 -0.4091 -0.1878  0.3796
 5007TIP3    H136436   2.942   5.372   1.333 -0.5750 -1.1595  0.9190
 5007TIP3    H236437   2.921   5.419   1.476 -0.5739  0.3479  0.4474
 5008TIP3   OH236438   2.749   2.575   4.711 -0.7290  0.3795 -0.0457
 5008TIP3    H136439   2.729   2.666   4.736 -1.8285 -0.2073  1.3018
 5008TIP3    H236440   2.840   2.563   4.739 -0.9699  0.6928  0.9163
 5009TIP3   OH236441   1.557   1.659   0.637  0.4187  0.1299  0.7626
 5009TIP3    H136442   1.643   1.689   0.608 -0.6992  0.9518 -2.0965
 5009TIP3    H236443   1.514   1.738   0.670 -0.2326  0.4226 -0.6748
 5010TIP3   OH236444   0.462   1.663   0.030 -0.0740 -0.3562  0.0979
 5010TIP3    H136445   0.469   1.652   0.125  0.7005  1.0104  0.2341
 5010TIP3    H236446   0.373   1.696   0.016 -0.2600 -0.7530  0.3159
 5011TIP3   OH236447   2.165   1.096   4.730 -0.4435 -0.6291 -0.0207
 5011TIP3    H136448   2.170   1.172   4.789 -1.6662  0.2667 -1.0228
 5011TIP3    H236449   2.192   1.022   4.785 -0.6066  0.3092  1.3959
 5012TIP3   OH236450   3.341   0.280  16.961  0.1250  0.1889  0.1962
 5012TIP3    H136451   3.246   0.290  16.975  0.0374 -0.7775  0.4289
 5012TIP3    H236452   3.353   0.298  16.868 -0.5343 -1.0855 -0.1717
 5013TIP3   OH236453   3.097   2.321  14.416 -0.0873  0.0642  0.1436
 5013TIP3    H136454   3.117   2.299  14.325 -0.4127  0.0340  0.0774
 5013TIP3    H236455   3.182   2.336  14.457  0.0612  0.0531 -0.1598
 5014TIP3   OH236456   4.491   2.038  12.581  0.1770 -0.1398  0.3597
 5014TIP3    H136457   4.514   1.972  12.515 -0.2364 -0.4969  0.5654
 5014TIP3    H236458   4.396   2.033  12.588  0.1879  0.1242  0.7440
 5015TIP3   OH236459   5.903   5.383   6.829 -0.4091 -0.5768 -0.0189
 5015TIP3    H136460   5.986   5.411   6.868 -0.2700 -0.9453 -0.0495
 5015TIP3    H236461   5.891   5.441   6.753 -0.2374 -0.4493  0.0517
 5016TIP3   OH236462   3.754   1.520   2.749 -0.0257  0.1713 -0.7969
 5016TIP3    H136463   3.838   1.524   2.794  0.3663  1.2980 -1.6051
 5016TIP3    H236464   3.729   1.427   2.754  0.9639 -0.0736 -0.0331
 5017TIP3   OH236465   0.966   4.854   0.420 -0.1385  0.0811  0.3804
 5017TIP3    H136466   1.060   4.840   0.431 -0.1616 -0.2263  0.1965
 5017TIP3    H236467   0.925   4.798   0.486 -0.2518 -1.2175 -0.7555
 5018TIP3   OH236468   2.797   3.549  12.996 -0.3380  0.0602  1.0171
 5018TIP3    H136469   2.851   3.492  12.941  1.4592  0.1818  2.5303
 5018TIP3    H236470   2.782   3.627  12.943 -0.7032 -0.7730 -0.1496
 5019TIP3   OH236471   4.048   0.176   3.855 -0.5075 -0.0251  0.1383
 5019TIP3    H136472   4.009   0.236   3.918  1.1948  0.3081  0.9435
 5019TIP3    H236473   4.033   0.089   3.891 -0.3248  0.1122  0.5495
 5020TIP3   OH236474   0.332   0.005   3.202  0.5115  0.3004  0.5454
 5020TIP3    H136475   0.279   0.084   3.195 -0.1839 -0.1909  0.0878
 5020TIP3    H236476   0.359  -0.013   3.112  0.8210  0.1090  0.6732
 5021TIP3   OH236477   2.617   2.669   5.167 -0.3972  0.1220  0.3835
 5021TIP3    H136478   2.597   2.687   5.076  2.0162 -0.2560 -0.2828
 5021TIP3    H236479   2.610   2.574   5.175  1.1143 -0.0380  0.0921
 5022TIP3   OH236480   1.231   1.484  11.704  0.2358  0.2504  0.3715
 5022TIP3    H136481   1.144   1.455  11.733  0.6908 -0.8439  0.7091
 5022TIP3    H236482   1.250   1.431  11.626  1.4870 -1.1419  1.5518
 5023TIP3   OH236483   1.583   5.010   0.308  0.3566  0.3691  0.7016
 5023TIP3    H136484   1.528   5.069   0.256  0.7355 -0.0915 -0.2449
 5023TIP3    H236485   1.541   4.924   0.299  1.3234 -0.0273 -0.2067
 5024TIP3   OH236486   0.591   2.722  16.735  0.3942  0.0804 -0.5114
 5024TIP3    H136487   0.591   2.626  16.725 -0.4085  0.0528 -0.2941
 5024TIP3    H236488   0.675   2.750  16.696  1.0843 -0.7968  0.2975
 5025TIP3   OH236489   1.186   3.140   2.062  0.0875  0.1018 -0.5655
 5025TIP3    H136490   1.264   3.142   2.119 -0.3146  0.5492 -0.0228
 5025TIP3    H236491   1.116   3.174   2.117 -0.5338 -0.4523 -1.0023
 5026TIP3   OH236492   2.733   3.974  16.678 -0.0963  0.2359 -0.2771
 5026TIP3    H136493   2.751   3.955  16.770  1.8486  0.9637 -0.4636
 5026TIP3    H236494   2.820   3.979  16.637 -0.8349  1.7371 -1.7728
 5027TIP3   OH236495   0.135   1.357   4.127  0.2522  0.4279  0.1060
 5027TIP3    H136496   0.200   1.423   4.152 -0.2968  0.9241  0.2571
 5027TIP3    H236497   0.057   1.408   4.107  0.4091 -0.0284 -1.8016
 5028TIP3   OH236498   4.179   6.221  15.354  0.3066 -0.7439  0.2100
 5028TIP3    H136499   4.227   6.304  15.357  2.4294 -1.9122  1.0011
 5028TIP3    H236500   4.132   6.223  15.270  1.2689  0.7389 -0.3322
 5029TIP3   OH236501   0.058   3.993  16.673 -0.6801 -0.2158 -0.4187
 5029TIP3    H136502   0.110   4.021  16.598 -0.3881  0.5395  0.0596
 5029TIP3    H236503   0.104   3.915  16.706  0.2562  0.5354  0.0983
 5030TIP3   OH236504   2.957   3.181  15.058  0.1578 -0.8193 -0.1219
 5030TIP3    H136505   2.988   3.093  15.037 -0.5621 -1.1697  0.2752
 5030TIP3    H236506   2.888   3.198  14.994  1.9387  0.4536 -1.8262
 5031TIP3   OH236507   4.421   6.241  14.392  0.0460  0.0806  0.3688
 5031TIP3    H136508   4.445   6.150  14.373  0.6055 -0.0406  1.5268
 5031TIP3    H236509   4.483   6.268  14.460 -1.1751  0.7765  1.2476
 5032TIP3   OH236510   1.927   2.427   2.689 -0.2854  0.1434 -0.1526
 5032TIP3    H136511   1.968   2.431   2.603 -0.8974  1.1051 -0.4154
 5032TIP3    H236512   1.955   2.508   2.733  0.1819 -0.4293  0.6346
 5033TIP3   OH236513   3.706   1.040  16.119  0.1469 -0.3404  0.0023
 5033TIP3    H136514   3.651   1.066  16.192 -0.2395  0.1094 -0.4410
 5033TIP3    H236515   3.653   0.979  16.069 -0.0479  0.2599 -0.5447
 5034TIP3   OH236516   1.810   1.812   6.522 -0.5244 -0.2168 -0.7510
 5034TIP3    H136517   1.741   1.879   6.524 -0.0702  0.2643  0.9972
 5034TIP3    H236518   1.765   1.731   6.501 -1.7125  0.0361  0.6464
 5035TIP3   OH236519   2.796   2.030  13.941 -0.4375  0.0848  0.1173
 5035TIP3    H136520   2.767   1.940  13.958 -1.3378 -0.3360 -3.0693
 5035TIP3    H236521   2.717   2.083  13.952 -1.0152 -0.1846 -2.2909
 5036TIP3   OH236522   1.013   0.839   1.863  0.4453  0.2329 -0.5973
 5036TIP3    H136523   1.041   0.749   1.878 -0.2918  0.2475  1.1366
 5036TIP3    H236524   0.931   0.831   1.814 -1.4970 -0.3071  2.4433
 5037TIP3   OH236525   5.030   6.463   0.312 -0.0740 -0.2968  0.5164
 5037TIP3    H136526   4.954   6.521   0.313  0.9075  1.0566  0.1867
 5037TIP3    H236527   5.055   6.455   0.404 -1.9260 -2.6300  0.9029
 5038TIP3   OH236528   0.862   0.048   2.221 -0.2250 -0.7414 -0.2252
 5038TIP3    H136529   0.856   0.143   2.236 -0.4277 -1.0273  1.6645
 5038TIP3    H236530   0.776   0.024   2.188 -0.2128 -0.2901 -0.5999
 5039TIP3   OH236531   6.509   0.171   0.878  0.5340  0.1950  0.5012
 5039TIP3    H136532   6.577   0.177   0.945  0.7666 -1.3359  0.4570
 5039TIP3    H236533   6.432   0.142   0.926  0.9738 -1.9640  0.0221
 5040TIP3   OH236534   5.128   6.190   4.380 -0.3621 -0.1308  0.1989
 5040TIP3    H136535   5.178   6.183   4.461 -0.4926  0.4260  0.3290
 5040TIP3    H236536   5.080   6.273   4.388  0.2242  0.3254 -0.7791
 5041TIP3   OH236537   0.797   5.788  12.796  0.3364 -0.3299 -0.5503
 5041TIP3    H136538   0.884   5.806  12.761  0.5042  0.7740  0.3762
 5041TIP3    H236539   0.747   5.867  12.778 -0.5780 -1.0393 -1.2887
 5042TIP3   OH236540   1.175   2.462  16.308  0.4639  0.0191 -0.0874
 5042TIP3    H136541   1.269   2.478  16.313  0.7929 -1.4658 -0.8949
 5042TIP3    H236542   1.162   2.382  16.359 -0.0717 -0.7472 -1.3742
 5043TIP3   OH236543   5.787   5.785  13.679 -0.2099  0.1484  0.2817
 5043TIP3    H136544   5.714   5.810  13.622  0.3748 -1.6348 -1.3946
 5043TIP3    H236545   5.865   5.812  13.630  0.3201 -1.8985 -0.0882
 5044TIP3   OH236546   3.747   3.929   1.183  0.2818  0.0327  0.2434
 5044TIP3    H136547   3.832   3.958   1.217  0.1305  0.5949  0.1385
 5044TIP3    H236548   3.684   3.993   1.215  0.0458  0.2240 -0.5603
 5045TIP3   OH236549   4.036   1.083  12.824  0.3685  0.1656 -0.5364
 5045TIP3    H136550   4.029   1.144  12.898  2.9528 -0.3267  0.2023
 5045TIP3    H236551   4.051   1.139  12.748  2.3831  0.5587  0.0859
 5046TIP3   OH236552   5.880   2.717   5.857 -0.2100 -0.2616 -0.1610
 5046TIP3    H136553   5.927   2.799   5.842 -0.7325  0.1140  0.2403
 5046TIP3    H236554   5.847   2.724   5.947 -1.0457 -0.5072 -0.4391
 5047TIP3   OH236555   2.514   3.941  15.915 -0.0554 -0.0943  0.2795
 5047TIP3    H136556   2.436   3.931  15.859  0.6226 -0.4252 -0.6189
 5047TIP3    H236557   2.575   3.993  15.862  0.3127  0.2374  1.0136
 5048TIP3   OH236558   2.020   1.963   2.473 -0.1892 -0.3302 -0.4328
 5048TIP3    H136559   2.072   1.883   2.463 -0.2898 -0.8281  2.1896
 5048TIP3    H236560   2.061   2.026   2.414  2.1857 -1.2762  0.0759
 5049TIP3   OH236561   6.046   0.265   3.662 -0.2633  0.5448 -0.5848
 5049TIP3    H136562   6.128   0.252   3.708 -1.0066 -1.8555  0.2559
 5049TIP3    H236563   6.063   0.234   3.573 -0.2305  0.0365 -0.4070
 5050TIP3   OH236564   4.481   4.612   4.583 -0.3476 -0.0349 -0.2518
 5050TIP3    H136565   4.561   4.591   4.534 -0.3499 -1.5620  0.3245
 5050TIP3    H236566   4.509   4.669   4.654 -0.1321  1.1347 -1.2457
 5051TIP3   OH236567   6.481   0.596   5.216  0.3487  0.1533 -0.4431
 5051TIP3    H136568   6.535   0.629   5.288  0.9911 -0.2512 -0.7291
 5051TIP3    H236569   6.435   0.673   5.183 -1.2906  0.0728  1.4980
 5052TIP3   OH236570   5.726   4.624   4.063 -0.3348 -0.0360 -0.5046
 5052TIP3    H136571   5.668   4.673   4.121  0.8278 -0.2507  0.9095
 5052TIP3    H236572   5.790   4.585   4.122  0.3072 -1.1043 -1.8623
 5053TIP3   OH236573   1.132   3.316  10.513 -0.4177  0.4758 -0.2333
 5053TIP3    H136574   1.226   3.300  10.503  0.2036  2.3137  1.8211
 5053TIP3    H236575   1.092   3.229  10.508  1.2777 -0.2843 -1.7635
 5054TIP3   OH236576   6.177   5.259  16.442 -0.2343  0.8026 -0.2690
 5054TIP3    H136577   6.123   5.325  16.399  2.0305  2.1233 -1.2589
 5054TIP3    H236578   6.152   5.176  16.401 -3.9758  0.7055  1.8297
 5055TIP3   OH236579   2.468   1.291  15.844 -0.1327 -0.1876  0.5621
 5055TIP3    H136580   2.402   1.342  15.891  1.7673  2.6290  0.3560
 5055TIP3    H236581   2.418   1.220  15.803 -3.0560  1.8158  0.3487
 5056TIP3   OH236582   5.230   2.618   0.720 -0.1605 -0.0753  0.0459
 5056TIP3    H136583   5.224   2.545   0.658 -0.3958 -0.4142  0.4627
 5056TIP3    H236584   5.298   2.591   0.781  0.1166  0.2883 -0.0974
 5057TIP3   OH236585   0.841   6.409  16.464  0.4233 -0.0018  0.3873
 5057TIP3    H136586   0.916   6.413  16.524  1.1062 -1.7237 -0.2598
 5057TIP3    H236587   0.790   6.334  16.496  0.3519 -0.4092 -0.6558
 5058TIP3   OH236588   5.122   6.601   6.510 -0.7278  0.3043  0.1363
 5058TIP3    H136589   5.034   6.638   6.498 -1.6006 -1.5088  0.4270
 5058TIP3    H236590   5.120   6.563   6.598 -0.6791 -2.1638 -0.8334
 5059TIP3   OH236591   6.303   1.205  11.904 -0.2468  0.0984 -0.0072
 5059TIP3    H136592   6.304   1.173  11.995  0.0245 -0.7621 -0.3022
 5059TIP3    H236593   6.298   1.300  11.912 -0.9526 -0.0035  0.9044
 5060TIP3   OH236594   1.855   0.178   5.615  0.2789  0.4358  0.7449
 5060TIP3    H136595   1.833   0.197   5.706  0.6243  1.7517  0.5758
 5060TIP3    H236596   1.815   0.250   5.566  0.7482  0.1567 -0.0618
 5061TIP3   OH236597   4.971   4.974  10.728 -0.7522 -0.7731 -0.1815
 5061TIP3    H136598   5.059   4.977  10.691 -1.2334  0.9752 -1.3607
 5061TIP3    H236599   4.916   5.016  10.661 -2.3158 -0.9213  0.9470
 5062TIP3   OH236600   0.006   5.738   4.943 -0.3253 -0.1896  0.2078
 5062TIP3    H136601  -0.032   5.820   4.913 -0.5772 -0.7051 -0.9400
 5062TIP3    H236602  -0.031   5.725   5.031 -1.0549  0.4189 -0.0021
 5063TIP3   OH236603   3.949   4.383   5.146  0.4229 -0.1424  0.2831
 5063TIP3    H136604   3.932   4.473   5.173  2.3280  0.2868  0.2115
 5063TIP3    H236605   3.884   4.331   5.192  0.6606  1.0480  2.0465
 5064TIP3   OH236606   0.543   0.245  13.456  0.1642  0.4536 -0.0699
 5064TIP3    H136607   0.616   0.193  13.489 -0.7304 -1.3926 -0.8210
 5064TIP3    H236608   0.583   0.320  13.413  1.4861  0.7853  1.6293
 5065TIP3   OH236609   3.510   1.060   1.861 -0.4553  0.1568  0.2176
 5065TIP3    H136610   3.453   0.983   1.853 -1.9534  0.7957  3.3210
 5065TIP3    H236611   3.504   1.102   1.775 -1.7499 -1.7440 -0.7050
 5066TIP3   OH236612   2.872   1.554  12.907 -0.1896 -0.0657 -0.2733
 5066TIP3    H136613   2.787   1.511  12.921 -0.6254  0.8839  0.1367
 5066TIP3    H236614   2.866   1.590  12.819 -0.0865 -0.2732 -0.3653
 5067TIP3   OH236615   6.467   3.030  14.641 -0.1402 -0.8007 -0.1418
 5067TIP3    H136616   6.527   3.098  14.669  0.1695 -1.3658  0.6084
 5067TIP3    H236617   6.510   2.990  14.565 -1.5920  1.5991 -2.4048
 5068TIP3   OH236618   0.305   4.129  14.116  0.5881  0.5728 -0.4490
 5068TIP3    H136619   0.256   4.171  14.187  0.2542  0.1650 -0.4322
 5068TIP3    H236620   0.348   4.054  14.157  3.0690  2.1444  0.0361
 5069TIP3   OH236621   2.581   3.504   5.576  0.4728  0.6643  0.5077
 5069TIP3    H136622   2.667   3.463   5.585  0.2844 -0.1503 -1.0364
 5069TIP3    H236623   2.600   3.598   5.574  1.2469  0.5242  0.8625
 5070TIP3   OH236624   5.098   5.150  12.458  0.7301 -0.6801  0.7556
 5070TIP3    H136625   5.158   5.113  12.523  0.7777 -1.3065  0.3709
 5070TIP3    H236626   5.109   5.245  12.466  2.2751 -0.7906  0.2487
 5071TIP3   OH236627   4.769   2.312  12.362 -0.0992  0.3429  0.7965
 5071TIP3    H136628   4.830   2.319  12.288  2.4357 -0.9123  2.5762
 5071TIP3    H236629   4.700   2.253  12.330 -0.9081  2.3542 -1.5257
 5072TIP3   OH236630   0.242   4.585   1.908 -0.3375 -0.0955 -0.1879
 5072TIP3    H136631   0.176   4.640   1.950  1.1538  2.4095 -0.9416
 5072TIP3    H236632   0.224   4.592   1.814  0.0402 -0.7060 -0.3158
 5073TIP3   OH236633   5.941   3.304   5.864 -0.2025  0.7252 -0.8328
 5073TIP3    H136634   5.870   3.349   5.910 -1.0526  0.1502 -1.5604
 5073TIP3    H236635   5.971   3.368   5.799 -0.3542  0.8064 -0.8246
 5074TIP3   OH236636   6.257   2.677  13.856 -0.5337 -0.0923 -0.0014
 5074TIP3    H136637   6.287   2.605  13.912 -0.4523 -0.8877 -1.0425
 5074TIP3    H236638   6.255   2.640  13.768  1.2750  1.6847 -0.8576
 5075TIP3   OH236639   0.953   5.581   6.107 -0.5915 -0.5553  0.2040
 5075TIP3    H136640   0.921   5.665   6.141  0.0757 -0.0287 -0.4363
 5075TIP3    H236641   0.960   5.525   6.185  2.0332  0.9727  1.2007
 5076TIP3   OH236642   4.547   1.466   3.217 -0.1333  0.3416  0.3976
 5076TIP3    H136643   4.511   1.549   3.248 -1.0027 -0.6935  2.2752
 5076TIP3    H236644   4.480   1.401   3.238  0.4426 -0.8466 -1.2055
 5077TIP3   OH236645   3.730   6.207  14.428  0.1280  0.6739 -0.0553
 5077TIP3    H136646   3.762   6.164  14.507  1.5856  0.6138 -0.6439
 5077TIP3    H236647   3.648   6.249  14.455  0.0426 -0.2385  1.1999
 5078TIP3   OH236648   1.557   3.063  12.264 -0.2636  0.0771  0.1765
 5078TIP3    H136649   1.559   3.155  12.289 -0.4474 -0.6486  3.3442
 5078TIP3    H236650   1.645   3.030  12.284 -0.3522 -0.5628 -0.4191
 5079TIP3   OH236651   6.107   0.762  15.214 -0.4289 -0.2986  0.1671
 5079TIP3    H136652   6.153   0.763  15.130 -0.7748 -2.8358 -0.1438
 5079TIP3    H236653   6.069   0.849  15.222 -0.2631  0.0547 -2.2527
 5080TIP3   OH236654   4.799   3.870  14.388  0.0664 -0.2012 -0.4398
 5080TIP3    H136655   4.882   3.838  14.351 -1.3169 -3.3235 -1.1057
 5080TIP3    H236656   4.818   3.882  14.481  0.5941 -4.0140  0.1009
 5081TIP3   OH236657   4.197   0.618  13.983  0.6725  0.3224 -0.3679
 5081TIP3    H136658   4.118   0.582  14.023  0.5464 -0.6503 -1.4305
 5081TIP3    H236659   4.170   0.643  13.894  1.3475  0.7934 -0.4458
 5082TIP3   OH236660   2.057   5.865  12.493 -0.8672  0.3661 -0.1072
 5082TIP3    H136661   2.016   5.949  12.514 -2.0852 -0.5494  1.3809
 5082TIP3    H236662   1.985   5.812  12.460  0.1999  0.3768 -2.7040
 5083TIP3   OH236663   6.712   5.527   1.205 -0.0776  0.6902  0.0284
 5083TIP3    H136664   6.749   5.501   1.290  5.3594  1.3632 -1.7801
 5083TIP3    H236665   6.685   5.618   1.218 -1.3636  0.1495  1.4917
 5084TIP3   OH236666   5.681   4.571  11.903  0.1184 -0.3352  0.2797
 5084TIP3    H136667   5.697   4.566  11.997  2.7957  0.8473 -0.0345
 5084TIP3    H236668   5.670   4.664  11.885 -0.7797 -0.5864 -0.5377
 5085TIP3   OH236669   6.475   3.418   1.644  0.2153  0.1376 -0.5188
 5085TIP3    H136670   6.537   3.487   1.620  1.9136 -1.8910 -2.4051
 5085TIP3    H236671   6.416   3.412   1.568  0.8247 -1.2203 -0.9118
 5086TIP3   OH236672   2.306   2.174  14.345  0.0434  0.1847  0.4405
 5086TIP3    H136673   2.393   2.200  14.373  0.3444 -1.8037  1.4730
 5086TIP3    H236674   2.250   2.193  14.420 -0.1057 -0.1255  0.4096
 5087TIP3   OH236675   3.484   5.648   5.539  0.0954  0.0586 -0.1433
 5087TIP3    H136676   3.436   5.566   5.528  1.5573 -0.8677  0.0415
 5087TIP3    H236677   3.461   5.678   5.627 -0.4966 -0.1112 -0.2356
 5088TIP3   OH236678   5.460   1.761   3.097  0.3173 -0.3746 -0.2949
 5088TIP3    H136679   5.376   1.784   3.057  0.4348 -0.5009 -0.6138
 5088TIP3    H236680   5.522   1.823   3.061  0.2554  0.0911  0.3876
 5089TIP3   OH236681   3.549   3.552   3.897  0.0884  0.0121  0.3669
 5089TIP3    H136682   3.531   3.529   3.988  1.6209 -0.0620  0.6707
 5089TIP3    H236683   3.476   3.514   3.848 -0.5346 -0.3065  1.5052
 5090TIP3   OH236684   6.312   3.926   1.334 -0.2790  0.1160 -0.4615
 5090TIP3    H136685   6.270   3.849   1.374 -0.1954 -0.1839 -0.9432
 5090TIP3    H236686   6.243   3.991   1.328 -1.1265 -0.8991 -2.6877
 5091TIP3   OH236687   1.859   0.609  15.016 -0.0155  0.0528 -0.0051
 5091TIP3    H136688   1.862   0.545  14.945 -0.2293  2.4997 -2.3737
 5091TIP3    H236689   1.770   0.644  15.012 -0.5345 -0.7795  2.5420
 5092TIP3   OH236690   5.696   1.538  10.607  0.3587  0.3554 -0.3338
 5092TIP3    H136691   5.738   1.533  10.693  0.5283 -1.8575 -0.4949
 5092TIP3    H236692   5.603   1.553  10.626 -0.0588 -2.6168  0.4311
 5093TIP3   OH236693   5.493   0.933   6.322  0.0874 -0.1926  0.0561
 5093TIP3    H136694   5.477   1.018   6.362 -0.2852 -0.3337  0.2113
 5093TIP3    H236695   5.540   0.953   6.241  0.3064  0.1349  0.2638
 5094TIP3   OH236696   6.218   4.734   0.382  0.4106  0.6113  0.3554
 5094TIP3    H136697   6.247   4.661   0.328  0.6769  0.6276  0.4731
 5094TIP3    H236698   6.166   4.693   0.451  0.2213  0.5737  0.1900
 5095TIP3   OH236699   3.416   1.203  13.556 -0.3852 -0.5529 -0.1569
 5095TIP3    H136700   3.365   1.164  13.485  0.6364  0.7072 -1.6660
 5095TIP3    H236701   3.503   1.164  13.548 -0.4070 -0.8250  0.7924
 5096TIP3   OH236702   2.127   4.507  13.805  0.2788  0.1621 -0.1666
 5096TIP3    H136703   2.222   4.497  13.801  0.2142 -0.1486 -1.9604
 5096TIP3    H236704   2.107   4.572  13.737 -0.4824  3.4946  2.9187
 5097TIP3   OH236705   6.539   4.018  15.713 -0.3421  0.9660 -0.3575
 5097TIP3    H136706   6.505   3.955  15.649 -0.5266  1.9277 -1.2292
 5097TIP3    H236707   6.511   3.983  15.798 -0.2073 -0.2640 -0.7991
 5098TIP3   OH236708   2.462   3.282   3.259  0.8007  0.1819 -0.2028
 5098TIP3    H136709   2.534   3.222   3.274  0.3908 -0.3690 -0.4074
 5098TIP3    H236710   2.502   3.369   3.264  1.7073 -0.1265 -1.4405
 5099TIP3   OH236711   4.986   6.374   0.051  0.8778 -0.0570 -0.4695
 5099TIP3    H136712   5.009   6.414   0.135 -1.1209  0.9128 -0.3275
 5099TIP3    H236713   4.968   6.448  -0.007  0.2814 -0.7212 -1.1642
 5100TIP3   OH236714   2.312   0.152  15.751 -0.0374  0.5522  0.0445
 5100TIP3    H136715   2.291   0.125  15.661 -0.1684  0.7303  0.0207
 5100TIP3    H236716   2.269   0.236  15.761  0.5319  0.8492  0.0529
 5101TIP3   OH236717   6.757   0.842   4.719 -0.6032 -0.2589 -0.4236
 5101TIP3    H136718   6.815   0.836   4.795 -0.2048  0.0357 -0.7007
 5101TIP3    H236719   6.688   0.778   4.737 -0.7338  0.0991  0.3703
 5102TIP3   OH236720   6.362   0.712   6.438 -0.1150  0.1003  0.0835
 5102TIP3    H136721   6.382   0.618   6.441 -0.7554 -0.0368  2.0606
 5102TIP3    H236722   6.313   0.724   6.357 -1.9245 -1.7401  0.8170
 5103TIP3   OH236723   5.822   4.530   0.905  0.0067  0.3894  0.0370
 5103TIP3    H136724   5.744   4.477   0.887  1.1871 -1.6947  0.7047
 5103TIP3    H236725   5.810   4.609   0.851  0.0130 -2.2563 -4.3531
 5104TIP3   OH236726   1.562   2.915   1.341 -0.1113 -0.1173  1.2832
 5104TIP3    H136727   1.518   2.856   1.402  1.2559 -1.1790  1.3177
 5104TIP3    H236728   1.631   2.861   1.302 -0.6215  0.6798 -0.8294
 5105TIP3   OH236729   6.593   4.087  15.317  0.6726 -0.0151  0.6327
 5105TIP3    H136730   6.609   4.140  15.238  2.3056  0.3298  1.1483
 5105TIP3    H236731   6.534   4.141  15.370  2.2193  1.3240  1.1002
 5106TIP3   OH236732   4.384   3.778   5.697 -0.4385 -0.1593  0.1952
 5106TIP3    H136733   4.307   3.721   5.695  0.4732 -1.4501  0.4292
 5106TIP3    H236734   4.350   3.863   5.724 -1.8109 -0.6468  0.0865
 5107TIP3   OH236735   1.414   6.304   4.507  0.3545  0.4761  0.4395
 5107TIP3    H136736   1.389   6.396   4.504 -2.1281 -0.0517  1.9673
 5107TIP3    H236737   1.404   6.279   4.598  0.1123 -1.5251 -0.0774
 5108TIP3   OH236738   2.621   4.217   5.586  0.4006 -0.2989  1.0398
 5108TIP3    H136739   2.593   4.147   5.527  1.0041  1.3551 -1.4116
 5108TIP3    H236740   2.550   4.225   5.650 -0.8644 -1.4733 -0.1406
 5109TIP3   OH236741   0.268   3.454  15.284 -0.1662  0.3060  0.7702
 5109TIP3    H136742   0.283   3.538  15.241 -0.7386 -0.0712 -0.1965
 5109TIP3    H236743   0.176   3.433  15.264  0.1445 -0.8349  0.4826
 5110TIP3   OH236744   3.507   5.485   3.761  0.4417 -0.1119  0.3292
 5110TIP3    H136745   3.441   5.445   3.818  0.4119  0.4539  0.7000
 5110TIP3    H236746   3.558   5.411   3.728 -0.8688 -0.6496 -0.6082
 5111TIP3   OH236747   3.300   4.934  14.416  0.8266  0.8159 -0.2479
 5111TIP3    H136748   3.347   4.881  14.351 -0.0007  0.6034 -0.6946
 5111TIP3    H236749   3.341   5.020  14.412  0.6371  0.8809 -1.2497
 5112TIP3   OH236750   5.928   2.293  15.281 -0.4913 -0.3617 -0.1888
 5112TIP3    H136751   5.851   2.330  15.239  0.4224 -0.8754 -2.4366
 5112TIP3    H236752   5.916   2.198  15.275 -0.4597 -0.4571  1.0054
 5113TIP3   OH236753   3.045   6.761   4.530  0.1652 -0.2271 -0.0615
 5113TIP3    H136754   2.991   6.685   4.511 -0.4438  0.4295 -1.0747
 5113TIP3    H236755   3.067   6.797   4.444  3.4530 -1.2575  0.1826
 5114TIP3   OH236756   3.697   3.005  16.957 -0.4369 -0.5754  0.0966
 5114TIP3    H136757   3.622   3.024  17.013 -0.8898 -1.9523 -0.0001
 5114TIP3    H236758   3.716   2.913  16.973  0.9267 -0.3771 -0.2620
 5115TIP3   OH236759   3.002   4.465  15.776  1.0709  0.1055  0.6331
 5115TIP3    H136760   2.940   4.430  15.712  0.3315  1.3658  0.6129
 5115TIP3    H236761   3.011   4.396  15.841  0.8449 -0.6973 -0.1686
 5116TIP3   OH236762   1.232   1.865   3.723  0.4061 -0.8044 -0.5209
 5116TIP3    H136763   1.219   1.793   3.784  3.0535 -0.0202  1.1379
 5116TIP3    H236764   1.176   1.935   3.756 -0.5129 -1.3718 -0.8491
 5117TIP3   OH236765   1.439   5.949  15.537  0.2876 -0.0090 -1.1546
 5117TIP3    H136766   1.532   5.962  15.556 -0.2064 -0.4727  2.1318
 5117TIP3    H236767   1.396   6.024  15.579 -1.0285 -1.4298  0.1186
 5118TIP3   OH236768   5.424   4.578   4.805  0.0169  0.0006  0.0279
 5118TIP3    H136769   5.434   4.652   4.864  0.4986  0.8769 -1.1030
 5118TIP3    H236770   5.332   4.552   4.814  0.3994 -0.8055  2.1585
 5119TIP3   OH236771   5.719   1.547  12.308 -0.4849 -0.6788  0.1665
 5119TIP3    H136772   5.649   1.492  12.272 -1.2844  1.3966 -1.6540
 5119TIP3    H236773   5.686   1.636  12.299  2.4435  0.4039 -0.8615
 5120TIP3   OH236774   6.522   2.136  15.107  0.2748  0.0859  0.0283
 5120TIP3    H136775   6.444   2.123  15.162  0.1093  0.6443 -0.0675
 5120TIP3    H236776   6.488   2.179  15.028  0.6834  0.3680  0.0046
 5121TIP3   OH236777   3.266   6.682  15.021  0.4379  0.6434 -0.1606
 5121TIP3    H136778   3.254   6.774  15.043  0.7206 -0.0563  3.4868
 5121TIP3    H236779   3.360   6.667  15.031  0.5418  0.1310 -1.6803
 5122TIP3   OH236780   3.985   2.702  15.807  0.3883 -0.1545 -0.0140
 5122TIP3    H136781   4.071   2.674  15.836  0.6286  0.7486  0.1719
 5122TIP3    H236782   4.000   2.739  15.720  0.4640  1.3737  0.6144
 5123TIP3   OH236783   1.380   1.250   3.407 -0.4539 -0.4223 -0.4103
 5123TIP3    H136784   1.415   1.323   3.459 -0.7272 -0.4913 -0.1242
 5123TIP3    H236785   1.448   1.231   3.343 -1.0293  1.1523 -1.5548
 5124TIP3   OH236786   1.377   1.875   1.276 -0.0218 -0.3477  0.0892
 5124TIP3    H136787   1.307   1.920   1.322  0.2324  0.3826 -0.2268
 5124TIP3    H236788   1.387   1.792   1.324 -0.7567 -0.2493  0.4332
 5125TIP3   OH236789   1.592   1.497   5.135  0.3795  0.2356 -0.4788
 5125TIP3    H136790   1.599   1.576   5.190 -1.9144  2.1959 -2.7292
 5125TIP3    H236791   1.541   1.526   5.060 -1.7329 -3.7862 -0.8410
 5126TIP3   OH236792   3.786   2.691   4.534  0.3517  0.3466  0.0683
 5126TIP3    H136793   3.755   2.708   4.623  0.1952 -2.9526  0.7711
 5126TIP3    H236794   3.707   2.692   4.480 -0.0522 -0.9366  0.6008
 5127TIP3   OH236795   2.677   5.054  16.749 -0.0853  0.1034  0.5392
 5127TIP3    H136796   2.597   5.065  16.800 -1.1490 -0.1021 -1.0116
 5127TIP3    H236797   2.677   4.961  16.724 -0.1513  0.4160 -0.6835
 5128TIP3   OH236798   4.528   1.597   0.087  0.6805  0.4591  0.2746
 5128TIP3    H136799   4.452   1.641   0.124  1.0136  0.8705  0.4817
 5128TIP3    H236800   4.603   1.639   0.129  1.0248  0.0820  0.0508
 5129TIP3   OH236801   4.603   5.060   1.382  0.3186 -0.0445 -0.5250
 5129TIP3    H136802   4.577   4.994   1.445 -0.5110  0.2048 -0.5899
 5129TIP3    H236803   4.539   5.130   1.393  0.6117  0.3274 -1.1213
 5130TIP3   OH236804   2.096   2.737  12.415  0.0840 -0.1541 -0.4037
 5130TIP3    H136805   2.142   2.653  12.410 -1.9951 -1.4058  0.0783
 5130TIP3    H236806   2.103   2.762  12.507  0.4107  0.0138 -0.4760
 5131TIP3   OH236807   4.803   3.264  12.566  0.1880  0.1565 -0.6585
 5131TIP3    H136808   4.715   3.262  12.605 -0.0509  0.7795 -1.1694
 5131TIP3    H236809   4.799   3.199  12.496 -0.1187  0.7743 -1.2190
 5132TIP3   OH236810   4.296   2.437  12.195 -0.0607 -0.1895  0.6265
 5132TIP3    H136811   4.306   2.363  12.255 -1.7016 -1.1358 -0.1735
 5132TIP3    H236812   4.273   2.511  12.251 -1.4467 -1.0255  1.2281
 5133TIP3   OH236813   3.934   2.209  16.825 -0.3610 -0.4115 -0.0406
 5133TIP3    H136814   3.894   2.243  16.905 -2.8217 -0.4522 -1.1635
 5133TIP3    H236815   3.908   2.117  16.822  2.4289 -1.3197  0.6679
 5134TIP3   OH236816   3.932   2.624   4.221 -0.3744 -0.6508  0.1598
 5134TIP3    H136817   3.922   2.718   4.234 -0.9279 -0.6538 -0.2225
 5134TIP3    H236818   3.870   2.585   4.282 -1.6694 -0.7084 -1.1471
 5135TIP3   OH236819   0.868   6.600  12.359 -0.3205 -0.4380  0.7902
 5135TIP3    H136820   0.806   6.618  12.429 -0.7195  0.4135  0.2309
 5135TIP3    H236821   0.820   6.545  12.297 -0.0305 -1.0258  1.0737
 5136TIP3   OH236822   4.964   2.068   3.368  0.0329  0.0478  0.3468
 5136TIP3    H136823   5.013   2.038   3.292 -0.2286 -0.8163  0.5144
 5136TIP3    H236824   4.944   1.989   3.417 -1.2300  0.4151  0.4649
 5137TIP3   OH236825   1.574   5.847  13.871 -0.2311 -0.2870 -0.1276
 5137TIP3    H136826   1.577   5.917  13.805 -1.1072  0.6244  0.7687
 5137TIP3    H236827   1.643   5.870  13.933 -2.1869  1.3109  1.5945
 5138TIP3   OH236828   3.903   1.261   0.093  0.0858  0.1188  0.9747
 5138TIP3    H136829   3.867   1.197   0.031  0.5290 -1.0127  1.8642
 5138TIP3    H236830   3.837   1.331   0.096  0.8881  1.1960 -2.2042
 5139TIP3   OH236831   5.890   0.583   4.843  0.0985 -0.1985 -0.5659
 5139TIP3    H136832   5.931   0.607   4.760  2.3669 -2.0468 -0.0855
 5139TIP3    H236833   5.842   0.503   4.824 -2.2247  1.1463 -0.7683
 5140TIP3   OH236834   2.216   0.243   1.233 -0.1180  0.1623 -0.1531
 5140TIP3    H136835   2.211   0.338   1.219  2.1520  0.2472 -0.6993
 5140TIP3    H236836   2.264   0.233   1.315 -1.5878 -0.5437  0.6604
 5141TIP3   OH236837   3.230   4.384  13.226 -0.1084  0.6993  0.0215
 5141TIP3    H136838   3.196   4.314  13.171  2.4682  0.8095 -1.8833
 5141TIP3    H236839   3.212   4.464  13.176 -0.3888  1.1069  0.7683
 5142TIP3   OH236840   4.723   4.673   5.000  0.3568 -0.2270  0.0126
 5142TIP3    H136841   4.720   4.757   5.045 -1.5220 -1.4375  2.3503
 5142TIP3    H236842   4.795   4.625   5.041  0.5660 -0.2453 -0.3717
 5143TIP3   OH236843   3.549   6.108  12.725 -0.1041  0.2969  0.4229
 5143TIP3    H136844   3.610   6.035  12.723  0.2275  0.5521  1.1335
 5143TIP3    H236845   3.484   6.087  12.657  0.1307 -0.5238  0.4460
 5144TIP3   OH236846   6.768   3.687   0.805 -0.4402 -0.2301  0.5160
 5144TIP3    H136847   6.732   3.639   0.730  2.8057 -1.0353 -0.7237
 5144TIP3    H236848   6.766   3.778   0.778 -1.0825 -0.3057  0.2925
 5145TIP3   OH236849   5.831   0.263   6.387 -0.2905  0.1664  0.0543
 5145TIP3    H136850   5.868   0.200   6.325 -2.8737 -1.1265 -0.3124
 5145TIP3    H236851   5.742   0.278   6.355 -0.7452  1.6714  1.8801
 5146TIP3   OH236852   3.951   3.607  14.861 -0.2457  0.6969  0.3026
 5146TIP3    H136853   3.958   3.528  14.914  0.5855  0.4910 -0.0964
 5146TIP3    H236854   3.882   3.588  14.797  0.4143  0.0351 -0.2213
 5147TIP3   OH236855   2.909   3.629  17.082  0.2028  0.2373 -0.3317
 5147TIP3    H136856   2.832   3.610  17.136  0.4890 -1.7934 -0.5750
 5147TIP3    H236857   2.966   3.679  17.140 -1.0827  1.4264 -0.0159
 5148TIP3   OH236858   5.670   2.101  15.122  0.3283 -0.0139  0.3370
 5148TIP3    H136859   5.619   2.045  15.064 -0.0114  1.6522 -1.0681
 5148TIP3    H236860   5.750   2.052  15.140 -0.7645 -1.7153  0.7419
 5149TIP3   OH236861   3.866   5.769   4.469 -0.2575 -0.0742  0.3870
 5149TIP3    H136862   3.806   5.787   4.541  1.9526  1.6860  1.9153
 5149TIP3    H236863   3.914   5.691   4.496 -0.1345 -0.0209  0.3225
 5150TIP3   OH236864   6.566   4.585  11.691  0.2204 -0.6914 -0.0068
 5150TIP3    H136865   6.487   4.637  11.679  0.5734 -0.2407 -0.3978
 5150TIP3    H236866   6.598   4.568  11.602  1.0957 -0.0417  0.1704
 5151TIP3   OH236867   3.206   6.458   0.837  0.6998 -0.5245 -0.1484
 5151TIP3    H136868   3.251   6.405   0.771  2.0137 -0.8566  0.9703
 5151TIP3    H236869   3.116   6.424   0.837  0.6518 -0.4913 -1.7658
 5152TIP3   OH236870   0.871   5.371  11.658 -0.0311  0.0924 -0.4139
 5152TIP3    H136871   0.939   5.439  11.661  0.3265 -0.2600  2.8987
 5152TIP3    H236872   0.905   5.302  11.714 -2.5822 -0.6700  0.2799
 5153TIP3   OH236873   3.059   3.652   1.647  0.5185  0.7370 -0.0159
 5153TIP3    H136874   3.137   3.632   1.699  0.0428  0.0697  0.4446
 5153TIP3    H236875   3.042   3.745   1.665  0.7633  0.6916  0.4749
 5154TIP3   OH236876   3.358   0.602   5.227 -0.5635  0.1555 -0.1252
 5154TIP3    H136877   3.317   0.586   5.142  0.8440  0.2529 -0.8525
 5154TIP3    H236878   3.384   0.694   5.225  0.2908 -0.0685  0.0319
 5155TIP3   OH236879   3.505   2.820  15.751 -0.4907  0.2572 -0.2595
 5155TIP3    H136880   3.420   2.863  15.748  1.1010  3.6605 -0.6563
 5155TIP3    H236881   3.553   2.857  15.677  2.0343  0.0604  1.1860
 5156TIP3   OH236882   2.827   0.071  14.928 -0.0606 -0.0535  0.1206
 5156TIP3    H136883   2.865   0.082  15.015  0.9213  2.0361 -0.5242
 5156TIP3    H236884   2.735   0.093  14.940  0.1958  0.8716  0.5349
 5157TIP3   OH236885   3.229   4.091   0.583  0.1226  0.0869  0.1528
 5157TIP3    H136886   3.167   4.128   0.520  0.0219 -1.7856 -0.9332
 5157TIP3    H236887   3.174   4.045   0.646  0.3570 -2.0653 -1.1376
 5158TIP3   OH236888   5.787   2.742   1.447 -0.0441 -0.3396  0.9924
 5158TIP3    H136889   5.860   2.693   1.485  0.6669 -0.5138 -0.5075
 5158TIP3    H236890   5.713   2.681   1.451  0.2139 -0.6353  1.3609
 5159TIP3   OH236891   4.608   2.041  15.614  0.3883 -0.6274 -0.1483
 5159TIP3    H136892   4.563   2.109  15.564  1.4220  0.8859  0.9179
 5159TIP3    H236893   4.555   2.030  15.693  0.8424 -0.2232  0.2159
 5160TIP3   OH236894   4.564   2.076  14.056 -0.5020 -0.4201  0.3646
 5160TIP3    H136895   4.499   2.008  14.072  0.2604 -1.2385  0.0399
 5160TIP3    H236896   4.541   2.146  14.117 -0.2727 -1.6775  1.9538
 5161TIP3   OH236897   0.787   0.166   5.552  0.0788 -0.7349 -0.4057
 5161TIP3    H136898   0.805   0.239   5.612 -1.3116 -1.3739  0.8617
 5161TIP3    H236899   0.765   0.207   5.469 -2.9322  0.4906  0.8602
 5162TIP3   OH236900   0.733   4.603  16.593  0.4132 -0.4803  0.5211
 5162TIP3    H136901   0.652   4.555  16.574  0.5237 -1.3753  2.1583
 5162TIP3    H236902   0.782   4.601  16.511  0.5671 -3.5055  0.5778
 5163TIP3   OH236903   3.434   1.372  17.096  0.4977 -0.4201  0.1703
 5163TIP3    H136904   3.520   1.339  17.122  1.0675 -2.2900 -3.5193
 5163TIP3    H236905   3.450   1.427  17.020 -1.3905  1.4740  1.0334
 5164TIP3   OH236906   1.593   0.399   2.119 -0.0216  0.3964  0.2082
 5164TIP3    H136907   1.580   0.366   2.030  1.0577  1.6780 -0.4585
 5164TIP3    H236908   1.604   0.494   2.108 -1.6250  0.8273  1.9122
 5165TIP3   OH236909   1.165   5.445   2.697 -0.2411 -0.4812 -0.1472
 5165TIP3    H136910   1.221   5.515   2.730 -0.3382  0.3862 -1.6980
 5165TIP3    H236911   1.103   5.429   2.768  0.8690 -0.2478  0.9200
 5166TIP3   OH236912   2.864   0.343  11.322  0.2687  0.0565  0.0563
 5166TIP3    H136913   2.791   0.338  11.383 -1.5339  2.5597 -1.6926
 5166TIP3    H236914   2.835   0.296  11.244  1.5104 -0.9031  0.1319
 5167TIP3   OH236915   3.029   3.291   2.535  0.6651  0.2901  0.4881
 5167TIP3    H136916   3.102   3.231   2.516  0.7274  0.8274 -1.1455
 5167TIP3    H236917   2.960   3.262   2.476 -0.2526  0.1702  1.5998
 5168TIP3   OH236918   6.812   4.153   3.883 -0.1415 -0.5369 -0.3555
 5168TIP3    H136919   6.889   4.096   3.882 -0.5004 -1.0374  0.1419
 5168TIP3    H236920   6.847   4.240   3.861  0.1506 -1.2347 -2.9205
 5169TIP3   OH236921   5.663   0.204   2.197  0.2231  0.0168 -0.4212
 5169TIP3    H136922   5.706   0.266   2.256 -0.9799 -0.0328  0.5549
 5169TIP3    H236923   5.646   0.127   2.252  0.4401 -0.6388 -1.2490
 5170TIP3   OH236924   1.023   1.098   1.972  0.6106  0.1205 -0.5144
 5170TIP3    H136925   1.069   1.178   1.947  1.9841 -0.0259  1.3068
 5170TIP3    H236926   1.058   1.030   1.915  1.1509  0.4006 -0.5177
 5171TIP3   OH236927   4.006   6.366   0.485 -0.0634 -0.2440 -0.0805
 5171TIP3    H136928   4.065   6.291   0.481  0.8486  0.4856 -1.6165
 5171TIP3    H236929   3.970   6.365   0.573  0.4895 -2.0484  0.1513
 5172TIP3   OH236930   3.108   4.882  15.881  0.2459 -0.3779  0.0353
 5172TIP3    H136931   3.142   4.902  15.969  1.6659 -1.8296 -0.1159
 5172TIP3    H236932   3.185   4.886  15.825 -0.1810 -1.7959 -0.7067
 5173TIP3   OH236933   1.097   4.168  16.443 -0.1441  0.0983 -0.6240
 5173TIP3    H136934   1.180   4.213  16.426  0.9970 -2.2741 -1.7916
 5173TIP3    H236935   1.094   4.159  16.539  0.7688  0.4739 -0.5514
 5174TIP3   OH236936   5.331   3.506   3.440 -0.4096 -0.5821  0.4958
 5174TIP3    H136937   5.313   3.443   3.510 -0.8400 -0.0853  0.8340
 5174TIP3    H236938   5.314   3.591   3.479 -0.9414 -0.3127 -0.3045
 5175TIP3   OH236939   2.721   4.467   1.702  0.4374  0.1289 -0.5207
 5175TIP3    H136940   2.727   4.562   1.706 -0.8607  0.2237 -0.1824
 5175TIP3    H236941   2.627   4.449   1.702  0.5005 -1.0385 -4.0497
 5176TIP3   OH236942   5.097   0.575   3.813  0.1837 -0.4032 -0.1633
 5176TIP3    H136943   5.118   0.547   3.724 -0.4934 -0.3869 -0.3331
 5176TIP3    H236944   5.112   0.669   3.812 -1.0032 -0.1975 -0.6249
 5177TIP3   OH236945   2.052   0.783   5.873 -0.1800 -0.2355  0.1396
 5177TIP3    H136946   2.025   0.693   5.895  1.0012 -0.5754  0.2433
 5177TIP3    H236947   2.025   0.835   5.949  1.9351 -1.0507  1.5389
 5178TIP3   OH236948   3.718   0.797  14.015  0.1587  0.7103 -0.1187
 5178TIP3    H136949   3.795   0.782  14.069  0.6248  0.3036 -0.8715
 5178TIP3    H236950   3.645   0.806  14.077  0.7369  0.6315  0.5767
 5179TIP3   OH236951   5.787   1.242  12.132 -0.1984  0.3944 -0.7047
 5179TIP3    H136952   5.822   1.228  12.044  1.0099  3.3736 -0.8217
 5179TIP3    H236953   5.859   1.281  12.181 -1.1120 -0.3914  1.3988
 5180TIP3   OH236954   0.004   2.632  12.346 -0.2045 -0.3470  0.0814
 5180TIP3    H136955   0.081   2.595  12.389 -1.3083 -0.5381  2.0374
 5180TIP3    H236956   0.009   2.601  12.256  1.7330 -0.7553  0.2930
 5181TIP3   OH236957   2.934   5.076   3.203  0.6326 -0.6466 -0.5213
 5181TIP3    H136958   3.030   5.080   3.208  0.5498  0.9398  0.4579
 5181TIP3    H236959   2.914   4.982   3.202  2.1967 -1.0131 -1.0893
 5182TIP3   OH236960   2.808   0.927  15.488  0.2608  0.2405 -0.0263
 5182TIP3    H136961   2.768   0.938  15.402 -0.1936 -1.1398 -0.0223
 5182TIP3    H236962   2.737   0.942  15.550  0.3337  0.2053  0.0672
 5183TIP3   OH236963   5.501   6.169  13.377 -0.1843  0.0713 -0.0368
 5183TIP3    H136964   5.451   6.088  13.386  0.1684 -0.0853  0.5823
 5183TIP3    H236965   5.524   6.173  13.284 -0.6561 -0.2611 -0.1708
 5184TIP3   OH236966   5.442   6.450  14.346 -0.1118 -0.0190  0.2325
 5184TIP3    H136967   5.442   6.440  14.441 -0.5336 -1.6438  0.0836
 5184TIP3    H236968   5.470   6.365  14.313 -1.5993 -0.0156 -1.1414
 5185TIP3   OH236969   1.036   2.934   4.025  0.0071 -0.0049  0.0532
 5185TIP3    H136970   1.025   3.029   4.020  1.0034  0.0766 -0.9031
 5185TIP3    H236971   1.129   2.920   4.006  0.0502 -1.1202  0.9695
 5186TIP3   OH236972   1.432   5.415   1.545 -0.0971  0.0410 -0.0790
 5186TIP3    H136973   1.449   5.444   1.635  0.1335  2.2559 -0.7714
 5186TIP3    H236974   1.344   5.378   1.547  0.4520 -1.2861  1.3196
 5187TIP3   OH236975   1.410   1.780   4.312  0.0336 -0.5751  0.4074
 5187TIP3    H136976   1.400   1.703   4.368  0.1821 -0.7735  0.1608
 5187TIP3    H236977   1.499   1.810   4.329  0.3570 -1.1051 -0.3175
 5188TIP3   OH236978   3.953   0.105   2.714 -0.1017 -0.3553  0.3432
 5188TIP3    H136979   4.004   0.069   2.641  0.8793  0.5376  0.5752
 5188TIP3    H236980   4.001   0.077   2.792  0.7533  1.5156  0.5279
 5189TIP3   OH236981   2.028   3.127   0.511  0.1366 -0.0839 -0.0457
 5189TIP3    H136982   1.956   3.101   0.453 -0.1460 -0.9224  0.6688
 5189TIP3    H236983   1.986   3.163   0.588  0.4731 -0.5502  0.3651
 5190TIP3   OH236984   5.767   2.777   3.292 -0.7090  0.2667 -0.0088
 5190TIP3    H136985   5.805   2.718   3.227 -2.8591 -1.8521  0.4672
 5190TIP3    H236986   5.689   2.813   3.250  0.5004  2.8305 -0.2428
 5191TIP3   OH236987   4.674   1.072  14.083 -0.0777  0.0911  0.7432
 5191TIP3    H136988   4.748   1.051  14.027  0.6071  0.4766  1.4891
 5191TIP3    H236989   4.598   1.033  14.039  0.4163  0.5240 -0.5225
 5192TIP3   OH236990   4.617   2.895  11.468  0.0757 -0.0634 -0.3488
 5192TIP3    H136991   4.638   2.881  11.560 -0.0009 -0.9473 -0.4592
 5192TIP3    H236992   4.524   2.916  11.467  0.0610 -0.1221 -0.2316
 5193TIP3   OH236993   1.847   3.442  16.029 -0.0617 -0.5450  0.4260
 5193TIP3    H136994   1.882   3.434  15.940 -0.3246  1.3388  0.1197
 5193TIP3    H236995   1.852   3.535  16.049  0.5618 -0.9894  2.6532
 5194TIP3   OH236996   2.931   3.316  13.878 -0.4377 -0.8303 -0.2206
 5194TIP3    H136997   2.946   3.242  13.819  0.7310 -1.4145  0.7419
 5194TIP3    H236998   2.956   3.282  13.964  0.9032  0.9199  0.1301
 5195TIP3   OH236999   3.108   6.069  12.104 -0.0091  0.0109  0.6215
 5195TIP3    H137000   3.190   6.118  12.102  0.6716 -1.0478 -2.2646
 5195TIP3    H237001   3.123   5.999  12.167  1.5302 -0.4641 -0.2224
 5196TIP3   OH237002   2.976   3.073  16.930 -0.0161  0.0719  0.8328
 5196TIP3    H137003   2.965   2.980  16.944  0.2577 -0.1169 -0.1355
 5196TIP3    H237004   2.998   3.081  16.837  0.0619  1.0863  0.9273
 5197TIP3   OH237005   0.160   5.607   2.939 -0.4849 -0.4869 -0.2557
 5197TIP3    H137006   0.251   5.621   2.965 -0.5091 -1.2008  0.2409
 5197TIP3    H237007   0.162   5.607   2.843  0.1704 -1.2896 -0.2542
 5198TIP3   OH237008   4.833   6.600  16.637  0.4906 -0.3295 -0.1113
 5198TIP3    H137009   4.770   6.541  16.596 -1.2771 -1.0823  3.2924
 5198TIP3    H237010   4.809   6.687  16.606 -1.3615 -0.7608 -0.0152
 5199TIP3   OH237011   6.588   1.639   5.001 -0.3447  0.0873 -0.6040
 5199TIP3    H137012   6.550   1.652   4.914 -1.7560  1.2235  0.1339
 5199TIP3    H237013   6.515   1.606   5.054 -0.1833  1.7091  0.6955
 5200TIP3   OH237014   6.583   5.326   0.405  0.1388  0.5107  0.4266
 5200TIP3    H137015   6.496   5.288   0.401  0.4808 -0.2031 -0.8262
 5200TIP3    H237016   6.567   5.420   0.421 -0.9577  0.6929 -1.4375
 5201TIP3   OH237017   0.741   2.909   1.050  0.3823 -0.0961 -0.0226
 5201TIP3    H137018   0.809   2.872   0.994  0.1693 -0.0242 -0.3305
 5201TIP3    H237019   0.789   2.948   1.123  0.5994 -1.3422  0.5307
 5202TIP3   OH237020   5.987   4.662   6.669 -0.7776 -0.1518 -0.8351
 5202TIP3    H137021   5.998   4.727   6.738 -2.7664  0.5908 -1.1530
 5202TIP3    H237022   6.058   4.681   6.607 -2.5860  3.3156 -2.0979
 5203TIP3   OH237023   2.130   2.090   2.242  0.3855  0.2710 -0.1178
 5203TIP3    H137024   2.223   2.096   2.222  0.3699  0.9002 -0.0340
 5203TIP3    H237025   2.097   2.180   2.230 -0.2534  0.0096 -0.3786
 5204TIP3   OH237026   3.502   0.653  15.881  0.0792  0.0843 -0.4320
 5204TIP3    H137027   3.455   0.573  15.858 -0.3047  0.2628 -0.2916
 5204TIP3    H237028   3.593   0.627  15.891  0.1873 -0.0879 -1.7043
 5205TIP3   OH237029   2.317   5.857   4.228 -0.7075 -0.0847  0.1354
 5205TIP3    H137030   2.222   5.862   4.217 -0.6671  1.4091  0.2942
 5205TIP3    H237031   2.338   5.766   4.209 -2.0656 -0.2446 -0.7446
 5206TIP3   OH237032   3.186   6.332  14.042  0.3752  0.2251 -0.0276
 5206TIP3    H137033   3.091   6.336  14.029  0.4005 -1.5031 -0.9927
 5206TIP3    H237034   3.221   6.392  13.976 -0.0131  0.4552 -0.0294
 5207TIP3   OH237035   2.266   5.428   6.326 -0.1722  0.0744  0.1950
 5207TIP3    H137036   2.350   5.401   6.289 -1.0000 -0.9109 -1.0454
 5207TIP3    H237037   2.201   5.382   6.273 -1.5501  1.8133  0.2907
 5208TIP3   OH237038   0.355   3.430  14.907  0.5921  0.0523  0.1307
 5208TIP3    H137039   0.311   3.513  14.891 -0.7930 -0.5472  0.7183
 5208TIP3    H237040   0.387   3.403  14.821  0.4511  0.8574 -0.1807
 5209TIP3   OH237041   2.297   1.369  13.790  0.1690 -0.6267 -0.2387
 5209TIP3    H137042   2.227   1.382  13.726  1.0682 -0.7714 -1.2698
 5209TIP3    H237043   2.364   1.433  13.766  0.0188  0.1564  1.3115
 5210TIP3   OH237044   4.064   1.864  13.736  0.3135  0.1159 -0.2316
 5210TIP3    H137045   4.150   1.845  13.775  0.9565  0.1815 -1.5583
 5210TIP3    H237046   4.077   1.945  13.687 -1.1535  1.4532  1.4438
 5211TIP3   OH237047   3.857   5.564  14.210 -0.0284  0.0217  0.3267
 5211TIP3    H137048   3.793   5.502  14.244  0.3580 -1.0102 -0.7400
 5211TIP3    H237049   3.869   5.627  14.281 -1.8730 -0.0065  0.7120
 5212TIP3   OH237050   0.217   3.054  11.211 -0.1643  0.1543 -0.1332
 5212TIP3    H137051   0.163   3.010  11.145  2.2525 -1.6306 -1.0810
 5212TIP3    H237052   0.154   3.095  11.270 -2.5272 -1.6620 -1.2128
 5213TIP3   OH237053   6.050   0.316  16.294 -0.7923 -0.3840  0.2160
 5213TIP3    H137054   5.976   0.343  16.348 -1.1766  0.5102 -0.7252
 5213TIP3    H237055   6.079   0.396  16.250 -0.5766 -1.0931 -0.9918
 5214TIP3   OH237056   1.461   0.493   2.751 -0.0613 -0.3954 -0.4565
 5214TIP3    H137057   1.373   0.531   2.751  0.2261  0.2930 -0.6167
 5214TIP3    H237058   1.460   0.431   2.823  0.0404  1.3560  1.1372
 5215TIP3   OH237059   4.338   0.070   3.122  0.0590 -0.0211  0.2352
 5215TIP3    H137060   4.376   0.134   3.182  0.4463  1.2898 -1.3295
 5215TIP3    H237061   4.260   0.114   3.088 -0.3303 -0.8734  0.0266
 5216TIP3   OH237062   5.114   4.066   4.927 -0.0251 -0.0400 -0.6164
 5216TIP3    H137063   5.143   4.147   4.886  1.1252  0.5516  1.2589
 5216TIP3    H237064   5.136   3.998   4.863  0.8505  0.9228 -1.3812
 5217TIP3   OH237065   0.153   4.662  16.592 -0.4340 -1.0677 -0.5203
 5217TIP3    H137066   0.233   4.662  16.645 -0.5992 -0.4627 -0.2595
 5217TIP3    H237067   0.088   4.616  16.646 -0.7879  0.1406  0.1070
 5218TIP3   OH237068   0.564   2.909   3.886 -0.4325  0.4823  0.1713
 5218TIP3    H137069   0.583   2.870   3.972 -0.0123  2.4423  1.0220
 5218TIP3    H237070   0.517   2.990   3.906 -0.9996  0.6169 -1.5123
 5219TIP3   OH237071   2.287   2.468  11.689  0.1579 -0.0010 -0.0700
 5219TIP3    H137072   2.381   2.482  11.673 -0.5518  4.5060 -1.9300
 5219TIP3    H237073   2.278   2.373  11.694  4.6688 -0.7264 -0.6324
 5220TIP3   OH237074   4.299   5.367  10.240  0.1016  0.6613 -0.6000
 5220TIP3    H137075   4.247   5.446  10.256  0.1359  1.1366 -2.6127
 5220TIP3    H237076   4.380   5.383  10.288  0.2591  2.0539 -1.2742
 5221TIP3   OH237077   2.393   5.047   5.517  0.5180 -0.5274 -0.1120
 5221TIP3    H137078   2.341   4.968   5.501  1.5075 -1.2969  0.3966
 5221TIP3    H237079   2.444   5.028   5.595  0.5833  0.7241  0.1748
 5222TIP3   OH237080   0.014   5.179   1.776  0.2922 -0.2771  0.8038
 5222TIP3    H137081   0.107   5.179   1.798  0.1049 -0.3923  1.6675
 5222TIP3    H237082  -0.018   5.094   1.807 -0.4157  0.4046  2.0451
 5223TIP3   OH237083   1.948   1.763  16.472 -0.0261 -0.2230  0.0359
 5223TIP3    H137084   1.893   1.838  16.455  0.7198  0.3647  0.1437
 5223TIP3    H237085   1.906   1.718  16.545 -0.0513  0.5455  0.5038
 5224TIP3   OH237086   5.808   4.495   5.869 -0.3500 -0.3772  0.1777
 5224TIP3    H137087   5.896   4.524   5.893  0.1103 -1.0984 -0.5855
 5224TIP3    H237088   5.814   4.399   5.868 -0.6342 -0.4140 -1.6463
 5225TIP3   OH237089   0.585   6.366   5.538 -0.1750  0.2888  0.0968
 5225TIP3    H137090   0.513   6.337   5.594 -0.3960  1.3447  0.3762
 5225TIP3    H237091   0.541   6.408   5.463  0.1415  0.9807  0.2922
 5226TIP3   OH237092   3.107   3.150  16.001 -0.0324  0.3497 -0.3924
 5226TIP3    H137093   3.202   3.152  16.012  0.0884 -2.3766 -0.4225
 5226TIP3    H237094   3.093   3.185  15.913  0.9895  0.1703 -0.6376
 5227TIP3   OH237095   4.401   5.518   4.955 -0.0841  0.1374 -0.2863
 5227TIP3    H137096   4.413   5.561   4.871 -2.0415  1.8394  0.2187
 5227TIP3    H237097   4.389   5.426   4.934 -3.2335  0.8328 -2.2550
 5228TIP3   OH237098   6.611   3.085  12.850 -0.3550 -0.1656 -0.2634
 5228TIP3    H137099   6.675   3.015  12.858 -0.8178 -0.6291 -0.5706
 5228TIP3    H237100   6.663   3.163  12.832  0.0916 -0.6013 -0.8823
 5229TIP3   OH237101   4.794   0.545  15.385  0.7661  0.2135  0.5793
 5229TIP3    H137102   4.712   0.572  15.427  1.1357  2.0638  0.2152
 5229TIP3    H237103   4.769   0.475  15.326 -0.6276  0.9331  0.2694
 5230TIP3   OH237104   1.333   6.174   1.615 -0.1892  0.1016  0.1767
 5230TIP3    H137105   1.243   6.173   1.648 -0.3896  1.0515 -0.3109
 5230TIP3    H237106   1.325   6.152   1.522  0.1534 -0.4542  0.2758
 5231TIP3   OH237107   0.736   2.241   3.639 -0.8511  0.5971 -0.0755
 5231TIP3    H137108   0.769   2.227   3.728  0.1782 -2.5725 -0.8371
 5231TIP3    H237109   0.649   2.280   3.652  0.1721  2.3903  2.1748
 5232TIP3   OH237110   0.242   0.341  14.600 -0.2160  0.2915  0.4321
 5232TIP3    H137111   0.191   0.421  14.613 -0.0916  0.4292  0.0900
 5232TIP3    H237112   0.320   0.354  14.653 -0.6453 -0.0275  1.1584
 5233TIP3   OH237113   3.359   0.585  14.540 -0.1328 -0.0395  0.0300
 5233TIP3    H137114   3.302   0.590  14.463  0.7219  0.9419 -0.5697
 5233TIP3    H237115   3.327   0.653  14.599  0.3090  0.4026 -0.2362
 5234TIP3   OH237116   6.077   2.951  16.073  0.1914  0.3427  0.5215
 5234TIP3    H137117   5.991   2.921  16.045  0.6952 -1.5819  0.8957
 5234TIP3    H237118   6.080   3.043  16.047 -1.3482  0.0226 -0.9411
 5235TIP3   OH237119   1.236   6.195   4.353 -0.2946 -0.3450  0.2611
 5235TIP3    H137120   1.319   6.231   4.384  0.4026 -1.3163 -0.4311
 5235TIP3    H237121   1.217   6.124   4.413 -0.4093 -0.3901  0.1710
 5236TIP3   OH237122   2.160   4.717  10.554 -0.5205 -0.3096  0.5417
 5236TIP3    H137123   2.118   4.803  10.549  0.7708  0.4063  1.3322
 5236TIP3    H237124   2.253   4.737  10.563 -0.1552 -1.8115  0.3092
 5237TIP3   OH237125   2.918   6.531   4.417 -0.2298 -0.2493  0.1299
 5237TIP3    H137126   2.914   6.438   4.440 -0.1812 -1.0900 -2.8440
 5237TIP3    H237127   2.942   6.531   4.324  0.6307  2.7840  0.2689
 5238TIP3   OH237128   6.277   4.328   3.154  0.1254 -0.0520 -0.1706
 5238TIP3    H137129   6.202   4.362   3.203  0.5500  0.3653  0.1983
 5238TIP3    H237130   6.351   4.341   3.212  0.4900 -0.4652 -0.5351
 5239TIP3   OH237131   3.245   3.499   3.647  0.1916  0.2502  0.2645
 5239TIP3    H137132   3.178   3.539   3.592  2.5441  2.8199 -0.9878
 5239TIP3    H237133   3.203   3.487   3.732 -2.6147 -0.8946 -1.1690
 5240TIP3   OH237134   2.377   4.339   0.948 -0.0801 -0.1228  0.0907
 5240TIP3    H137135   2.325   4.269   0.988 -1.3506 -0.2238 -1.6182
 5240TIP3    H237136   2.464   4.330   0.987 -0.2056 -2.6629 -0.0676
 5241TIP3   OH237137   3.924   2.793  11.220 -0.5880 -0.6528  0.2873
 5241TIP3    H137138   3.977   2.777  11.143  0.3833  0.1785  0.7566
 5241TIP3    H237139   3.835   2.804  11.186  0.2802  3.4469 -1.2973
 5242TIP3   OH237140   2.798   5.809   4.699 -0.7259 -0.0279  0.1255
 5242TIP3    H137141   2.822   5.893   4.661 -1.1087 -0.4805 -1.1602
 5242TIP3    H237142   2.799   5.824   4.794 -1.0976  1.4924 -0.0955
 5243TIP3   OH237143   4.933   0.219   2.655 -0.3979 -0.6004 -0.4068
 5243TIP3    H137144   4.896   0.302   2.684  0.4317 -0.2509 -0.3034
 5243TIP3    H237145   4.966   0.237   2.567  1.1578 -0.3622  0.1831
 5244TIP3   OH237146   6.071   2.345   0.881 -0.4926 -0.2470  0.0321
 5244TIP3    H137147   6.037   2.256   0.894 -1.1454 -0.1129 -0.6489
 5244TIP3    H237148   6.017   2.380   0.810 -2.7170  1.9906  2.6418
 5245TIP3   OH237149   0.856   1.489   0.738 -0.6098  0.1006  0.2066
 5245TIP3    H137150   0.930   1.504   0.796 -0.4878  0.3729 -0.0186
 5245TIP3    H237151   0.808   1.417   0.779 -0.3056  0.0239  0.4318
 5246TIP3   OH237152   0.759   0.325   2.317  0.7184 -0.0147 -0.0253
 5246TIP3    H137153   0.764   0.392   2.385 -0.7188  0.6583 -0.5366
 5246TIP3    H237154   0.777   0.372   2.236  2.4190 -0.8100 -0.1492
 5247TIP3   OH237155   2.189   1.288  14.618 -0.2282 -0.0706 -0.2602
 5247TIP3    H137156   2.140   1.238  14.683 -0.3215  0.0889 -0.2068
 5247TIP3    H237157   2.273   1.242  14.611 -0.1789 -0.0294  0.0504
 5248TIP3   OH237158   2.187   0.128   5.425  0.2905 -0.2914  0.4343
 5248TIP3    H137159   2.119   0.080   5.474  1.4663 -2.3824  0.1514
 5248TIP3    H237160   2.235   0.176   5.492  0.8111 -1.7693  1.1870
 5249TIP3   OH237161   0.008   4.316   0.490 -0.0359  0.4891  0.4901
 5249TIP3    H137162  -0.037   4.399   0.504  0.3017  1.3825 -2.8964
 5249TIP3    H237163   0.101   4.337   0.498  0.0370  0.3221  0.0846
 5250TIP3   OH237164   6.723   5.973   4.890 -0.5099 -0.0449  0.3419
 5250TIP3    H137165   6.642   6.021   4.910 -0.0440  0.6972  0.5140
 5250TIP3    H237166   6.789   6.042   4.880 -0.1517 -0.5679 -1.0222
 5251TIP3   OH237167   0.894   5.906  15.436 -0.4206  0.4604 -0.3558
 5251TIP3    H137168   0.984   5.925  15.409  0.6900 -4.3598 -1.0238
 5251TIP3    H237169   0.900   5.892  15.530 -0.3764 -0.1149 -0.4395
 5252TIP3   OH237170   3.837   4.800   2.081  0.0617 -0.1314  0.5604
 5252TIP3    H137171   3.847   4.707   2.060  0.2622 -0.0390  0.2220
 5252TIP3    H237172   3.873   4.809   2.169 -0.6825 -0.5137  0.9163
 5253TIP3   OH237173   0.506   2.748   4.971 -0.5273 -0.0067 -0.1019
 5253TIP3    H137174   0.511   2.800   4.891  1.2657  1.3546  0.8466
 5253TIP3    H237175   0.450   2.800   5.030  0.9707  0.7280  0.7178
 5254TIP3   OH237176   2.065   5.967  14.314 -0.0746 -0.0558  0.0253
 5254TIP3    H137177   2.037   5.891  14.263  0.7348 -1.7347  1.9492
 5254TIP3    H237178   1.989   6.025  14.314 -1.0409 -1.2628 -0.7555
 5255TIP3   OH237179   3.253   3.053   1.418 -0.6274 -0.5342  0.2447
 5255TIP3    H137180   3.262   3.076   1.326 -0.5065 -0.4848  0.2678
 5255TIP3    H237181   3.342   3.061   1.453 -0.5927 -0.9738  0.2666
 5256TIP3   OH237182   1.312   0.108   6.375  0.0720 -0.2495  0.1707
 5256TIP3    H137183   1.226   0.132   6.340 -0.6858 -0.4030  1.8221
 5256TIP3    H237184   1.304   0.015   6.396 -0.4688  0.3750  3.1888
 5257TIP3   OH237185   6.606   0.774   1.602 -0.9841 -0.2920  0.1736
 5257TIP3    H137186   6.686   0.772   1.654 -0.9599 -0.0649  0.1469
 5257TIP3    H237187   6.636   0.786   1.512 -1.0814  0.7280  0.2635
 5258TIP3   OH237188   1.838   6.440   3.514 -0.4794 -0.1580  0.2449
 5258TIP3    H137189   1.820   6.516   3.569  3.8066  1.1124  0.2517
 5258TIP3    H237190   1.812   6.467   3.426 -0.2288  0.7921  0.4528
 5259TIP3   OH237191   3.745   3.741   1.472 -0.1379  0.3673  0.2850
 5259TIP3    H137192   3.739   3.830   1.437 -2.3499 -0.7272 -2.5108
 5259TIP3    H237193   3.824   3.704   1.432 -0.3527  0.4496 -0.2226
 5260TIP3   OH237194   6.513   3.403   4.410 -0.2183 -0.7313 -0.3902
 5260TIP3    H137195   6.515   3.318   4.455 -0.4857  0.0466  1.1809
 5260TIP3    H237196   6.592   3.403   4.356  0.4956 -1.4821  0.5967
 5261TIP3   OH237197   0.539   1.533  14.716  0.0818  0.5999  0.0365
 5261TIP3    H137198   0.573   1.466  14.656  3.3170  0.8711  1.4035
 5261TIP3    H237199   0.516   1.607  14.658  0.2547 -0.2146 -1.1107
 5262TIP3   OH237200   2.644   2.947  16.891  0.0528  0.1603  0.1342
 5262TIP3    H137201   2.652   2.865  16.940  0.5900  0.0589 -0.1200
 5262TIP3    H237202   2.674   3.014  16.952 -1.0512  0.2674  0.5929
 5263TIP3   OH237203   6.700   2.168  15.321  0.2203 -0.0883 -0.1262
 5263TIP3    H137204   6.645   2.231  15.369 -1.3281 -1.8535  0.5211
 5263TIP3    H237205   6.665   2.170  15.232  1.7093  1.6057 -0.7539
 5264TIP3   OH237206   1.740   5.247  14.864  0.3371 -0.4037 -0.0528
 5264TIP3    H137207   1.802   5.190  14.909  0.9143  1.5932  1.8383
 5264TIP3    H237208   1.708   5.306  14.932  1.1076  2.6603 -2.1719
 5265TIP3   OH237209   3.892   4.098   6.559 -0.4025 -0.3532  0.4146
 5265TIP3    H137210   3.879   4.007   6.586 -0.6974 -0.5639 -0.4091
 5265TIP3    H237211   3.872   4.098   6.466 -1.3622  0.7506  0.5980
 5266TIP3   OH237212   4.337   3.024  11.172 -0.1524 -0.6766  0.0113
 5266TIP3    H137213   4.319   3.003  11.263  0.0543 -0.3085  0.1393
 5266TIP3    H237214   4.317   2.944  11.124  1.0179 -1.3091  0.5397
 5267TIP3   OH237215   3.880   6.041   4.388 -0.3506  0.1011 -0.0006
 5267TIP3    H137216   3.887   5.948   4.410  1.2810  0.0711 -0.5069
 5267TIP3    H237217   3.909   6.086   4.468 -0.0461  0.1350 -0.1274
 5268TIP3   OH237218   1.356   0.400   3.953  0.5692 -0.0072  0.3278
 5268TIP3    H137219   1.402   0.475   3.990 -0.4357  1.2990 -0.9918
 5268TIP3    H237220   1.266   0.410   3.982  0.2817 -0.3293 -0.4205
 5269TIP3   OH237221   5.820   3.057  11.348 -0.0465 -0.4227 -0.7167
 5269TIP3    H137222   5.910   3.026  11.354  1.0559  2.5484 -0.0250
 5269TIP3    H237223   5.784   3.014  11.270  2.2251 -1.0881 -1.4643
 5270TIP3   OH237224   3.072   3.868   1.350  0.1855 -0.4999 -0.5818
 5270TIP3    H137225   3.083   3.964   1.350  1.7378 -0.6330 -1.4540
 5270TIP3    H237226   2.984   3.854   1.384  0.3959  1.1757  0.8226
 5271TIP3   OH237227   0.653   5.915  11.861 -0.1304  0.1365  1.0907
 5271TIP3    H137228   0.722   5.854  11.834  2.2853  2.1263  2.3655
 5271TIP3    H237229   0.579   5.859  11.883  0.6130 -2.0502 -1.4086
 5272TIP3   OH237230   6.146   6.579   2.458 -0.8289 -0.4249  0.7639
 5272TIP3    H137231   6.091   6.514   2.502  0.0418 -1.3760  0.4872
 5272TIP3    H237232   6.235   6.551   2.476 -0.3848  1.3792  1.6462
 5273TIP3   OH237233   4.627   1.937   0.020 -0.3043 -0.2168  0.5355
 5273TIP3    H137234   4.553   1.943  -0.040 -0.5548 -2.1682  0.5963
 5273TIP3    H237235   4.627   2.021   0.066 -0.9737  0.7677 -1.1543
 5274TIP3   OH237236   4.091   2.714   4.513 -0.3392 -0.1638 -0.1803
 5274TIP3    H137237   4.000   2.687   4.522 -0.1622 -0.8232 -0.3351
 5274TIP3    H237238   4.087   2.809   4.501 -0.9286 -0.0346  0.9465
 5275TIP3   OH237239   1.954   4.168   1.920 -0.4582 -0.2275 -0.1152
 5275TIP3    H137240   1.912   4.186   1.836 -0.2641 -0.1672 -0.2005
 5275TIP3    H237241   1.971   4.074   1.919  0.1843 -0.1150 -0.4445
 5276TIP3   OH237242   1.085   2.254  14.404 -0.6784 -0.2166 -0.4033
 5276TIP3    H137243   1.145   2.201  14.351  0.0667 -0.5269  0.6898
 5276TIP3    H237244   1.116   2.344  14.393 -0.2977 -0.3220 -0.2300
 5277TIP3   OH237245   0.072   1.777  16.463  0.0826  0.0863  0.3950
 5277TIP3    H137246   0.072   1.872  16.463  2.4769  0.1707 -1.2243
 5277TIP3    H237247   0.053   1.753  16.372 -1.2165 -1.0509  0.9145
 5278TIP3   OH237248   1.517   3.438   5.594  0.1845 -0.0433 -0.2477
 5278TIP3    H137249   1.473   3.498   5.654 -0.6446 -0.6554 -0.2229
 5278TIP3    H237250   1.461   3.436   5.516 -0.4495 -1.6301  0.1876
 5279TIP3   OH237251   4.433   4.040  12.489  0.1581  0.5144  0.4205
 5279TIP3    H137252   4.500   4.060  12.423  0.9597 -1.7844  0.4283
 5279TIP3    H237253   4.395   4.124  12.511  0.4553  1.4875 -2.3520
 5280TIP3   OH237254   1.947   0.198   6.301 -0.2702 -0.5162  0.6212
 5280TIP3    H137255   2.024   0.244   6.270 -0.5277  0.0141  0.7625
 5280TIP3    H237256   1.912   0.153   6.224 -0.3879  0.0491  0.3455
 5281TIP3   OH237257   4.128   3.350   3.833  0.7514  0.0893  0.2404
 5281TIP3    H137258   4.053   3.290   3.839 -0.0209  0.9869 -0.0820
 5281TIP3    H237259   4.097   3.421   3.776  1.1695  1.4662  1.6329
 5282TIP3   OH237260   0.324   1.930  14.944 -0.4577 -0.8143  0.2028
 5282TIP3    H137261   0.351   1.930  14.852  0.0785 -3.4610  0.2733
 5282TIP3    H237262   0.248   1.872  14.947 -1.8518  0.9597  1.1428
 5283TIP3   OH237263   2.547   2.021  10.865  0.5330  0.1926  0.3033
 5283TIP3    H137264   2.574   2.007  10.774 -0.0863  0.1568  0.1200
 5283TIP3    H237265   2.490   1.947  10.884 -1.8539  1.7939 -0.3022
 5284TIP3   OH237266   3.547   3.485  12.651 -0.8078 -0.3751 -0.4294
 5284TIP3    H137267   3.497   3.428  12.710 -1.7954  0.3945 -0.4892
 5284TIP3    H237268   3.480   3.523  12.593 -0.0201 -0.0837 -1.1680
 5285TIP3   OH237269   2.791   0.590   3.586 -0.2867  0.3776  0.1410
 5285TIP3    H137270   2.795   0.503   3.546  3.3418  0.0457  0.9053
 5285TIP3    H237271   2.858   0.641   3.540 -1.9661  2.6801  0.0802
 5286TIP3   OH237272   0.901   3.758  12.626  0.4383 -0.4909  0.2343
 5286TIP3    H137273   0.810   3.769  12.653  0.6048 -0.4386  0.7876
 5286TIP3    H237274   0.926   3.842  12.589  0.1329 -0.6400 -0.3274
 5287TIP3   OH237275   3.889   1.274   2.439 -0.5031 -0.6045 -0.1492
 5287TIP3    H137276   3.913   1.183   2.459 -1.7328 -0.9306 -0.0666
 5287TIP3    H237277   3.811   1.289   2.492 -0.4035  0.4590 -0.2950
 5288TIP3   OH237278   3.528   1.789   2.531 -0.3682 -0.0515 -0.0398
 5288TIP3    H137279   3.528   1.872   2.484 -1.5182 -0.3922 -0.6801
 5288TIP3    H237280   3.595   1.736   2.487 -1.1452 -0.2181 -1.0438
 5289TIP3   OH237281   4.783   0.171   1.816  0.1910  0.2922 -0.2362
 5289TIP3    H137282   4.717   0.128   1.870 -0.5538  0.4598 -0.9845
 5289TIP3    H237283   4.736   0.243   1.773  1.3402  1.7181  0.7697
 5290TIP3   OH237284   0.518   2.981   0.926  0.2591 -0.4902 -0.5664
 5290TIP3    H137285   0.472   2.900   0.907  0.6633 -0.7090 -0.6171
 5290TIP3    H237286   0.596   2.954   0.974  1.4520 -0.3424 -2.3215
 5291TIP3   OH237287   0.037   4.805  13.970  0.0239 -0.1883 -0.0358
 5291TIP3    H137288   0.087   4.806  14.052  0.2256 -0.1150 -0.1594
 5291TIP3    H237289   0.103   4.810  13.901 -0.1545 -0.0641 -0.2010
 5292TIP3   OH237290   5.100   4.092   5.954  0.6750 -0.1715  0.0762
 5292TIP3    H137291   5.125   4.076   6.045 -1.1050  0.7500  0.7719
 5292TIP3    H237292   5.077   4.185   5.952  0.6953 -0.1813 -1.3278
 5293TIP3   OH237293   3.398   3.001   5.493 -0.1041  0.3484 -0.1412
 5293TIP3    H137294   3.436   2.992   5.406 -2.4716  0.2516 -1.2571
 5293TIP3    H237295   3.466   2.970   5.553  0.8993 -1.4423 -2.0964
 5294TIP3   OH237296   1.655   4.888   3.438 -0.0633  0.0516 -0.1678
 5294TIP3    H137297   1.569   4.845   3.438 -0.8273  1.3792  2.1101
 5294TIP3    H237298   1.634   4.981   3.433  1.4064  0.3492 -1.8455
 5295TIP3   OH237299   2.564   2.512   3.439 -0.7229  0.2216  0.0855
 5295TIP3    H137300   2.487   2.459   3.457 -0.5196  0.0526  0.4685
 5295TIP3    H237301   2.597   2.538   3.525 -1.1359  1.4440 -0.1064
 5296TIP3   OH237302   1.557   6.606   0.048  0.3543 -0.2462 -0.1938
 5296TIP3    H137303   1.546   6.633  -0.044 -1.0878  1.0238  0.3207
 5296TIP3    H237304   1.470   6.581   0.076  0.4313  1.0863  1.3424
 5297TIP3   OH237305   3.326   6.693   0.950 -0.0934  0.3423 -0.0617
 5297TIP3    H137306   3.406   6.723   0.907 -0.4575  1.6894  0.1289
 5297TIP3    H237307   3.308   6.607   0.913 -0.4898  1.4961 -2.7933
 5298TIP3   OH237308   5.218   2.644   3.677  0.1878  0.4320  0.0984
 5298TIP3    H137309   5.313   2.648   3.668  0.3253  0.1093  1.2865
 5298TIP3    H237310   5.197   2.710   3.743 -0.4183  0.5133 -0.1712
 5299TIP3   OH237311   1.255   3.663  12.229  0.9733  0.0324  0.0267
 5299TIP3    H137312   1.177   3.688  12.277 -0.0023 -0.8055 -1.0470
 5299TIP3    H237313   1.297   3.745  12.205 -0.1296  0.5389 -0.2233
 5300TIP3   OH237314   0.104   2.739   1.080 -0.3291 -0.5822 -0.5789
 5300TIP3    H137315   0.048   2.783   1.143 -0.0745  0.6104 -1.1535
 5300TIP3    H237316   0.192   2.770   1.100 -0.0881 -1.1399 -0.7461
 5301TIP3   OH237317   5.208   6.257  14.681  0.5136  0.5162 -0.1927
 5301TIP3    H137318   5.120   6.277  14.647  0.2199  0.4986  0.5250
 5301TIP3    H237319   5.233   6.337  14.728  0.5625  0.2508  0.2367
 5302TIP3   OH237320   2.266   1.376  13.334 -0.2114  0.0163 -0.1334
 5302TIP3    H137321   2.224   1.296  13.301 -0.1535  0.8839 -2.4553
 5302TIP3    H237322   2.349   1.346  13.372 -0.3358 -1.0519 -0.6805
 5303TIP3   OH237323   5.057   5.422  12.532 -0.1064  0.4039 -0.3363
 5303TIP3    H137324   5.018   5.432  12.619  1.3563 -1.0944  0.5487
 5303TIP3    H237325   5.031   5.501  12.484 -2.3958  0.4464  0.8693
 5304TIP3   OH237326   6.236   1.797  12.495 -0.3212 -0.3166 -0.3325
 5304TIP3    H137327   6.178   1.790  12.419 -0.4804  3.4160 -0.7912
 5304TIP3    H237328   6.179   1.829  12.565  0.5582  0.2339  0.1505
 5305TIP3   OH237329   1.406   5.349  13.751 -0.2450 -0.8018 -0.0304
 5305TIP3    H137330   1.384   5.263  13.716  2.1368 -1.4093 -0.2244
 5305TIP3    H237331   1.430   5.402  13.675 -1.7004  0.0790  0.0840
 5306TIP3   OH237332   0.694   1.149  14.829 -0.0512 -0.0413 -0.4108
 5306TIP3    H137333   0.735   1.217  14.882 -0.3163  0.0047 -0.2612
 5306TIP3    H237334   0.600   1.170  14.832 -0.5271 -2.0306  2.0252
 5307TIP3   OH237335   1.619   1.743   4.937  0.0760 -0.1722  0.3925
 5307TIP3    H137336   1.651   1.794   5.011 -0.4909  0.2537  0.3570
 5307TIP3    H237337   1.527   1.726   4.958  0.0026 -0.3458 -0.0502
 5308TIP3   OH237338   1.431   2.189  16.551  0.0268 -0.2861 -0.0745
 5308TIP3    H137339   1.347   2.201  16.506 -2.1064 -0.9418  3.3971
 5308TIP3    H237340   1.496   2.197  16.481 -2.7673  1.6252 -2.7514
 5309TIP3   OH237341   1.362   0.572  11.131 -0.1722 -0.4023  0.2183
 5309TIP3    H137342   1.391   0.509  11.196  2.9308  0.8430  0.2507
 5309TIP3    H237343   1.413   0.651  11.150  0.3995  0.2455 -3.2333
 5310TIP3   OH237344   1.643   2.154   4.243 -0.1145  0.1402  0.1752
 5310TIP3    H137345   1.634   2.073   4.192  1.0069  0.9149 -1.3156
 5310TIP3    H237346   1.567   2.206   4.219 -0.1887  0.0443  0.1973
 5311TIP3   OH237347   0.618   5.792  12.492 -0.3421 -0.2126 -0.4647
 5311TIP3    H137348   0.541   5.804  12.548 -1.0073  0.8631 -1.5600
 5311TIP3    H237349   0.611   5.862  12.427  2.1563  0.6033  0.0499
 5312TIP3   OH237350   5.411   0.825   2.646  0.4317 -0.4534  0.0385
 5312TIP3    H137351   5.393   0.886   2.718 -1.1004 -1.0105  0.1504
 5312TIP3    H237352   5.507   0.816   2.646  0.5568  0.6471  1.0882
 5313TIP3   OH237353   1.207   0.754   5.430  0.0353 -0.3219  0.5910
 5313TIP3    H137354   1.202   0.666   5.393 -0.3654 -0.1703  0.2794
 5313TIP3    H237355   1.240   0.809   5.358  0.6384 -0.2825  0.8952
 5314TIP3   OH237356   1.688   0.652  14.291 -0.2976 -0.1260  0.5193
 5314TIP3    H137357   1.744   0.722  14.257  2.2623 -1.9130  0.7630
 5314TIP3    H237358   1.615   0.648  14.229  1.1421  0.6524 -1.3548
 5315TIP3   OH237359   0.179   0.516   4.925 -0.2785 -0.6146  0.2069
 5315TIP3    H137360   0.169   0.425   4.955 -0.7535 -0.5326  0.3094
 5315TIP3    H237361   0.266   0.518   4.884 -0.6236 -1.3601 -0.6155
 5316TIP3   OH237362   3.888   4.946  13.500 -0.2424  0.8472  0.8192
 5316TIP3    H137363   3.938   5.014  13.455 -0.8765  2.2312  2.1032
 5316TIP3    H237364   3.823   4.918  13.437  1.3048 -0.0692 -0.4355
 5317TIP3   OH237365   3.776   2.872   5.464 -0.1673 -0.0254  0.0207
 5317TIP3    H137366   3.790   2.789   5.418  0.6611 -0.7021  1.3928
 5317TIP3    H237367   3.698   2.856   5.517  0.4424 -0.2597  0.8936
 5318TIP3   OH237368   5.081   4.232  11.041  0.0395 -0.1619 -0.0769
 5318TIP3    H137369   5.060   4.275  11.124 -0.3201  0.0521 -0.2803
 5318TIP3    H237370   4.998   4.228  10.994  0.4946  0.9508 -1.0086
 5319TIP3   OH237371   0.952   1.247   1.657  0.2449  0.2860 -0.0604
 5319TIP3    H137372   0.977   1.327   1.703  0.0427 -0.3887  1.2800
 5319TIP3    H237373   1.018   1.183   1.683 -0.1364 -0.2284 -0.3481
 5320TIP3   OH237374   1.367   1.926   2.782 -0.4000  0.7681 -0.3257
 5320TIP3    H137375   1.291   1.921   2.839  0.0445  2.4767  0.4783
 5320TIP3    H237376   1.331   1.918   2.693 -1.3560  0.2891  0.0926
 5321TIP3   OH237377   1.270   1.073  12.920 -0.3418 -0.4188  0.4853
 5321TIP3    H137378   1.304   1.117  12.997 -0.3656  0.0012  0.2608
 5321TIP3    H237379   1.271   1.140  12.851 -1.1522 -0.5348  0.3471
 5322TIP3   OH237380   5.910   2.379   1.663  0.3669 -0.5869 -0.2754
 5322TIP3    H137381   5.999   2.344   1.671  1.0351  0.3532 -2.6633
 5322TIP3    H237382   5.858   2.306   1.630  0.5221 -0.8262  0.0069
 5323TIP3   OH237383   2.712   4.280   4.218 -0.4320  0.3234  0.1318
 5323TIP3    H137384   2.698   4.208   4.280  1.5975  1.2255  1.7813
 5323TIP3    H237385   2.651   4.262   4.146  0.6906 -3.6405 -0.0912
 5324TIP3   OH237386   2.423   3.256  14.107  0.7523 -0.4169  0.2291
 5324TIP3    H137387   2.409   3.324  14.174  0.3653 -2.1139  1.9781
 5324TIP3    H237388   2.337   3.216  14.096  1.1838 -1.3100  0.0141
 5325TIP3   OH237389   5.386   6.019   6.078 -0.0941  0.0617 -0.4022
 5325TIP3    H137390   5.347   6.105   6.060 -0.0052  0.4366  1.1046
 5325TIP3    H237391   5.479   6.030   6.056  0.0701  0.5983  0.5130
 5326TIP3   OH237392   5.977   4.633   2.920  0.2778  0.2970 -0.1915
 5326TIP3    H137393   6.056   4.582   2.940  1.2445  0.8641 -2.2397
 5326TIP3    H237394   5.959   4.682   3.000  1.6701 -0.3080  0.5213
 5327TIP3   OH237395   6.717   6.628   4.716 -0.4896  0.0897 -0.4806
 5327TIP3    H137396   6.796   6.584   4.747  0.5273  2.0306 -0.1077
 5327TIP3    H237397   6.739   6.658   4.628 -0.6293  1.0247 -0.2085
 5328TIP3   OH237398   1.331   1.897  14.481 -0.2292 -0.4254 -0.3790
 5328TIP3    H137399   1.314   1.929  14.392 -1.1847 -0.2111 -0.1301
 5328TIP3    H237400   1.427   1.892  14.487 -0.1349  0.2142 -1.1871
 5329TIP3   OH237401   6.734   4.318   3.493 -0.1062  0.1602 -0.3577
 5329TIP3    H137402   6.681   4.262   3.550 -0.3271 -1.9576 -2.5042
 5329TIP3    H237403   6.811   4.338   3.546 -1.4805  0.5962  1.6380
 5330TIP3   OH237404   4.101   2.316  15.422 -0.1627 -0.0633 -0.0406
 5330TIP3    H137405   4.150   2.393  15.393  0.8311 -1.8404 -3.5800
 5330TIP3    H237406   4.014   2.328  15.384  1.1535 -2.4154 -4.4495
 5331TIP3   OH237407   2.009   1.722  12.306  0.1348 -0.1139 -0.0826
 5331TIP3    H137408   2.054   1.721  12.222 -0.4474 -1.0037 -0.3955
 5331TIP3    H237409   2.035   1.639  12.348  1.1410  0.7194  1.0154
 5332TIP3   OH237410   3.960   4.644   0.191 -1.2424 -0.0176  0.2501
 5332TIP3    H137411   4.007   4.562   0.175 -1.3244  0.1496 -0.9628
 5332TIP3    H237412   3.887   4.619   0.247 -1.9699 -1.0257 -1.0826
 5333TIP3   OH237413   2.467   6.284  15.128  0.1058 -0.0319 -0.0796
 5333TIP3    H137414   2.499   6.250  15.044  3.3588  2.4217 -0.0316
 5333TIP3    H237415   2.444   6.375  15.109  0.3001  0.3830  1.5946
 5334TIP3   OH237416   0.172   2.129  15.079  0.4756  0.5100  0.9981
 5334TIP3    H137417   0.229   2.133  15.156  0.5064 -0.1957  1.0208
 5334TIP3    H237418   0.216   2.067  15.021  0.2342  0.7159  0.5994
 5335TIP3   OH237419   0.282   5.934   5.404 -0.0046  0.0207 -0.2729
 5335TIP3    H137420   0.239   5.914   5.321 -2.1700  0.6468  0.6074
 5335TIP3    H237421   0.354   5.993   5.381  1.3249 -2.1316 -1.9622
 5336TIP3   OH237422   5.615   0.873  14.001  0.2417  0.5137  0.0646
 5336TIP3    H137423   5.594   0.817  14.076  1.3998  0.8878  0.6818
 5336TIP3    H237424   5.703   0.905  14.018 -0.5727  2.9665  0.0008
 5337TIP3   OH237425   0.162   0.869   5.384 -0.3297  0.6097 -0.7679
 5337TIP3    H137426   0.185   0.794   5.328 -1.5059 -0.2974 -0.0643
 5337TIP3    H237427   0.244   0.917   5.392  0.7178 -1.1091 -0.4656
 5338TIP3   OH237428   4.580   4.255  15.599  0.5246  0.4286 -0.5825
 5338TIP3    H137429   4.588   4.225  15.508 -0.4309 -0.8728 -0.2624
 5338TIP3    H237430   4.542   4.180  15.645  0.6181  1.2246  0.8104
 5339TIP3   OH237431   1.329   2.695   5.792 -0.0546 -0.2856 -0.0359
 5339TIP3    H137432   1.376   2.748   5.857  0.0526 -1.1970  0.6359
 5339TIP3    H237433   1.239   2.727   5.796 -0.1687 -0.6926  0.9542
 5340TIP3   OH237434   2.046   6.638   5.311 -0.1374  0.0956  0.4289
 5340TIP3    H137435   2.044   6.546   5.338 -2.0179 -0.1398 -0.3722
 5340TIP3    H237436   2.014   6.686   5.387 -0.0081  0.0017  0.5437
 5341TIP3   OH237437   4.540   3.958  16.228 -0.4400 -0.6424  0.5279
 5341TIP3    H137438   4.501   3.955  16.316  0.3308 -1.5292  0.8494
 5341TIP3    H237439   4.484   3.900  16.176 -1.9611  1.2149 -0.0497
 5342TIP3   OH237440   6.712   2.644  12.818 -0.5025 -0.4638 -0.5082
 5342TIP3    H137441   6.796   2.601  12.832 -0.1458 -0.1552 -1.5879
 5342TIP3    H237442   6.671   2.594  12.747 -0.7864  0.0058 -0.6787
 5343TIP3   OH237443   1.611   1.523  13.605  0.1580 -0.2073 -0.5243
 5343TIP3    H137444   1.523   1.488  13.593  1.0578 -1.9403 -2.5773
 5343TIP3    H237445   1.629   1.572  13.525  0.3035  2.0350  0.7862
 5344TIP3   OH237446   3.031   1.963  12.038 -0.5436 -0.2046 -0.0735
 5344TIP3    H137447   3.075   2.029  12.091 -0.0961  0.5552 -1.3400
 5344TIP3    H237448   2.999   2.011  11.962 -1.6452 -1.1644 -0.2415
 5345TIP3   OH237449   2.172   6.276  12.417  0.0682  0.1823  0.1078
 5345TIP3    H137450   2.227   6.206  12.382 -0.4305  0.9865 -2.4632
 5345TIP3    H237451   2.100   6.231  12.460  0.0111 -0.8843 -1.0832
 5346TIP3   OH237452   6.119   2.389  14.295 -0.0086 -0.3204 -0.0901
 5346TIP3    H137453   6.160   2.315  14.338 -1.7608 -1.8137 -0.8591
 5346TIP3    H237454   6.042   2.408  14.348  0.4565  1.0546  0.1458
 5347TIP3   OH237455   5.242   6.536  15.978 -0.2855 -0.0288 -0.9976
 5347TIP3    H137456   5.167   6.476  15.985 -1.0806  1.1358  2.0231
 5347TIP3    H237457   5.317   6.481  16.001 -1.0597  0.0547  2.2666
 5348TIP3   OH237458   4.256   6.753   2.751  0.1635 -0.2708  0.0343
 5348TIP3    H137459   4.296   6.816   2.811  2.1999 -1.6978  0.2832
 5348TIP3    H237460   4.290   6.668   2.779 -1.3592 -1.3416 -1.1852
 5349TIP3   OH237461   1.431   1.295   5.919 -0.8239  0.3122  0.0475
 5349TIP3    H137462   1.345   1.274   5.955  0.4004 -1.8510  1.9689
 5349TIP3    H237463   1.483   1.215   5.932  1.4709  1.5088 -1.1202
 5350TIP3   OH237464   5.215   6.325   5.465 -0.1524 -0.1841  0.1224
 5350TIP3    H137465   5.136   6.323   5.520 -2.6235  0.8353 -3.1249
 5350TIP3    H237466   5.236   6.418   5.456  2.7998 -0.4538  2.4910
 5351TIP3   OH237467   0.225   4.747  10.547 -0.1712  0.4537 -0.4584
 5351TIP3    H137468   0.222   4.805  10.623  1.2387 -1.6221  1.3044
 5351TIP3    H237469   0.159   4.782  10.487 -2.1328  1.5900  2.1664
 5352TIP3   OH237470   3.608   5.880  13.269 -0.0071 -0.5155 -0.0003
 5352TIP3    H137471   3.551   5.896  13.344  2.1894 -0.0970  1.7042
 5352TIP3    H237472   3.655   5.963  13.256 -0.2878 -0.5945 -1.8421
 5353TIP3   OH237473   2.994   2.046  10.093 -0.8281  0.3745 -0.0780
 5353TIP3    H137474   3.009   1.954  10.071 -0.7302  0.0469  1.2553
 5353TIP3    H237475   2.900   2.058  10.084 -0.7310  0.4069 -1.1669
 5354TIP3   OH237476   0.203   5.151   1.015 -0.6640 -0.3110  0.7622
 5354TIP3    H137477   0.172   5.165   1.105 -0.6475  0.3381  0.6771
 5354TIP3    H237478   0.132   5.187   0.961  0.1388  1.0638  0.5602
 5355TIP3   OH237479   4.447   0.253  12.144  0.2605  0.0472 -0.5133
 5355TIP3    H137480   4.445   0.322  12.210  0.8072 -0.3626 -0.0721
 5355TIP3    H237481   4.455   0.301  12.061 -0.3430  0.5568 -0.2949
 5356TIP3   OH237482   6.165   3.902  12.625 -0.5986 -0.3505  0.1259
 5356TIP3    H137483   6.133   3.860  12.545  1.9904  0.2278 -1.3019
 5356TIP3    H237484   6.191   3.829  12.681  4.0050 -1.0447 -2.3850
 5357TIP3   OH237485   0.617   0.190   3.555  0.1504  0.3157  0.5769
 5357TIP3    H137486   0.681   0.242   3.604  0.2261  0.4629  0.3273
 5357TIP3    H237487   0.658   0.105   3.543  0.7732  0.7569 -0.5446
 5358TIP3   OH237488   6.001   6.087   3.505 -0.1471 -0.2736 -0.6580
 5358TIP3    H137489   6.007   6.183   3.503 -0.7663 -0.2329 -0.8082
 5358TIP3    H237490   5.932   6.067   3.442 -0.0939 -0.8147 -0.5417
 5359TIP3   OH237491   2.938   3.332   5.755 -0.3684 -0.0343 -0.0671
 5359TIP3    H137492   2.849   3.366   5.759 -0.7303 -0.7562 -1.4030
 5359TIP3    H237493   2.929   3.238   5.775  0.1066 -0.0913 -0.1025
 5360TIP3   OH237494   2.675   3.737   6.321 -0.6605 -1.0334 -0.7352
 5360TIP3    H137495   2.640   3.820   6.352  0.2170 -0.3690 -1.4878
 5360TIP3    H237496   2.768   3.754   6.304 -0.0853 -2.5649  0.5591
 5361TIP3   OH237497   6.549   2.880   4.390 -0.0023  0.3046 -0.9124
 5361TIP3    H137498   6.591   2.804   4.431  0.9757  1.7951  1.0098
 5361TIP3    H237499   6.457   2.874   4.416  0.1461 -0.0246 -0.4379
 5362TIP3   OH237500   1.905   6.586  12.308  0.5928  0.0399 -0.0566
 5362TIP3    H137501   1.881   6.678  12.297 -0.1298 -0.1714 -0.2980
 5362TIP3    H237502   1.921   6.554  12.219 -3.1599 -1.1084 -0.4889
 5363TIP3   OH237503   2.542   4.694  11.517 -0.1922  0.1949  0.0919
 5363TIP3    H137504   2.481   4.623  11.535  0.8710 -0.8215 -0.2476
 5363TIP3    H237505   2.493   4.753  11.458 -0.4511 -1.2083 -1.1519
 5364TIP3   OH237506   3.533   0.875  14.182  0.1538 -0.3863 -0.5250
 5364TIP3    H137507   3.527   0.969  14.167  0.6550 -0.1691  0.4993
 5364TIP3    H237508   3.459   0.856  14.241  0.4349 -0.5066 -0.2090
 5365TIP3   OH237509   2.982   3.154  10.853  0.0271 -0.0619 -0.1855
 5365TIP3    H137510   2.907   3.209  10.830 -0.0494 -0.4914 -0.9897
 5365TIP3    H237511   2.960   3.067  10.820  0.7918 -0.2394 -0.2499
 5366TIP3   OH237512   1.501   1.419   0.717  0.4138  0.5113  0.1946
 5366TIP3    H137513   1.504   1.512   0.694 -0.1956  0.7224  0.9140
 5366TIP3    H237514   1.412   1.406   0.751  0.2625 -0.5012 -0.5450
 5367TIP3   OH237515   2.141   6.024   1.534  0.7521 -0.5461  0.0949
 5367TIP3    H137516   2.050   6.048   1.554  0.9436  0.3985 -0.1124
 5367TIP3    H237517   2.135   5.938   1.493 -0.6834  1.6660 -5.1758
 5368TIP3   OH237518   0.779   4.895  12.186 -0.5368 -0.1582  0.0752
 5368TIP3    H137519   0.855   4.878  12.242 -1.5745 -2.1014  0.9817
 5368TIP3    H237520   0.790   4.986  12.158  1.8471 -0.2318  0.5758
 5369TIP3   OH237521   2.122   3.882  16.614  0.5179  0.1386 -0.2182
 5369TIP3    H137522   2.127   3.830  16.534 -2.6222 -1.1111  0.2479
 5369TIP3    H237523   2.037   3.926  16.609 -0.6845 -1.3904  3.1322
 5370TIP3   OH237524   0.924   4.666  16.293 -0.4287 -0.4019  0.3063
 5370TIP3    H137525   0.937   4.583  16.339 -0.7921 -2.0005 -2.2857
 5370TIP3    H237526   0.955   4.649  16.204 -0.4650  2.2864 -0.2938
 5371TIP3   OH237527   5.844   4.005  11.084 -0.6299  0.0925  0.2738
 5371TIP3    H137528   5.882   4.028  11.000  0.7210  0.6303  1.0003
 5371TIP3    H237529   5.754   3.979  11.064 -0.6408  1.1905 -1.1926
 5372TIP3   OH237530   3.055   2.471   5.104  0.4433  0.0941  0.0477
 5372TIP3    H137531   3.041   2.377   5.093  0.0137 -0.1069  1.9677
 5372TIP3    H237532   2.980   2.512   5.060 -0.1113 -0.5297  0.3928
 5373TIP3   OH237533   2.161   3.755  15.926  0.5704  0.2410  0.1008
 5373TIP3    H137534   2.137   3.694  15.995  0.9786  2.1221  2.0131
 5373TIP3    H237535   2.140   3.841  15.961  1.9345  1.3649 -1.6466
 5374TIP3   OH237536   2.437   6.049   2.729 -0.0792 -0.2353  0.8272
 5374TIP3    H137537   2.387   6.088   2.801  0.0971  3.8235 -0.9401
 5374TIP3    H237538   2.393   5.966   2.711 -2.1638  0.1617  3.4373
 5375TIP3   OH237539   2.396   0.864  15.606 -0.6096  0.1982  0.0153
 5375TIP3    H137540   2.473   0.904  15.647  0.6023 -0.9858 -1.0290
 5375TIP3    H237541   2.427   0.832  15.522 -1.9405 -1.4158  0.0855
 5376TIP3   OH237542   5.865   4.119  14.798  0.1106 -0.2558  0.5414
 5376TIP3    H137543   5.934   4.139  14.735 -1.4938  3.0050 -0.3859
 5376TIP3    H237544   5.824   4.039  14.764  2.5479 -1.5801  0.4748
 5377TIP3   OH237545   0.562   3.203  15.224  0.5734 -0.0817 -0.3647
 5377TIP3    H137546   0.478   3.169  15.193 -0.4493  0.5802  1.5322
 5377TIP3    H237547   0.617   3.125  15.234  0.3430 -0.4862 -1.9702
 5378TIP3   OH237548   1.095   3.624   2.908 -0.2011  0.2433  0.1316
 5378TIP3    H137549   1.066   3.646   2.820  0.5715  0.6459 -0.0268
 5378TIP3    H237550   1.187   3.648   2.910 -0.6720  2.2530  1.7004
 5379TIP3   OH237551   6.102   4.285  11.960 -0.3295 -0.0781  0.7891
 5379TIP3    H137552   6.124   4.330  11.878 -0.1449 -1.5071  0.0332
 5379TIP3    H237553   6.165   4.320  12.023  1.2992 -0.8779 -0.3097
 5380TIP3   OH237554   5.946   2.145   2.566  0.4582 -0.2607 -0.0835
 5380TIP3    H137555   5.926   2.231   2.529 -0.0341 -0.7899 -1.0888
 5380TIP3    H237556   5.954   2.161   2.660  1.4796  1.0807 -0.3553
 5381TIP3   OH237557   3.344   2.543   0.246  0.1029  0.0369 -0.4204
 5381TIP3    H137558   3.358   2.635   0.269  0.7108 -0.4909  1.5943
 5381TIP3    H237559   3.332   2.499   0.331 -2.6388 -1.3947 -1.4212
 5382TIP3   OH237560   4.997   6.657  10.884  0.7047  0.1517 -0.0967
 5382TIP3    H137561   4.964   6.746  10.899 -0.3695 -0.0448 -1.1531
 5382TIP3    H237562   5.038   6.661  10.798 -3.0324 -1.2612 -2.1661
 5383TIP3   OH237563   5.524   5.608  16.540 -0.2205  0.1036  0.4956
 5383TIP3    H137564   5.565   5.564  16.466  0.2313  0.0717  0.7598
 5383TIP3    H237565   5.551   5.556  16.616 -2.6251 -1.2983  0.4692
 5384TIP3   OH237566   4.483   5.345   0.411  0.7784 -0.0947  0.2396
 5384TIP3    H137567   4.418   5.281   0.381 -0.1689  0.9633 -0.0522
 5384TIP3    H237568   4.539   5.296   0.470  1.8510 -1.9267 -2.1257
 5385TIP3   OH237569   0.788   3.751  15.365 -0.3983 -0.0071  0.3930
 5385TIP3    H137570   0.740   3.669  15.379  2.0042 -1.4321  0.9429
 5385TIP3    H237571   0.835   3.737  15.282  0.5065  0.5430  0.7975
 5386TIP3   OH237572   4.957   6.150  14.604 -0.1052  0.4940 -0.0488
 5386TIP3    H137573   4.901   6.220  14.571  1.3085  0.6677 -2.3029
 5386TIP3    H237574   4.949   6.155  14.699 -1.9871  2.0527 -0.2347
 5387TIP3   OH237575   5.633   1.560   5.179  0.0450  0.5521  0.0875
 5387TIP3    H137576   5.606   1.542   5.269  1.0590  1.5252  0.6139
 5387TIP3    H237577   5.610   1.652   5.165 -0.7113  0.2370 -0.8969
 5388TIP3   OH237578   4.536   5.795   5.870 -0.4911 -0.0197  0.1587
 5388TIP3    H137579   4.570   5.759   5.952 -0.3370  1.3122  0.7033
 5388TIP3    H237580   4.613   5.811   5.816 -0.4565  0.5800  0.3801
 5389TIP3   OH237581   4.241   4.734  14.419 -0.1429 -0.0719  0.1428
 5389TIP3    H137582   4.166   4.789  14.395  1.6984  1.0345 -3.9847
 5389TIP3    H237583   4.296   4.791  14.472  0.0824  0.9359 -1.1142
 5390TIP3   OH237584   6.095   0.249  12.502 -0.1885 -0.3993 -0.3880
 5390TIP3    H137585   6.041   0.171  12.515 -0.4733 -0.4784 -1.8548
 5390TIP3    H237586   6.033   0.322  12.508 -0.0271 -0.3105  0.3475
 5391TIP3   OH237587   0.551   1.668  12.631  0.2641 -0.4368  0.1153
 5391TIP3    H137588   0.571   1.574  12.631 -0.3258 -0.5722  0.5059
 5391TIP3    H237589   0.465   1.673  12.674  1.0254  0.4407  1.6129
 5392TIP3   OH237590   2.633   2.200  12.848 -0.6069 -0.0250  0.4103
 5392TIP3    H137591   2.610   2.142  12.921  1.5360 -1.2128  0.2279
 5392TIP3    H237592   2.630   2.143  12.771  0.3568  0.3709  0.0595
 5393TIP3   OH237593   5.011   2.551   0.237 -0.1245  0.5766 -0.2307
 5393TIP3    H137594   4.969   2.500   0.167 -1.9271 -0.0683  1.2561
 5393TIP3    H237595   4.941   2.569   0.299  1.6316  0.1532  1.9849
 5394TIP3   OH237596   1.251   4.222  13.158 -0.2777  0.4953  0.8138
 5394TIP3    H137597   1.319   4.285  13.137 -0.4448  0.1236 -1.0418
 5394TIP3    H237598   1.270   4.146  13.102 -1.1114 -0.3725  1.6632
 5395TIP3   OH237599   3.031   3.981   4.105 -0.1365  0.1299 -0.1420
 5395TIP3    H137600   2.970   3.986   4.032 -1.3829 -1.5786  0.7077
 5395TIP3    H237601   3.105   3.930   4.072  0.2812  1.1480 -0.8093
 5396TIP3   OH237602   4.809   0.778   4.463 -0.6484 -0.1044  0.4181
 5396TIP3    H137603   4.837   0.849   4.405  0.3043 -0.6520  0.1887
 5396TIP3    H237604   4.875   0.777   4.532 -1.9734  0.7931  1.7747
 5397TIP3   OH237605   2.116   4.708  11.554 -0.5567 -0.3797  0.1817
 5397TIP3    H137606   2.163   4.669  11.628  0.3499 -0.7936 -0.5949
 5397TIP3    H237607   2.150   4.662  11.477 -0.7917  0.6973 -0.5887
 5398TIP3   OH237608   4.166   2.033  11.199 -0.2558  0.0111 -0.6081
 5398TIP3    H137609   4.137   2.062  11.285  2.0006  0.2706  0.1101
 5398TIP3    H237610   4.094   1.978  11.168 -0.4382 -1.4930  2.1630
 5399TIP3   OH237611   0.360   6.615  15.191  0.3870  0.1009 -0.5601
 5399TIP3    H137612   0.453   6.613  15.213  0.4266  0.1074 -0.7304
 5399TIP3    H237613   0.317   6.637  15.274  0.4466 -1.0170 -0.2161
 5400TIP3   OH237614   3.638   2.116   4.522  0.3785 -0.7806 -0.0722
 5400TIP3    H137615   3.701   2.138   4.454  0.5500  1.1801  0.6528
 5400TIP3    H237616   3.564   2.175   4.507  0.4642 -0.2311  1.4487
 5401TIP3   OH237617   3.313   3.438  15.872  0.4459  0.5843 -0.8766
 5401TIP3    H137618   3.341   3.520  15.913  2.0450 -0.0334 -0.6735
 5401TIP3    H237619   3.390   3.381  15.877 -0.7661 -1.0928 -0.6150
 5402TIP3   OH237620   1.380   3.500   2.592 -0.5237 -0.0225  0.4879
 5402TIP3    H137621   1.362   3.413   2.556 -1.3651 -0.0163  0.8752
 5402TIP3    H237622   1.340   3.561   2.529  1.8607  0.2361 -0.9242
 5403TIP3   OH237623   6.180   1.190   1.308  1.1730  0.7902  0.4146
 5403TIP3    H137624   6.240   1.124   1.343  0.4718 -0.5202 -0.7298
 5403TIP3    H237625   6.233   1.240   1.246  1.1739 -0.2296 -0.4401
 5404TIP3   OH237626   2.030   6.176  13.874 -0.3579  0.0137 -0.3136
 5404TIP3    H137627   1.951   6.231  13.875 -1.6092 -1.7029 -0.3713
 5404TIP3    H237628   2.015   6.112  13.944 -0.2431 -1.9725 -2.0138
 5405TIP3   OH237629   5.021   2.326  14.918  0.1498 -0.4563  0.0927
 5405TIP3    H137630   5.050   2.376  14.995  1.4066 -0.7719 -0.1449
 5405TIP3    H237631   5.095   2.269  14.898 -0.6037 -1.1851 -0.6819
 5406TIP3   OH237632   5.023   1.269   2.158 -0.2724 -0.7107  0.3433
 5406TIP3    H137633   5.094   1.293   2.218  1.1042 -2.7977 -0.3336
 5406TIP3    H237634   4.962   1.219   2.211  1.0794 -2.7948  0.0889
 5407TIP3   OH237635   1.035   1.572   5.940  0.3695 -0.0814  0.4844
 5407TIP3    H137636   1.040   1.571   5.844  0.7334  0.3511  0.4953
 5407TIP3    H237637   0.958   1.626   5.959  1.2489  1.2207  0.4541
 5408TIP3   OH237638   1.772   5.588   4.963 -0.3074  0.1683  0.0840
 5408TIP3    H137639   1.705   5.542   5.013 -1.4164  0.9391 -0.6597
 5408TIP3    H237640   1.814   5.519   4.910  1.0794 -0.7108  2.1825
 5409TIP3   OH237641   1.683   1.143  12.533  0.7015  0.0814 -0.4624
 5409TIP3    H137642   1.778   1.137  12.529  0.7143 -0.5841  0.5292
 5409TIP3    H237643   1.662   1.131  12.625 -0.3665 -0.0257 -0.7039
 5410TIP3   OH237644   5.848   2.755  12.516 -0.2945  0.4032 -0.4979
 5410TIP3    H137645   5.921   2.761  12.456  0.3329 -0.7986  0.1313
 5410TIP3    H237646   5.776   2.801  12.471  0.0449 -0.7509 -2.3059
 5411TIP3   OH237647   4.586   4.380   5.976  0.0194 -0.1691 -0.4780
 5411TIP3    H137648   4.525   4.346   6.041 -0.1536 -0.0922 -0.5996
 5411TIP3    H237649   4.653   4.426   6.027  0.3040 -0.7641 -0.3070
 5412TIP3   OH237650   1.775   4.843  12.407  0.4757 -0.6689  0.1984
 5412TIP3    H137651   1.698   4.901  12.414  0.4615 -0.3333 -2.0358
 5412TIP3    H237652   1.740   4.760  12.376  1.0035 -0.4823 -0.9423
 5413TIP3   OH237653   5.471   0.455   3.788  0.5766 -0.4570  0.3532
 5413TIP3    H137654   5.486   0.535   3.839  1.5574 -1.7523  2.2088
 5413TIP3    H237655   5.520   0.469   3.707 -1.2621  1.7864 -0.4634
 5414TIP3   OH237656   4.016   6.602  13.897 -0.0919 -0.1878  0.5394
 5414TIP3    H137657   3.962   6.574  13.971  0.8673 -0.3804  1.1881
 5414TIP3    H237658   4.076   6.667  13.934  0.5296 -0.4270 -0.0197
 5415TIP3   OH237659   5.504   6.174  14.371  0.5944  0.3425 -0.4374
 5415TIP3    H137660   5.597   6.196  14.382  0.7215  0.7715 -2.0131
 5415TIP3    H237661   5.492   6.173  14.276 -0.0288 -3.8661 -0.4958
 5416TIP3   OH237662   0.582   4.819   2.397  0.6738 -0.2220 -0.1688
 5416TIP3    H137663   0.536   4.824   2.481  0.8458  3.3914 -0.1592
 5416TIP3    H237664   0.568   4.728   2.368 -0.9109 -1.0875  2.8638
 5417TIP3   OH237665   4.079   4.557  13.464 -0.1807 -0.0102  0.0565
 5417TIP3    H137666   4.059   4.627  13.402  0.7348  0.9308  0.7965
 5417TIP3    H237667   4.099   4.602  13.546  1.9945 -1.0103  0.1528
 5418TIP3   OH237668   3.531   1.295   4.228 -0.1530 -0.0758  0.5647
 5418TIP3    H137669   3.467   1.306   4.158  0.2708  1.5919  0.3896
 5418TIP3    H237670   3.570   1.210   4.212 -0.1853  0.2013 -1.1345
 5419TIP3   OH237671   4.026   5.194   5.953  0.3968  0.4976 -0.2309
 5419TIP3    H137672   4.096   5.128   5.956 -0.2064 -0.2732 -1.9482
 5419TIP3    H237673   4.020   5.226   6.043  2.3719 -0.0284  0.1374
 5420TIP3   OH237674   3.062   2.569  14.219 -0.4649 -0.0728  0.3297
 5420TIP3    H137675   3.065   2.654  14.263  0.1793 -0.5588  1.2579
 5420TIP3    H237676   3.136   2.521  14.255  0.1661 -0.4624 -1.3993
 5421TIP3   OH237677   3.819   3.688   2.364  0.0978  0.0102  0.4319
 5421TIP3    H137678   3.876   3.752   2.321 -1.3262  1.2529  0.2818
 5421TIP3    H237679   3.877   3.617   2.390  1.2809 -0.0440 -2.0784
 5422TIP3   OH237680   6.319   0.344   2.040  0.5310 -0.0349  0.4174
 5422TIP3    H137681   6.316   0.381   2.129 -0.4066 -0.0208  0.3925
 5422TIP3    H237682   6.360   0.259   2.050 -0.1111 -0.2876  0.9689
 5423TIP3   OH237683   1.471   4.922   2.990  0.1511  0.1898  0.2367
 5423TIP3    H137684   1.435   4.834   3.004  1.7986 -0.3697  1.2943
 5423TIP3    H237685   1.555   4.906   2.946  0.6253  1.1882  0.7535
 5424TIP3   OH237686   3.129   3.578  14.394  0.0931  0.9597 -0.6135
 5424TIP3    H137687   3.177   3.504  14.431  0.2422  1.7278  0.8461
 5424TIP3    H237688   3.112   3.554  14.303 -0.0478 -0.9382 -0.1286
 5425TIP3   OH237689   6.373   4.414  13.734 -0.7775  0.6008 -0.0944
 5425TIP3    H137690   6.435   4.350  13.697  0.8448  1.3199  1.2410
 5425TIP3    H237691   6.396   4.496  13.692 -0.3314  1.0085  0.9182
 5426TIP3   OH237692   4.677   6.627  13.630  0.3346  0.2640 -0.1474
 5426TIP3    H137693   4.660   6.564  13.700  0.4322  1.2729  0.8055
 5426TIP3    H237694   4.591   6.644  13.591  0.0670  0.6870  0.6046
 5427TIP3   OH237695   4.538   1.790   6.479  0.2815  0.1983  0.0786
 5427TIP3    H137696   4.567   1.713   6.528 -1.3807  0.8931  2.3271
 5427TIP3    H237697   4.575   1.864   6.527 -0.5914  0.8864 -0.2909
 5428TIP3   OH237698   5.901   3.609   5.366  0.3158  0.1926  0.1035
 5428TIP3    H137699   5.953   3.540   5.327 -0.6426 -0.9658  0.8061
 5428TIP3    H237700   5.815   3.603   5.324 -1.0647 -1.7107  2.8486
 5429TIP3   OH237701   1.746   2.447  11.196  0.1789 -0.2628  0.2620
 5429TIP3    H137702   1.666   2.434  11.245 -0.8047  1.8868 -0.6324
 5429TIP3    H237703   1.771   2.538  11.213 -0.1648  0.5824 -2.9900
 5430TIP3   OH237704   0.139   2.529  12.838 -0.1959  0.2048  0.2803
 5430TIP3    H137705   0.142   2.572  12.923 -0.8534  1.5954 -0.3640
 5430TIP3    H237706   0.230   2.521  12.811  0.0296 -0.4492  1.1936
 5431TIP3   OH237707   6.153   3.852  11.314  0.1413 -0.2505  0.5387
 5431TIP3    H137708   6.204   3.771  11.304 -0.0842 -0.4975  1.3264
 5431TIP3    H237709   6.194   3.914  11.254 -0.1082 -1.1517 -0.5910
 5432TIP3   OH237710   1.272   3.796   0.238 -0.0957  0.1519  0.2083
 5432TIP3    H137711   1.232   3.709   0.236 -0.1806  0.1850  0.5371
 5432TIP3    H237712   1.364   3.779   0.256  0.1585  0.0375 -1.0683
 5433TIP3   OH237713   2.359   4.561   3.833 -0.7569 -0.3132  0.1579
 5433TIP3    H137714   2.279   4.512   3.815  0.6295 -1.5983 -3.7332
 5433TIP3    H237715   2.349   4.643   3.783 -0.0927 -0.0209  0.4893
 5434TIP3   OH237716   0.757   0.601   0.901 -0.2019 -0.4538  0.4675
 5434TIP3    H137717   0.822   0.649   0.952  1.8295 -1.5200 -0.9969
 5434TIP3    H237718   0.684   0.662   0.893  1.6191  1.8148  0.0046
 5435TIP3   OH237719   1.200   1.437   4.029  0.4328  0.3292  0.7251
 5435TIP3    H137720   1.176   1.416   4.120 -2.0924  0.0364  0.0469
 5435TIP3    H237721   1.233   1.354   3.994 -0.6277 -0.1328  0.7773
 5436TIP3   OH237722   6.549   3.034  10.292  0.0959 -0.2543  0.0100
 5436TIP3    H137723   6.467   3.040  10.341 -0.5379 -0.2296 -1.0178
 5436TIP3    H237724   6.573   2.941  10.297  0.5849 -0.0808  1.1987
 5437TIP3   OH237725   6.198   2.367  13.392  0.1147 -0.5882 -0.4793
 5437TIP3    H137726   6.219   2.433  13.457 -1.3655 -1.8914  1.4390
 5437TIP3    H237727   6.252   2.292  13.415 -1.0383 -1.3552 -0.1865
 5438TIP3   OH237728   0.962   1.523  11.250 -0.4581 -0.0386 -0.0316
 5438TIP3    H137729   1.047   1.482  11.234 -0.9152 -1.0808  0.1715
 5438TIP3    H237730   0.958   1.534  11.345 -1.1916 -1.4322  0.1164
 5439TIP3   OH237731   2.260   1.694   4.772  0.4766 -0.5760 -0.2370
 5439TIP3    H137732   2.172   1.733   4.770  0.5271 -0.4408  0.0392
 5439TIP3    H237733   2.276   1.666   4.682 -0.6856 -2.4929  0.0942
 5440TIP3   OH237734   4.730   3.183  12.882 -0.0860 -0.5819 -0.2607
 5440TIP3    H137735   4.672   3.224  12.817 -0.1932 -0.4371 -0.0748
 5440TIP3    H237736   4.672   3.162  12.955  0.0414 -0.7174 -0.1988
 5441TIP3   OH237737   1.560   6.748  10.916 -0.0258  0.4215  0.1434
 5441TIP3    H137738   1.611   6.687  10.969 -0.3932 -0.4896 -0.5238
 5441TIP3    H237739   1.482   6.767  10.968  0.0885  0.3155  0.3527
 5442TIP3   OH237740   3.082   1.529   3.219 -0.2521  0.7501  0.0293
 5442TIP3    H137741   3.127   1.567   3.294 -1.7320 -0.4344  1.5960
 5442TIP3    H237742   3.151   1.485   3.169  0.5965  0.5058  1.3673
 5443TIP3   OH237743   2.358   6.547  15.937  0.1019 -0.0003 -0.1638
 5443TIP3    H137744   2.291   6.607  15.904 -0.4699 -0.7062 -0.3011
 5443TIP3    H237745   2.441   6.591  15.917 -0.2897  0.5015 -0.7304
 5444TIP3   OH237746   3.068   6.079   6.332 -0.4775 -0.4115 -0.4744
 5444TIP3    H137747   3.150   6.036   6.356 -1.1389 -0.9296  0.9620
 5444TIP3    H237748   3.015   6.009   6.295 -0.3751 -0.1205 -1.1984
 5445TIP3   OH237749   0.680   2.330   5.458  0.0753 -0.3044  0.4357
 5445TIP3    H137750   0.607   2.281   5.496  0.9142 -0.4619  1.9597
 5445TIP3    H237751   0.672   2.418   5.495 -0.4944  0.2832 -1.0166
 5446TIP3   OH237752   6.807   1.626   0.045 -0.1042  0.1954 -0.2865
 5446TIP3    H137753   6.865   1.576   0.102 -0.3046  0.1881 -0.0904
 5446TIP3    H237754   6.844   1.715   0.045  0.4230 -0.0138 -0.8692
 5447TIP3   OH237755   2.067   3.018  16.055 -0.5618  0.0518 -0.4039
 5447TIP3    H137756   2.048   3.109  16.079 -1.5905 -0.6164  1.5189
 5447TIP3    H237757   2.010   3.001  15.979 -1.5547  0.5562  0.2061
 5448TIP3   OH237758   0.449   3.391  14.645 -0.2479  0.1743  0.4248
 5448TIP3    H137759   0.405   3.328  14.588 -0.8286  1.1185 -0.1742
 5448TIP3    H237760   0.526   3.343  14.678 -0.7090 -0.8622  0.0256
 5449TIP3   OH237761   1.573   1.205   0.881 -0.1689 -0.3098  0.2452
 5449TIP3    H137762   1.567   1.122   0.832  2.1425 -0.1181 -0.4639
 5449TIP3    H237763   1.553   1.272   0.816 -2.7564 -0.2550  0.9833
 5450TIP3   OH237764   4.924   6.450   2.939  0.3220  0.1868 -1.3119
 5450TIP3    H137765   4.865   6.387   2.980 -1.9906  1.5285 -2.4070
 5450TIP3    H237766   4.980   6.397   2.883  0.0123 -1.1035 -0.4597
 5451TIP3   OH237767   5.808   2.591   3.840 -0.3900 -0.0664  0.1100
 5451TIP3    H137768   5.728   2.610   3.888 -0.6589 -0.1140 -0.3118
 5451TIP3    H237769   5.791   2.624   3.752  0.2346  0.3644  0.1432
 5452TIP3   OH237770   4.167   2.423  13.124 -0.4793 -0.0709  0.4562
 5452TIP3    H137771   4.072   2.410  13.125 -1.0196  3.0619  1.9950
 5452TIP3    H237772   4.178   2.513  13.092  1.8640  0.0974  1.5417
 5453TIP3   OH237773   3.598   4.250   0.868 -0.2315 -0.1873 -0.1537
 5453TIP3    H137774   3.633   4.167   0.837  1.6474  0.4077  0.2589
 5453TIP3    H237775   3.651   4.272   0.944 -0.0939  1.8172 -0.7712
 5454TIP3   OH237776   2.454   5.256  14.381  0.4090  0.6182  0.0173
 5454TIP3    H137777   2.361   5.230  14.381  0.8994 -1.3235  0.2034
 5454TIP3    H237778   2.482   5.245  14.290  0.9078 -0.7693  0.3031
 5455TIP3   OH237779   6.234   6.116  11.625  0.4208  0.1059  0.4563
 5455TIP3    H137780   6.213   6.088  11.536 -0.5101  2.8692 -0.3053
 5455TIP3    H237781   6.240   6.035  11.675  0.5388 -1.5185 -2.0065
 5456TIP3   OH237782   6.504   2.018   2.722 -0.0971 -0.4371  0.2029
 5456TIP3    H137783   6.487   2.104   2.684  2.3543 -0.5072 -1.2587
 5456TIP3    H237784   6.455   2.018   2.805 -2.8285  1.0519 -1.2512
 5457TIP3   OH237785   3.834   4.905  10.586  0.9114  0.1732 -0.2598
 5457TIP3    H137786   3.835   4.973  10.654 -0.4893 -0.4344  0.4027
 5457TIP3    H237787   3.829   4.954  10.504  0.4985  0.8971  0.1855
 5458TIP3   OH237788   1.504   0.591   4.595  0.0002 -0.9195 -0.1053
 5458TIP3    H137789   1.446   0.626   4.527  1.5720  2.5035  0.1047
 5458TIP3    H237790   1.478   0.638   4.674  2.2290 -0.1308  0.2297
 5459TIP3   OH237791   3.942   4.102   5.559  0.3765 -0.5319  0.2211
 5459TIP3    H137792   4.019   4.087   5.504  0.8840  2.2601  0.0197
 5459TIP3    H237793   3.977   4.124   5.645 -0.1504  0.6327  0.1619
 5460TIP3   OH237794   5.949   4.134   1.900 -0.6822 -0.4252  0.3639
 5460TIP3    H137795   5.996   4.138   1.816 -1.0214 -2.8927 -0.0244
 5460TIP3    H237796   5.981   4.053   1.941 -1.4827  0.0693  2.0433
 5461TIP3   OH237797   5.349   1.001  12.932  0.1936 -0.4452  0.0759
 5461TIP3    H137798   5.394   0.975  13.012  1.9477 -1.4748 -1.1575
 5461TIP3    H237799   5.357   1.096  12.929 -1.1763 -0.2339  1.7949
 5462TIP3   OH237800   2.239   0.377   4.929  0.5012 -0.5696 -0.0071
 5462TIP3    H137801   2.238   0.401   5.021 -0.8609 -1.4372  0.2357
 5462TIP3    H237802   2.282   0.292   4.927 -1.5628 -1.6928  0.1955
 5463TIP3   OH237803   1.891   2.943  13.445 -0.5476  0.6023  0.2591
 5463TIP3    H137804   1.902   2.982  13.532 -1.8234 -0.9569  1.1656
 5463TIP3    H237805   1.861   2.854  13.462  2.4210 -0.9660 -1.6995
 5464TIP3   OH237806   0.005   3.341  10.587 -0.1409 -0.4881 -0.0529
 5464TIP3    H137807  -0.011   3.266  10.529  0.4626 -1.0199  0.4611
 5464TIP3    H237808   0.091   3.374  10.561 -0.0203 -0.5148  0.3152
 5465TIP3   OH237809   5.461   3.123   4.350  0.0013 -0.3678  0.2106
 5465TIP3    H137810   5.474   3.067   4.427 -2.2200 -0.6185  0.4580
 5465TIP3    H237811   5.549   3.135   4.315  0.9227 -1.3494  2.0132
 5466TIP3   OH237812   6.414   5.941  15.208  0.1768 -0.3800 -0.5066
 5466TIP3    H137813   6.379   5.914  15.123 -0.2362 -0.2468 -0.3839
 5466TIP3    H237814   6.457   5.863  15.242  1.4465 -0.0956 -1.3765
 5467TIP3   OH237815   0.574   0.262   2.581  0.0681  0.2038  0.0237
 5467TIP3    H137816   0.530   0.331   2.531  1.4287  0.7852 -0.4027
 5467TIP3    H237817   0.578   0.188   2.520 -1.4647 -0.3210  0.5083
 5468TIP3   OH237818   4.314   4.501   6.563 -0.4594 -0.2139  0.5046
 5468TIP3    H137819   4.400   4.461   6.577  0.3943  0.2550 -2.6854
 5468TIP3    H237820   4.291   4.476   6.474 -1.7828  2.9648 -0.1458
 5469TIP3   OH237821   1.830   6.416  15.971  0.4177  0.5820 -0.4608
 5469TIP3    H137822   1.857   6.464  15.892  0.9823 -1.2009 -1.4110
 5469TIP3    H237823   1.825   6.483  16.039  1.2326  1.9664 -1.6980
 5470TIP3   OH237824   4.819   3.976   6.404  0.0374 -0.0258  1.0007
 5470TIP3    H137825   4.849   3.995   6.493  1.5801 -1.7310  0.9014
 5470TIP3    H237826   4.874   4.031   6.348  0.8583 -0.8439  0.9865
 5471TIP3   OH237827   5.889   1.691   5.465  0.0794  0.6503  0.4436
 5471TIP3    H137828   5.942   1.769   5.481 -0.1450  0.8166  0.3738
 5471TIP3    H237829   5.879   1.688   5.370  1.2709 -0.2431  0.3344
 5472TIP3   OH237830   6.745   6.696   1.791 -0.1180  0.2768 -0.4164
 5472TIP3    H137831   6.765   6.681   1.698  1.5283 -0.5735  0.0284
 5472TIP3    H237832   6.830   6.713   1.831 -0.8024  0.5963  0.9501
 5473TIP3   OH237833   3.025   2.132  12.458 -0.0931  0.0769  0.5972
 5473TIP3    H137834   3.081   2.133  12.536 -0.0192  1.6414  0.5549
 5473TIP3    H237835   3.069   2.191  12.397  0.6459 -2.2561 -1.2495
 5474TIP3   OH237836   3.623   4.664   3.047 -0.4475 -0.2724 -0.6823
 5474TIP3    H137837   3.701   4.662   2.992 -0.8832  0.1104 -1.3217
 5474TIP3    H237838   3.591   4.754   3.041 -0.9937 -0.4492 -0.4937
 5475TIP3   OH237839   4.006   1.985  16.673 -0.6122  0.0494 -0.1042
 5475TIP3    H137840   4.032   2.033  16.594 -0.6020 -0.3042 -0.3203
 5475TIP3    H237841   3.963   1.906  16.640 -1.9978  0.6257  0.2432
 5476TIP3   OH237842   1.664   1.528   2.725 -0.1833  0.0612 -0.0096
 5476TIP3    H137843   1.746   1.567   2.694 -0.3098  1.2315  1.0872
 5476TIP3    H237844   1.652   1.563   2.813 -1.6461 -0.4414  0.0155
 5477TIP3   OH237845   0.002   0.667   0.248 -0.0073 -0.0961 -0.5970
 5477TIP3    H137846  -0.084   0.635   0.222 -0.1561 -0.1590 -0.0369
 5477TIP3    H237847  -0.012   0.759   0.271  0.0333 -0.1615 -0.3069
 5478TIP3   OH237848   4.817   2.401   5.096  0.1761  0.7901 -0.1390
 5478TIP3    H137849   4.865   2.428   5.175 -1.9124  1.8454  0.8285
 5478TIP3    H237850   4.792   2.310   5.114 -0.1909  0.9885  0.3663
 5479TIP3   OH237851   6.819   5.169  12.651  0.9828 -0.0087 -0.2018
 5479TIP3    H137852   6.767   5.223  12.590  1.2679  1.5385  0.8797
 5479TIP3    H237853   6.775   5.084  12.649 -0.1618  0.5591 -1.1193
 5480TIP3   OH237854   4.124   5.612   1.789 -0.4827 -0.4072 -0.0507
 5480TIP3    H137855   4.071   5.585   1.715 -1.4607 -0.6182  0.7026
 5480TIP3    H237856   4.105   5.705   1.799  1.1592  0.1052 -1.2508
 5481TIP3   OH237857   2.407   4.865   4.056  0.2612 -0.3191 -0.4994
 5481TIP3    H137858   2.397   4.958   4.036 -0.1904  0.1796  1.7621
 5481TIP3    H237859   2.474   4.861   4.125 -1.5572 -1.3330  1.3445
 5482TIP3   OH237860   0.098   2.636  11.211  0.2834 -0.1050 -0.4353
 5482TIP3    H137861   0.183   2.645  11.168  0.6272 -0.9208  0.0545
 5482TIP3    H237862   0.034   2.646  11.141  0.7754  0.6219 -0.7954
 5483TIP3   OH237863   2.923   1.810   0.690  0.7280  0.2421 -0.2027
 5483TIP3    H137864   2.868   1.854   0.754  1.9323 -1.7290  2.3979
 5483TIP3    H237865   2.974   1.747   0.741  3.1618 -0.1985 -2.8611
 5484TIP3   OH237866   6.242   2.562   0.943  0.0726  0.1009 -0.0094
 5484TIP3    H137867   6.188   2.483   0.949 -1.2778  0.8655 -1.1853
 5484TIP3    H237868   6.247   2.580   0.849  0.3899  1.3627  0.2288
 5485TIP3   OH237869   1.186   4.024   4.066  0.0693 -0.9276 -0.5199
 5485TIP3    H137870   1.268   4.070   4.082  0.6676 -2.4916  1.2429
 5485TIP3    H237871   1.205   3.967   3.991  0.4465 -0.9539 -0.4039
 5486TIP3   OH237872   4.635   1.203  11.036  0.3078 -0.1272 -0.1255
 5486TIP3    H137873   4.728   1.217  11.015  0.5675 -0.7625  0.5396
 5486TIP3    H237874   4.623   1.108  11.026 -0.2143 -0.0745  0.0089
 5487TIP3   OH237875   1.413   3.404   1.183  0.9752 -0.0517  0.5884
 5487TIP3    H137876   1.498   3.399   1.226  0.5782  1.3236  1.5705
 5487TIP3    H237877   1.351   3.428   1.252  0.0756  0.6931 -0.4317
 5488TIP3   OH237878   5.773   4.565  16.393 -0.1793 -0.0289 -0.2769
 5488TIP3    H137879   5.801   4.625  16.324  1.2540 -0.3799 -0.0260
 5488TIP3    H237880   5.851   4.551  16.447 -1.2960  0.3671  1.5400
 5489TIP3   OH237881   3.157   6.343  14.533  0.5050 -0.1171 -0.0913
 5489TIP3    H137882   3.199   6.259  14.516  0.9632  0.3374 -1.3253
 5489TIP3    H237883   3.223   6.408  14.509  0.7696  0.6333  2.4093
 5490TIP3   OH237884   1.511   5.011  12.446  0.2089  0.1475 -0.2378
 5490TIP3    H137885   1.560   5.070  12.389 -0.0278 -0.8773 -1.5684
 5490TIP3    H237886   1.420   5.019  12.416  0.0683 -0.3377  0.0533
 5491TIP3   OH237887   3.174   0.813  11.048 -0.2203 -0.6306 -0.3134
 5491TIP3    H137888   3.200   0.885  10.991  2.3189  0.1264  1.6385
 5491TIP3    H237889   3.244   0.748  11.038 -0.5621 -1.1770  0.7197
 5492TIP3   OH237890   3.438   2.527   6.205 -0.0458  0.4140 -0.4006
 5492TIP3    H137891   3.435   2.623   6.199  1.6228  0.4134 -4.3999
 5492TIP3    H237892   3.350   2.498   6.181  0.2680  0.9966 -2.4134
 5493TIP3   OH237893   3.934   3.899  15.956 -0.0103  0.3362 -0.2732
 5493TIP3    H137894   3.999   3.834  15.984 -0.5809  0.5564  1.7568
 5493TIP3    H237895   3.871   3.849  15.905  1.5833  0.0731 -2.0935
 5494TIP3   OH237896   1.451   2.144  12.181  0.0601  0.2158 -0.1972
 5494TIP3    H137897   1.471   2.195  12.259  0.4048  2.4975 -1.6583
 5494TIP3    H237898   1.379   2.192  12.139 -1.8630 -2.3649 -0.0456
 5495TIP3   OH237899   5.212   5.590   1.432 -0.1756 -0.5182  0.1914
 5495TIP3    H137900   5.276   5.661   1.429 -0.3029 -0.4475 -1.0660
 5495TIP3    H237901   5.263   5.512   1.454 -0.0607 -0.0449  1.7653
 5496TIP3   OH237902   5.881   6.732  16.725 -0.5922 -0.3668 -0.2504
 5496TIP3    H137903   5.951   6.780  16.770 -0.4277  0.5489 -1.4477
 5496TIP3    H237904   5.897   6.640  16.748  1.5452 -0.2869 -1.2050
 5497TIP3   OH237905   5.114   5.255   3.246  0.1059  0.7929 -0.6036
 5497TIP3    H137906   5.121   5.159   3.249 -0.2014  0.7964  0.9725
 5497TIP3    H237907   5.175   5.281   3.177  0.4049 -0.5256 -0.8643
 5498TIP3   OH237908   1.397   5.374   4.440 -0.0447 -0.2887  0.4731
 5498TIP3    H137909   1.331   5.380   4.371  0.1577 -0.5415  0.2553
 5498TIP3    H237910   1.353   5.407   4.518  0.3306  1.9067 -0.1684
 5499TIP3   OH237911   5.800   4.472   0.330  0.1971  0.1037 -0.1384
 5499TIP3    H137912   5.858   4.527   0.277 -0.1166  1.8291  1.2313
 5499TIP3    H237913   5.712   4.497   0.302  0.0464  0.4775  0.6649
 5500TIP3   OH237914   3.582   6.135  14.122  0.5934 -0.3493  0.1564
 5500TIP3    H137915   3.642   6.210  14.122 -0.2224  0.3912 -2.0398
 5500TIP3    H237916   3.540   6.138  14.036  0.1102 -3.0298  0.2172
 5501TIP3   OH237917   6.347   1.023  11.721 -0.0927 -0.1407 -0.0861
 5501TIP3    H137918   6.333   1.079  11.797  0.7723  0.0967 -0.0903
 5501TIP3    H237919   6.440   1.000  11.725 -0.0204 -0.0771 -1.0875
 5502TIP3   OH237920   2.889   4.487   0.853 -0.6336 -0.1241 -0.2839
 5502TIP3    H137921   2.916   4.423   0.786 -2.0482 -1.5863  0.4573
 5502TIP3    H237922   2.869   4.566   0.803  0.5732 -0.4283 -1.3118
 5503TIP3   OH237923   0.796   4.239   4.427 -0.4627  0.0783  0.2604
 5503TIP3    H137924   0.839   4.270   4.347 -2.4757  1.0941 -0.4926
 5503TIP3    H237925   0.721   4.189   4.396 -0.2243 -1.1472  1.5435
 5504TIP3   OH237926   2.435   5.559   5.947 -0.1545 -0.6149 -0.4641
 5504TIP3    H137927   2.489   5.480   5.946 -0.4179 -0.9388  2.2758
 5504TIP3    H237928   2.347   5.528   5.925  0.5152 -0.0869 -4.9303
 5505TIP3   OH237929   3.197   5.305  14.058  0.6461 -1.0155  0.0993
 5505TIP3    H137930   3.248   5.236  14.016  0.9630 -1.5234  1.2620
 5505TIP3    H237931   3.110   5.266  14.072 -0.0536 -0.2123 -1.7183
 5506TIP3   OH237932   5.572   0.669   5.488 -0.3466  0.0355 -0.3615
 5506TIP3    H137933   5.638   0.601   5.498 -0.3511  0.1105  0.1875
 5506TIP3    H237934   5.531   0.676   5.574  1.0677  2.2105  0.2175
 5507TIP3   OH237935   2.668   0.042   1.356  0.1701 -0.1771 -0.4850
 5507TIP3    H137936   2.627   0.127   1.370 -2.0952 -1.1678 -0.7353
 5507TIP3    H237937   2.666   0.029   1.261 -0.2183 -0.8345 -0.3929
 5508TIP3   OH237938   4.644   1.538   3.754 -0.2863 -0.9171  0.3895
 5508TIP3    H137939   4.582   1.603   3.722  0.2663  0.0078  1.1214
 5508TIP3    H237940   4.620   1.525   3.846  0.6406 -0.4734  0.7102
 5509TIP3   OH237941   3.945   5.115  15.153 -0.2989  0.7576  0.0017
 5509TIP3    H137942   3.877   5.139  15.216 -0.6131 -1.0032  0.3885
 5509TIP3    H237943   3.900   5.059  15.089 -0.1684  3.0627 -2.2800
 5510TIP3   OH237944   3.769   5.702  15.004  0.1883  0.0469  1.1118
 5510TIP3    H137945   3.758   5.715  14.910  0.5333 -0.4948  0.9945
 5510TIP3    H237946   3.859   5.672  15.014  0.4608  1.0366  1.7139
 5511TIP3   OH237947   0.764   4.573   4.502  0.2568  0.0074  0.1067
 5511TIP3    H137948   0.776   4.530   4.417 -2.6034 -0.6214 -0.1001
 5511TIP3    H237949   0.726   4.658   4.480  0.5529  0.2984  0.7136
 5512TIP3   OH237950   0.001   4.859  15.055  0.4326 -0.2763  0.1686
 5512TIP3    H137951   0.059   4.883  14.983  1.9484 -0.2733  1.3396
 5512TIP3    H237952  -0.067   4.926  15.054  0.3933 -0.2901 -1.2558
 5513TIP3   OH237953   2.024   1.680   1.080 -0.4228 -0.0960 -0.2237
 5513TIP3    H137954   2.059   1.592   1.091  0.1413  0.2250  0.6324
 5513TIP3    H237955   2.101   1.737   1.079 -0.8334  0.4845  0.2589
 5514TIP3   OH237956   3.183   5.653   0.570  0.3860  0.2598  0.1900
 5514TIP3    H137957   3.255   5.671   0.509  0.0319 -0.2741 -0.4061
 5514TIP3    H237958   3.224   5.647   0.656  1.1629 -0.7439 -0.2376
 5515TIP3   OH237959   2.363   2.124  10.661 -0.4683  0.0746 -0.1212
 5515TIP3    H137960   2.426   2.184  10.620 -1.0881  0.8308  0.0104
 5515TIP3    H237961   2.400   2.105  10.747  0.8666 -1.5549 -1.0014
 5516TIP3   OH237962   4.630   5.026  10.956 -0.7711 -0.4460 -0.0313
 5516TIP3    H137963   4.721   5.053  10.944 -0.6032 -1.1723 -0.4420
 5516TIP3    H237964   4.605   4.987  10.872 -1.1362 -1.1701  0.4061
 5517TIP3   OH237965   4.318   2.187   0.131  0.3977 -0.8322  0.2166
 5517TIP3    H137966   4.242   2.129   0.139 -1.1268  1.1917  1.5469
 5517TIP3    H237967   4.350   2.197   0.221  0.1755  0.8500  0.1539
 5518TIP3   OH237968   6.800   4.443   5.195 -0.3180  0.3563 -0.8094
 5518TIP3    H137969   6.758   4.365   5.160 -0.2325  1.0182 -2.4861
 5518TIP3    H237970   6.744   4.515   5.167 -1.6167  0.8555  2.5140
 5519TIP3   OH237971   5.656   4.872  11.870  0.0752 -0.2395 -0.6227
 5519TIP3    H137972   5.660   4.939  11.938 -0.6200  0.0300 -0.8375
 5519TIP3    H237973   5.715   4.903  11.802  0.5127 -0.3419 -0.2963
 5520TIP3   OH237974   6.229   5.622   2.985  0.5666  0.2188  0.0709
 5520TIP3    H137975   6.179   5.609   3.066 -2.5985 -1.8569 -1.9782
 5520TIP3    H237976   6.282   5.543   2.977 -0.0618 -0.1619 -0.4377
 5521TIP3   OH237977   3.995   0.475   5.800  0.8869  0.5806 -0.5801
 5521TIP3    H137978   3.908   0.451   5.767  0.4207  1.0708  0.2359
 5521TIP3    H237979   4.002   0.428   5.883  1.3878  0.5779 -0.6225
 5522TIP3   OH237980   0.115   1.360  15.291  0.6698 -0.0822  0.2505
 5522TIP3    H137981   0.180   1.395  15.352 -1.4603  1.1725  1.9029
 5522TIP3    H237982   0.132   1.266  15.290  2.6901  0.2334  0.3603
 5523TIP3   OH237983   2.423   1.655   1.745  0.2480 -0.5069 -0.1460
 5523TIP3    H137984   2.514   1.631   1.764  0.8495  2.4767  1.1962
 5523TIP3    H237985   2.375   1.632   1.824  0.3196  0.1838  0.1026
 5524TIP3   OH237986   0.825   4.874   4.931 -0.1539  0.2313 -0.3315
 5524TIP3    H137987   0.775   4.940   4.883  0.9162  0.6099 -0.9564
 5524TIP3    H237988   0.851   4.918   5.013 -0.2508  0.2690 -0.3208
 5525TIP3   OH237989   4.767   1.717   0.127  0.0228  0.6781  0.1028
 5525TIP3    H137990   4.764   1.664   0.048  0.1117  0.9182 -0.0633
 5525TIP3    H237991   4.732   1.802   0.100  0.0753  0.7672  0.3148
 5526TIP3   OH237992   1.600   3.176  13.502  0.7074 -0.0760 -0.0219
 5526TIP3    H137993   1.543   3.252  13.493  1.3360  0.4467  0.2296
 5526TIP3    H237994   1.687   3.214  13.517  0.6402 -0.7964  2.8646
 5527TIP3   OH237995   0.492   0.880  10.890  0.0444  0.4099  0.2585
 5527TIP3    H137996   0.488   0.785  10.876  0.3778  0.4966 -0.4525
 5527TIP3    H237997   0.528   0.890  10.978 -0.6486 -0.1304  0.6172
 5528TIP3   OH237998   1.413   0.818  17.073  0.0426 -0.1281  0.4199
 5528TIP3    H137999   1.411   0.723  17.069 -0.2293 -0.2134  1.8841
 5528TIP3    H238000   1.500   0.842  17.042  1.0743 -1.0525  2.3962
 5529TIP3   OH238001   1.470   5.896   5.686  0.2305  0.1903 -0.0640
 5529TIP3    H138002   1.481   5.981   5.729 -0.2240  0.7479 -1.0180
 5529TIP3    H238003   1.469   5.833   5.757  1.3848  0.8960  0.6170
 5530TIP3   OH238004   4.650   5.253  11.438 -0.1623 -0.3232  0.3319
 5530TIP3    H138005   4.712   5.270  11.367  0.4786 -1.1843  0.6772
 5530TIP3    H238006   4.593   5.184  11.403 -0.1210 -0.4411  0.5003
 5531TIP3   OH238007   3.082   4.028  11.352  0.2009  0.0687 -0.0970
 5531TIP3    H138008   3.010   4.037  11.289  1.5096 -0.8460 -1.8192
 5531TIP3    H238009   3.142   4.100  11.330  1.1554 -0.8526 -0.6346
 5532TIP3   OH238010   3.725   2.293   6.208 -0.4148  0.2902  0.1943
 5532TIP3    H138011   3.722   2.203   6.174  0.6568 -0.0610  0.9780
 5532TIP3    H238012   3.705   2.284   6.301 -0.8574  0.9446  0.1704
 5533TIP3   OH238013   3.469   0.642   1.910 -0.1332  0.0693  0.0883
 5533TIP3    H138014   3.390   0.589   1.902 -1.0406  1.1745  1.3032
 5533TIP3    H238015   3.459   0.688   1.994 -0.2725  3.4957 -1.6146
 5534TIP3   OH238016   0.070   4.035  17.101  0.6346  0.0656 -0.0231
 5534TIP3    H138017   0.030   4.122  17.093  3.1267  1.3223 -0.1921
 5534TIP3    H238018   0.092   4.027  17.193  2.9488  0.9580 -0.4207
 5535TIP3   OH238019   3.280   3.839  17.095 -0.1278  0.1226 -0.0167
 5535TIP3    H138020   3.353   3.838  17.157 -1.2280 -3.3045  1.4349
 5535TIP3    H238021   3.316   3.801  17.015  0.0361 -0.2363  0.2246
 5536TIP3   OH238022   4.337   2.930  12.282  0.6674  0.2642  0.4060
 5536TIP3    H138023   4.309   3.020  12.295  0.7853  0.2477  0.7843
 5536TIP3    H238024   4.414   2.936  12.226 -0.4361  0.2707 -1.1725
 5537TIP3   OH238025   5.020   0.750  11.318  0.2228 -0.2714  0.7077
 5537TIP3    H138026   5.086   0.681  11.324  3.0169  2.1450 -0.0049
 5537TIP3    H238027   5.006   0.776  11.409  0.5055 -0.6042  0.8514
 5538TIP3   OH238028   1.109   4.524   2.347 -0.7476  0.4544  0.3571
 5538TIP3    H138029   1.180   4.492   2.291  0.9806  2.3811  1.3037
 5538TIP3    H238030   1.045   4.562   2.287  0.4701  1.3521 -0.4102
 5539TIP3   OH238031   0.881   1.811  12.946  0.2325 -0.3134 -0.6956
 5539TIP3    H138032   0.949   1.856  12.897 -0.7410 -0.9798 -2.7484
 5539TIP3    H238033   0.929   1.756  13.008  1.4977  0.6749 -0.7630
 5540TIP3   OH238034   5.156   2.743  12.602  0.1791  0.2386  0.3432
 5540TIP3    H138035   5.110   2.784  12.529  0.2542  1.0410  0.7398
 5540TIP3    H238036   5.090   2.685  12.642 -0.8530  2.1118  1.5116
 5541TIP3   OH238037   3.697   2.796  12.204 -0.2016 -0.0439  0.4420
 5541TIP3    H138038   3.602   2.788  12.206 -0.1096 -1.8050 -0.0793
 5541TIP3    H238039   3.714   2.886  12.175 -1.7140 -0.0004 -0.3923
 5542TIP3   OH238040   3.850   2.030   5.849  0.5828  0.2992  0.4017
 5542TIP3    H138041   3.922   1.977   5.816 -0.1391 -0.5246  0.1185
 5542TIP3    H238042   3.785   1.966   5.879 -1.7660  0.8538 -2.9610
 5543TIP3   OH238043   4.339   0.647  13.146 -0.2435 -0.1345  0.2763
 5543TIP3    H138044   4.335   0.650  13.051 -0.5900  0.2136  0.3004
 5543TIP3    H238045   4.406   0.581  13.165 -1.1265 -1.2101 -0.2031
 5544TIP3   OH238046   1.323   2.524   5.245 -0.9540 -0.2907 -0.2231
 5544TIP3    H138047   1.340   2.597   5.305 -0.1072  0.9636 -1.9154
 5544TIP3    H238048   1.230   2.530   5.225 -0.9373  0.1939 -0.1667
 5545TIP3   OH238049   6.086   2.488  14.954  0.4033 -0.1759  0.1244
 5545TIP3    H138050   6.046   2.453  14.874 -0.9781  2.5996 -0.5114
 5545TIP3    H238051   6.090   2.413  15.013 -0.4444 -1.8484 -1.8169
 5546TIP3   OH238052   2.057   3.408  11.216 -0.2483 -0.5835 -0.6007
 5546TIP3    H138053   2.125   3.340  11.215 -0.1718 -0.5121 -0.2994
 5546TIP3    H238054   2.106   3.490  11.205 -0.4122 -0.6315 -1.7867
 5547TIP3   OH238055   1.877   6.103  13.230 -0.1513  0.5255  0.3818
 5547TIP3    H138056   1.865   6.011  13.255 -0.2965  0.5416  0.3715
 5547TIP3    H238057   1.942   6.136  13.292 -1.0818  0.7819  1.2563
 5548TIP3   OH238058   6.001   0.092  11.708  0.3845  1.2936 -0.3940
 5548TIP3    H138059   5.911   0.076  11.737  0.8878 -1.1514  0.0648
 5548TIP3    H238060   6.029   0.169  11.757  0.0904 -0.7315  3.3460
 5549TIP3   OH238061   1.256   4.708  14.677 -0.0701 -0.8593 -0.2908
 5549TIP3    H138062   1.339   4.739  14.641  1.5106  0.2363  3.7155
 5549TIP3    H238063   1.197   4.783  14.672  0.8878  0.0495  1.3780
 5550TIP3   OH238064   0.823   5.582   5.832 -0.2585 -0.2919  0.0310
 5550TIP3    H138065   0.893   5.582   5.897 -0.3948  0.8927  0.2063
 5550TIP3    H238066   0.743   5.596   5.883 -0.5603 -0.9660 -0.2380
 5551TIP3   OH238067   4.800   6.623  16.280  0.1411  0.5815 -0.6090
 5551TIP3    H138068   4.849   6.545  16.255 -0.0615  0.3436 -0.2633
 5551TIP3    H238069   4.866   6.693  16.282  0.7007  0.0569  0.9322
 5552TIP3   OH238070   0.871   2.256   2.863 -0.3474 -0.2314  0.1022
 5552TIP3    H138071   0.883   2.170   2.903  0.3651  0.1802  0.7951
 5552TIP3    H238072   0.879   2.240   2.769  1.0900 -0.7246  0.2940
 5553TIP3   OH238073   2.533   2.218  11.054  0.4639 -0.1498  0.0083
 5553TIP3    H138074   2.550   2.151  10.988 -1.8966 -0.0901 -0.7503
 5553TIP3    H238075   2.584   2.190  11.130  1.8902 -1.1415 -1.2619
 5554TIP3   OH238076   1.909   6.332  16.786  0.8469 -1.1633  0.3954
 5554TIP3    H138077   1.976   6.372  16.842  1.4265 -1.2531 -0.2144
 5554TIP3    H238078   1.865   6.269  16.843  1.2089 -1.0261  0.8376
 5555TIP3   OH238079   3.132   5.660  13.362 -0.0535  0.4935  0.4456
 5555TIP3    H138080   3.076   5.637  13.436  0.4328  0.5505  0.8358
 5555TIP3    H238081   3.072   5.697  13.297 -0.6619 -0.6889  0.3107
 5556TIP3   OH238082   6.424   6.780   0.037 -0.8228  0.6620  0.0792
 5556TIP3    H138083   6.477   6.713  -0.005 -0.6084  0.2205  1.0237
 5556TIP3    H238084   6.469   6.862   0.018  0.0583  0.3223  0.6290
 5557TIP3   OH238085   4.852   5.159  15.323 -0.4225  0.3575  0.4641
 5557TIP3    H138086   4.928   5.202  15.360 -1.0307  1.1354  0.8333
 5557TIP3    H238087   4.881   5.127  15.238  0.3804  0.4211  0.7078
 5558TIP3   OH238088   5.147   2.696   4.768  0.2613 -0.4890 -0.2541
 5558TIP3    H138089   5.161   2.750   4.690  0.2172 -2.2024 -1.5034
 5558TIP3    H238090   5.200   2.738   4.836  0.5672  0.8546 -1.2870
 5559TIP3   OH238091   0.679   6.565  15.697 -0.2033  0.0656  0.4026
 5559TIP3    H138092   0.765   6.581  15.734  0.5311 -0.3224 -1.0389
 5559TIP3    H238093   0.627   6.530  15.769  0.3086  1.9033  1.7336
 5560TIP3   OH238094   3.004   2.273   4.032  0.6462  0.0920 -0.3785
 5560TIP3    H138095   2.972   2.183   4.028 -0.3339  0.3555  0.8467
 5560TIP3    H238096   3.009   2.301   3.941  0.1683 -0.9342 -0.7331
 5561TIP3   OH238097   0.604   3.391  11.408 -0.6971 -0.4244  0.6474
 5561TIP3    H138098   0.558   3.396  11.324 -0.0829 -1.7223  0.1919
 5561TIP3    H238099   0.553   3.445  11.468 -1.6735 -0.2343 -0.3306
 5562TIP3   OH238100   5.515   1.563   3.794  0.7819  0.7572 -0.3449
 5562TIP3    H138101   5.610   1.572   3.785  0.9523 -0.5613 -0.0679
 5562TIP3    H238102   5.480   1.605   3.716  1.5699  1.5921 -0.2639
 5563TIP3   OH238103   2.724   5.304   4.361  0.1850  0.0394  0.5609
 5563TIP3    H138104   2.656   5.337   4.419  0.2480 -0.0832  0.7051
 5563TIP3    H238105   2.680   5.238   4.307  0.1541  0.0690  0.5493
 5564TIP3   OH238106   0.593   1.635   5.021  0.3538 -0.5723 -0.0399
 5564TIP3    H138107   0.605   1.560   4.963 -0.1503 -0.1925 -0.6441
 5564TIP3    H238108   0.567   1.706   4.963  1.5095  0.2629  0.4276
 5565TIP3   OH238109   4.350   0.328  12.962  0.3605  0.4914  0.0655
 5565TIP3    H138110   4.421   0.383  12.996 -0.3053  1.3354  0.1176
 5565TIP3    H238111   4.341   0.355  12.871  0.2738  0.1999 -0.0122
 5566TIP3   OH238112   0.523   1.673   3.718  0.1734 -0.0986  0.1631
 5566TIP3    H138113   0.563   1.674   3.631  1.8284 -0.8664  0.8626
 5566TIP3    H238114   0.440   1.628   3.706  0.5875 -0.6174 -0.9479
 5567TIP3   OH238115   4.568   4.086  12.770 -0.1364 -0.2478  0.1171
 5567TIP3    H138116   4.480   4.116  12.745  0.8106  1.5463 -1.3127
 5567TIP3    H238117   4.588   4.016  12.708 -0.1837 -0.0079 -0.1681
 5568TIP3   OH238118   5.122   5.142   1.266 -0.1777 -0.7897 -0.0427
 5568TIP3    H138119   5.045   5.125   1.321  0.1113  1.8252  1.3760
 5568TIP3    H238120   5.188   5.080   1.297 -0.9023 -1.2589  0.5914
 5569TIP3   OH238121   5.870   2.105  16.784  0.0493  0.2412 -0.4286
 5569TIP3    H138122   5.907   2.180  16.831  0.4664  0.5416 -1.2009
 5569TIP3    H238123   5.782   2.134  16.759 -0.2117  0.0383  0.2569
 5570TIP3   OH238124   5.817   6.193   4.841 -0.1912  0.0954  0.2055
 5570TIP3    H138125   5.857   6.141   4.910 -1.0720 -0.9588 -0.0614
 5570TIP3    H238126   5.739   6.230   4.880  0.3654  1.1542  0.3573
 5571TIP3   OH238127   4.593   6.628   6.078  0.2230 -0.0170  0.2667
 5571TIP3    H138128   4.499   6.613   6.085  0.5902 -2.3024  0.9043
 5571TIP3    H238129   4.614   6.684   6.153 -0.3260 -1.2214  1.3484
 5572TIP3   OH238130   5.768   0.798  16.435  0.1905 -0.3892 -0.1631
 5572TIP3    H138131   5.737   0.715  16.471  0.5475 -0.0399  1.0120
 5572TIP3    H238132   5.801   0.846  16.511  0.7958  0.4751 -0.9442
 5573TIP3   OH238133   6.004   5.056  16.298  0.1720  0.1889  0.0968
 5573TIP3    H138134   5.990   5.034  16.206  1.3715 -0.2723  0.0007
 5573TIP3    H238135   6.051   4.980  16.334 -0.6799  0.1559  1.2135
 5574TIP3   OH238136   1.980   6.344  14.752  0.3884 -0.3138  0.1067
 5574TIP3    H138137   1.979   6.261  14.705  1.3824  0.1227 -0.7207
 5574TIP3    H238138   1.938   6.324  14.836 -0.8119 -1.2643 -0.6768
 5575TIP3   OH238139   1.387   3.114  14.169  0.0946 -0.4709 -0.3010
 5575TIP3    H138140   1.386   3.068  14.085 -1.4884  1.3379 -1.3707
 5575TIP3    H238141   1.473   3.097  14.205  0.2548 -2.6003 -1.5487
 5576TIP3   OH238142   1.595   2.088  13.945 -0.2487 -0.4865  0.5464
 5576TIP3    H138143   1.651   2.165  13.932 -0.5717 -0.5105 -1.1173
 5576TIP3    H238144   1.638   2.041  14.017 -1.2903  2.3364  3.2825
 5577TIP3   OH238145   5.933   6.316  14.996  0.1677  0.5087  0.7600
 5577TIP3    H138146   5.975   6.363  14.925 -1.5344  0.0635 -0.6080
 5577TIP3    H238147   5.955   6.366  15.075  3.3471  0.1713  0.2010
 5578TIP3   OH238148   5.816   6.811   1.912 -0.0282  0.3418 -0.2024
 5578TIP3    H138149   5.806   6.762   1.993  0.1707  2.7484  1.3601
 5578TIP3    H238150   5.851   6.896   1.938 -0.4479  1.4143 -2.7480
 5579TIP3   OH238151   1.889   6.025   0.354  0.5383 -0.4537  0.3117
 5579TIP3    H138152   1.955   5.956   0.361 -0.1585 -0.9772  2.5283
 5579TIP3    H238153   1.921   6.094   0.412 -0.8064 -0.7149  1.4079
 5580TIP3   OH238154   0.304   1.683  10.583 -0.2530 -0.7213  0.7341
 5580TIP3    H138155   0.373   1.618  10.599 -0.2902 -1.4691 -1.6315
 5580TIP3    H238156   0.265   1.655  10.500 -1.9181  0.9750  0.8864
 5581TIP3   OH238157   3.248   0.121   2.415  1.0827 -0.1041 -0.1403
 5581TIP3    H138158   3.284   0.117   2.504 -0.1917  2.3341  0.5832
 5581TIP3    H238159   3.321   0.149   2.361  1.5252 -0.2131  0.3869
 5582TIP3   OH238160   2.671   6.189  11.523 -0.7926 -0.3038 -0.4577
 5582TIP3    H138161   2.588   6.215  11.565 -1.4589  0.5328 -2.2053
 5582TIP3    H238162   2.735   6.250  11.560 -0.5050 -2.0445  2.2307
 5583TIP3   OH238163   2.628   6.747  14.683 -0.1764 -0.2779 -0.7094
 5583TIP3    H138164   2.679   6.812  14.730 -2.0028  2.5426 -2.3016
 5583TIP3    H238165   2.602   6.791  14.602 -5.1141 -1.3531 -0.0224
 5584TIP3   OH238166   2.819   3.661  11.098  0.9221 -0.0341 -0.1138
 5584TIP3    H138167   2.794   3.715  11.173  0.6895  0.0428 -0.2464
 5584TIP3    H238168   2.878   3.716  11.048  0.8477  0.0221 -0.1399
 5585TIP3   OH238169   5.745   1.911  13.044  0.0983  0.5273  0.1038
 5585TIP3    H138170   5.817   1.939  12.986 -1.2933 -0.0765 -2.0419
 5585TIP3    H238171   5.787   1.854  13.108  1.6597  0.7351 -0.6775
 5586TIP3   OH238172   3.712   5.633   2.160  0.3594 -0.1431  0.2047
 5586TIP3    H138173   3.640   5.690   2.185  0.9490  0.3110  0.9235
 5586TIP3    H238174   3.791   5.681   2.187  0.9900 -0.1512 -1.5189
 5587TIP3   OH238175   6.016   5.342   3.732 -0.1522 -0.4469  1.1838
 5587TIP3    H138176   5.940   5.400   3.729 -0.3573 -0.7390  0.5967
 5587TIP3    H238177   5.978   5.254   3.725  0.2910 -0.5590 -0.1219
 5588TIP3   OH238178   6.567   6.213  15.084 -0.4084  0.7890 -0.2571
 5588TIP3    H138179   6.612   6.296  15.096 -0.2871  1.2751 -3.4020
 5588TIP3    H238180   6.613   6.170  15.012 -2.0671 -0.8414 -0.4273
 5589TIP3   OH238181   0.522   5.314  12.196  0.3263  0.3059 -0.6651
 5589TIP3    H138182   0.514   5.255  12.121  0.0517  1.1333 -1.2984
 5589TIP3    H238183   0.596   5.371  12.174 -0.2914  1.1168 -0.7241
 5590TIP3   OH238184   0.779   0.789  17.055  0.3812 -0.1458  0.4985
 5590TIP3    H138185   0.709   0.851  17.074  0.2879 -0.4794  1.3239
 5590TIP3    H238186   0.736   0.720  17.004  0.2176 -0.0941  0.5639
 5591TIP3   OH238187   1.962   3.659  14.329  0.1044  0.4715 -0.2044
 5591TIP3    H138188   1.932   3.678  14.240  3.2721  0.5487 -1.4018
 5591TIP3    H238189   1.937   3.568  14.344 -0.0002  0.2799 -1.4336
 5592TIP3   OH238190   4.524   0.688   4.597 -0.2954 -0.1966 -0.3451
 5592TIP3    H138191   4.448   0.668   4.543 -0.1786  2.1117 -1.4810
 5592TIP3    H238192   4.598   0.655   4.547 -0.2873  0.8842 -1.0792
 5593TIP3   OH238193   1.727   2.670  14.487  0.3292  0.5333 -0.1405
 5593TIP3    H138194   1.778   2.607  14.436 -0.0116  0.7512 -0.7550
 5593TIP3    H238195   1.639   2.632  14.491 -0.1522  1.4492 -1.4083
 5594TIP3   OH238196   3.081   0.067   4.033 -0.2817  0.2405  1.1988
 5594TIP3    H138197   3.089   0.050   3.939  0.4610  0.2231  1.2552
 5594TIP3    H238198   3.020   0.140   4.040 -0.4635  0.1391  0.7151
 5595TIP3   OH238199   3.193   6.361  12.721 -0.2781 -0.4752  0.6350
 5595TIP3    H138200   3.119   6.407  12.760  0.2268  0.2198  0.7994
 5595TIP3    H238201   3.163   6.339  12.633 -0.1089  1.3103  0.0871
 5596TIP3   OH238202   1.155   6.790  16.570 -0.3277 -0.3526  0.0705
 5596TIP3    H138203   1.107   6.797  16.488 -1.4689 -1.1147  0.6530
 5596TIP3    H238204   1.097   6.829  16.635  0.7691  0.6834  0.4608
 5597TIP3   OH238205   1.925   6.064   2.127  0.0462 -0.2997  0.4421
 5597TIP3    H138206   1.922   6.006   2.203  0.9668 -1.7265 -0.5484
 5597TIP3    H238207   1.907   6.151   2.162 -1.2174 -1.1466  2.0150
 5598TIP3   OH238208   1.890   3.996  12.814 -0.0964 -0.4901 -0.5180
 5598TIP3    H138209   1.851   3.973  12.730  1.4034  0.2017 -1.4358
 5598TIP3    H238210   1.877   4.091  12.822 -1.7143 -0.7700  0.8564
 5599TIP3   OH238211   5.744   2.226  11.775  0.3851 -0.7171  0.3231
 5599TIP3    H138212   5.677   2.281  11.815  0.4889 -2.0372  2.4456
 5599TIP3    H238213   5.701   2.190  11.697 -0.6602  0.0765  0.5053
 5600TIP3   OH238214   6.535   3.156  12.100  0.0079  0.0391  0.3116
 5600TIP3    H138215   6.564   3.240  12.064  0.8629 -1.5465 -3.0821
 5600TIP3    H238216   6.612   3.121  12.144  0.8830 -0.5339 -1.5568
 5601TIP3   OH238217   2.916   5.291  15.603 -0.9278  0.2567  0.3732
 5601TIP3    H138218   2.924   5.333  15.689  1.7133 -1.7879  1.2528
 5601TIP3    H238219   2.846   5.226  15.614 -0.6149  0.0156  0.9862
 5602TIP3   OH238220   2.327   6.494  13.562  0.0964 -0.4527  0.1589
 5602TIP3    H138221   2.285   6.430  13.619 -0.9704  0.5451  0.5393
 5602TIP3    H238222   2.378   6.549  13.620 -0.4313  0.1374  0.0739
 5603TIP3   OH238223   0.255   1.446   5.312 -0.7879  0.1877  0.0632
 5603TIP3    H138224   0.249   1.364   5.361  2.2451 -0.7430 -0.9096
 5603TIP3    H238225   0.165   1.462   5.281 -1.5679 -2.5241  0.6351
 5604TIP3   OH238226   1.794   2.026  12.572 -0.3109  0.1611  0.2315
 5604TIP3    H138227   1.743   1.951  12.540 -0.8460  0.3733  0.5678
 5604TIP3    H238228   1.819   2.074  12.493  0.9921 -0.9676 -0.0738
 5605TIP3   OH238229   2.388   1.502   4.086 -0.6782 -0.4003  0.1405
 5605TIP3    H138230   2.378   1.563   4.158 -1.9770 -0.6089  0.1660
 5605TIP3    H238231   2.319   1.437   4.099 -2.6353  0.9275 -2.6173
 5606TIP3   OH238232   0.933   5.036  15.518 -0.7389 -0.1363  0.0432
 5606TIP3    H138233   0.992   4.967  15.547 -0.2594 -0.1186 -0.8703
 5606TIP3    H238234   0.953   5.049  15.425  0.7246  2.6714  0.6107
 5607TIP3   OH238235   6.272   0.901  14.134 -0.8572 -0.6687 -0.0350
 5607TIP3    H138236   6.199   0.959  14.112  0.0317 -0.2530 -2.0667
 5607TIP3    H238237   6.261   0.826  14.076 -0.1092 -0.9582  0.1883
 5608TIP3   OH238238   6.301   5.457  16.908 -0.1585  0.0828 -0.2968
 5608TIP3    H138239   6.314   5.368  16.943  1.1780  0.6615  0.7593
 5608TIP3    H238240   6.240   5.498  16.969 -0.1384  0.1533 -0.3249
 5609TIP3   OH238241   0.877   0.843  11.921 -0.0729 -0.1732  0.2816
 5609TIP3    H138242   0.908   0.868  12.008 -0.3099 -1.7055  0.8504
 5609TIP3    H238243   0.957   0.823  11.872  0.3485  3.9165 -1.0492
 5610TIP3   OH238244   1.347   0.671   4.364  0.7729  0.0369 -0.2133
 5610TIP3    H138245   1.266   0.718   4.381 -0.2511 -1.2229 -1.3759
 5610TIP3    H238246   1.320   0.582   4.345  2.4446 -0.4486 -0.5305
 5611TIP3   OH238247   5.205   3.482  16.842  0.3385  0.0324  0.0050
 5611TIP3    H138248   5.137   3.414  16.850  0.0980  0.4964  3.4185
 5611TIP3    H238249   5.274   3.440  16.791 -1.4078 -1.3530 -1.3846
 5612TIP3   OH238250   5.166   3.469   3.204  0.2257 -0.1672  0.1307
 5612TIP3    H138251   5.224   3.508   3.270  0.9228  2.2018 -1.7319
 5612TIP3    H238252   5.225   3.421   3.146  0.3225  1.5897 -1.3162
 5613TIP3   OH238253   4.535   1.390   2.727  0.0339  0.0363  0.2842
 5613TIP3    H138254   4.546   1.347   2.811 -1.2746 -0.7025  0.0985
 5613TIP3    H238255   4.510   1.480   2.749 -3.5017 -0.9465  0.7893
 5614TIP3   OH238256   1.152   5.755   5.734 -0.1813  0.0159 -0.0069
 5614TIP3    H138257   1.151   5.673   5.783  0.8117 -0.6005 -0.9570
 5614TIP3    H238258   1.215   5.810   5.780 -0.7592  0.2170  0.5627
 5615TIP3   OH238259   2.939   1.136  11.979 -0.4870 -0.4046 -0.3319
 5615TIP3    H138260   3.018   1.100  12.019  0.4296 -1.7725 -3.0990
 5615TIP3    H238261   2.892   1.177  12.051  1.5831 -1.6068  1.8470
 5616TIP3   OH238262   5.311   6.322   2.946  0.3173 -0.1798  0.0038
 5616TIP3    H138263   5.308   6.400   2.891  1.4949 -0.4444 -0.4707
 5616TIP3    H238264   5.359   6.350   3.025  2.0110 -0.7439 -0.7770
 5617TIP3   OH238265   0.530   3.135  14.914  0.2691 -0.0641  0.0666
 5617TIP3    H138266   0.537   3.227  14.943 -0.8495 -0.4981  1.8838
 5617TIP3    H238267   0.438   3.125  14.890  0.3429 -0.7611  0.0752
 5618TIP3   OH238268   4.938   5.937   4.726 -0.3050 -0.3095 -0.1144
 5618TIP3    H138269   4.980   6.018   4.699  0.9667 -0.7401  0.4739
 5618TIP3    H238270   5.008   5.886   4.766 -1.3024 -1.2675  0.4781
 5619TIP3   OH238271   2.181   5.212  12.577  0.1474 -0.7461 -0.4224
 5619TIP3    H138272   2.181   5.239  12.486  0.4949 -1.0946 -0.5288
 5619TIP3    H238273   2.267   5.174  12.591  0.2224 -0.3768  0.1484
 5620TIP3   OH238274   4.567   3.043  16.069 -0.4150  0.0524  0.0439
 5620TIP3    H138275   4.485   3.015  16.109  0.9088  0.1229  3.0896
 5620TIP3    H238276   4.613   3.090  16.139  2.1261  0.1807 -1.5868
 5621TIP3   OH238277   1.839   6.135  14.317 -0.2219  0.5736 -0.1005
 5621TIP3    H138278   1.758   6.130  14.367  1.4635 -0.2671  2.7628
 5621TIP3    H238279   1.884   6.212  14.351  1.3887 -0.5473  0.4597
 5622TIP3   OH238280   2.109   3.976   2.433 -0.3375  0.0871 -0.2683
 5622TIP3    H138281   2.019   3.947   2.423  0.0539 -1.7007  0.8971
 5622TIP3    H238282   2.105   4.071   2.424 -2.2643  0.0047 -0.6495
 5623TIP3   OH238283   5.140   5.787   3.837 -0.1011 -0.4375 -0.2422
 5623TIP3    H138284   5.162   5.694   3.831  1.0682 -0.1660 -0.3063
 5623TIP3    H238285   5.179   5.826   3.759  1.4247  0.4796  0.9283
 5624TIP3   OH238286   4.767   1.145   5.749 -0.4885 -0.1049  0.1545
 5624TIP3    H138287   4.840   1.166   5.689 -0.5880 -0.3056 -0.0364
 5624TIP3    H238288   4.688   1.167   5.699 -0.5936 -0.8326 -0.0076
 5625TIP3   OH238289   3.449   4.863  13.705  0.3278 -0.3455  0.2565
 5625TIP3    H138290   3.356   4.879  13.692  0.3307  0.8613  1.4721
 5625TIP3    H238291   3.476   4.812  13.629 -0.7752  1.4948 -1.4610
 5626TIP3   OH238292   0.759   3.508  14.163  0.7642  0.5231  0.4398
 5626TIP3    H138293   0.846   3.484  14.132  1.7220  1.2400  2.4133
 5626TIP3    H238294   0.727   3.428  14.206  0.5319  0.3399 -0.0615
 5627TIP3   OH238295   6.209   5.012   0.732 -0.2538  0.1519 -0.5405
 5627TIP3    H138296   6.159   5.090   0.708  1.4843  1.8120  0.8905
 5627TIP3    H238297   6.188   4.997   0.824  0.2800 -0.4089 -0.5048
 5628TIP3   OH238298   1.198   2.530   1.408  0.6832 -0.0313  0.0504
 5628TIP3    H138299   1.122   2.499   1.458  0.9009 -1.9831 -0.7565
 5628TIP3    H238300   1.184   2.499   1.319  1.8077  0.7223 -0.4252
 5629TIP3   OH238301   0.871   5.340   0.772 -0.1360 -0.4185  0.2495
 5629TIP3    H138302   0.925   5.376   0.701 -2.6281  0.9010 -1.0936
 5629TIP3    H238303   0.809   5.283   0.727 -0.9549 -0.5563  1.5416
 5630TIP3   OH238304   5.111   1.552   5.223 -0.8111 -0.5995  0.6379
 5630TIP3    H138305   5.177   1.501   5.175  0.2342  0.4593  0.9107
 5630TIP3    H238306   5.042   1.568   5.159  0.4449  0.5783 -0.4990
 5631TIP3   OH238307   1.642   4.520   3.460  0.3661 -0.2260  0.1253
 5631TIP3    H138308   1.689   4.489   3.383 -0.9032 -1.7011 -0.1200
 5631TIP3    H238309   1.603   4.603   3.434  0.1123 -0.6172 -0.7548
 5632TIP3   OH238310   6.273   0.183   4.496  0.2927 -0.3619  0.1675
 5632TIP3    H138311   6.264   0.215   4.406 -0.9303 -0.1224  0.3632
 5632TIP3    H238312   6.367   0.169   4.507  0.6764  1.3064 -0.5835
 5633TIP3   OH238313   5.491   1.245   1.448 -0.1210 -0.0882 -0.2140
 5633TIP3    H138314   5.535   1.255   1.364  1.4421  2.1905  0.7819
 5633TIP3    H238315   5.399   1.232   1.425 -0.0772  2.4900 -2.2872
 5634TIP3   OH238316   1.586   4.778   5.842 -0.1974  0.0228 -0.0650
 5634TIP3    H138317   1.649   4.836   5.884  0.9412 -1.9824  1.1405
 5634TIP3    H238318   1.607   4.691   5.875 -1.6649 -1.1519 -1.9864
 5635TIP3   OH238319   4.515   5.973   3.191 -0.1944 -0.3673  0.4532
 5635TIP3    H138320   4.458   6.041   3.154  0.2105  0.1043  0.6959
 5635TIP3    H238321   4.576   6.020   3.247 -0.0839 -0.9620  0.8456
 5636TIP3   OH238322   2.087   4.445   4.948 -0.4596 -0.5390 -0.1098
 5636TIP3    H138323   2.066   4.428   4.856 -2.3366 -0.8635  0.3411
 5636TIP3    H238324   2.114   4.360   4.982  0.5746 -0.3497 -0.4201
 5637TIP3   OH238325   1.642   2.516  14.068 -0.3758 -0.2755  0.0355
 5637TIP3    H138326   1.667   2.490  13.980  1.5784  1.3484  0.0183
 5637TIP3    H238327   1.611   2.606  14.058  2.4464  0.9517  1.2506
 5638TIP3   OH238328   3.415   6.257   3.989 -0.4102 -0.0097  0.5687
 5638TIP3    H138329   3.407   6.348   3.960  0.6014 -0.1674 -0.2652
 5638TIP3    H238330   3.452   6.211   3.914 -1.3337 -1.2143  0.8238
 5639TIP3   OH238331   2.640   5.255  15.273 -0.2617 -0.3650 -0.3459
 5639TIP3    H138332   2.689   5.318  15.220  2.4918 -0.2774  2.1141
 5639TIP3    H238333   2.607   5.306  15.347 -1.7636 -1.0092 -0.5307
 5640TIP3   OH238334   0.350   2.114  16.461 -0.2767  0.2440  0.4875
 5640TIP3    H138335   0.433   2.157  16.483 -1.0376  1.6866  0.7064
 5640TIP3    H238336   0.370   2.021  16.463  0.9573  0.4773  2.2251
 5641TIP3   OH238337   1.511   3.785   0.346 -0.2828  0.0017 -0.7887
 5641TIP3    H138338   1.523   3.704   0.395  0.9872  0.1213 -0.8775
 5641TIP3    H238339   1.591   3.795   0.295 -0.9199  0.7041 -1.6917
 5642TIP3   OH238340   2.961   4.379   3.495 -0.5411  0.0283  0.4030
 5642TIP3    H138341   2.918   4.438   3.557  1.5721 -1.3223  3.4392
 5642TIP3    H238342   2.908   4.300   3.495 -0.6773  0.1202  0.3089
 5643TIP3   OH238343   6.194   2.136  12.658 -0.1310 -0.0666  0.8424
 5643TIP3    H138344   6.225   2.049  12.684 -0.1238 -0.0752  0.8041
 5643TIP3    H238345   6.126   2.157  12.723  0.6062  0.3553  1.4878
 5644TIP3   OH238346   0.133   1.562   3.286  0.1923  0.4538  0.3287
 5644TIP3    H138347   0.105   1.649   3.314  2.6937  1.3872  0.1539
 5644TIP3    H238348   0.089   1.549   3.201 -0.3518  1.4501  0.4435
 5645TIP3   OH238349   1.259   3.337   4.816 -0.1653 -0.0996  0.8488
 5645TIP3    H138350   1.330   3.368   4.873  1.9266 -0.9487 -1.0984
 5645TIP3    H238351   1.240   3.411   4.759 -0.7412  0.0694  1.2547
 5646TIP3   OH238352   4.228   2.718  14.472  0.1583  0.3900 -0.1807
 5646TIP3    H138353   4.245   2.727  14.566  0.3277 -2.8085  0.1975
 5646TIP3    H238354   4.133   2.727  14.464  0.1023  0.2973  0.3416
 5647TIP3   OH238355   6.186   0.655   6.195  0.3833 -0.4906  0.0432
 5647TIP3    H138356   6.215   0.586   6.136  0.0030 -0.4513 -0.1923
 5647TIP3    H238357   6.126   0.612   6.255  0.5756 -0.4784  0.2452
 5648TIP3   OH238358   0.292   5.958  13.890  0.2881 -0.2175  0.1498
 5648TIP3    H138359   0.236   5.903  13.835 -1.0296  1.5960 -0.4118
 5648TIP3    H238360   0.378   5.954  13.849  0.1873 -1.6888  0.0308
 5649TIP3   OH238361   0.528   0.003  11.682  0.4523 -0.6411  0.3448
 5649TIP3    H138362   0.492   0.043  11.761 -0.2537 -1.2381  0.3351
 5649TIP3    H238363   0.600  -0.052  11.715  1.4348  0.5995  0.3567
 5650TIP3   OH238364   2.488   1.008   3.071 -0.1787 -0.3182 -0.0185
 5650TIP3    H138365   2.433   1.006   3.150  0.1248 -0.0647  0.2048
 5650TIP3    H238366   2.426   1.012   2.998 -0.4512  0.8240  0.2566
 5651TIP3   OH238367   2.824   2.460   2.575 -0.7471  0.2985  0.1824
 5651TIP3    H138368   2.743   2.450   2.626  0.3676 -1.6950  1.6598
 5651TIP3    H238369   2.882   2.510   2.632  0.1673 -1.0807  0.4868
 5652TIP3   OH238370   3.092   5.819   1.086  0.2901  0.1549 -0.3538
 5652TIP3    H138371   3.155   5.885   1.114 -0.6673  0.6130  0.8040
 5652TIP3    H238372   3.073   5.841   0.994  0.7058  0.8898 -0.2674
 5653TIP3   OH238373   2.738   2.734  16.323  0.1736 -0.1087  0.3243
 5653TIP3    H138374   2.749   2.647  16.283 -0.8680 -0.3389  0.5248
 5653TIP3    H238375   2.758   2.721  16.415 -2.1556 -0.6642  0.8128
 5654TIP3   OH238376   5.071   3.925  16.886 -0.5227  0.0035 -0.3450
 5654TIP3    H138377   5.153   3.974  16.886  0.0018 -0.8567  0.3339
 5654TIP3    H238378   5.014   3.973  16.825 -0.5742  2.3439  1.4201
 5655TIP3   OH238379   4.570   5.736   3.761 -0.0393 -0.7078 -0.3851
 5655TIP3    H138380   4.630   5.811   3.757  0.3282 -1.0232 -0.7968
 5655TIP3    H238381   4.484   5.774   3.745 -0.1586 -0.0328  1.5265
 5656TIP3   OH238382   2.354   2.564   2.010  0.1163 -0.0241 -0.1403
 5656TIP3    H138383   2.330   2.540   1.920 -1.6107  1.0223 -0.0124
 5656TIP3    H238384   2.443   2.531   2.021 -0.1724 -1.4773 -1.7288
 5657TIP3   OH238385   5.497   5.822   0.488 -0.0117  0.1802  0.6692
 5657TIP3    H138386   5.574   5.807   0.543  0.4077  2.4032  0.7873
 5657TIP3    H238387   5.440   5.748   0.505  2.1081 -1.5841  0.5498
 5658TIP3   OH238388   3.475   1.472  15.315 -0.0579 -0.3777 -0.5560
 5658TIP3    H138389   3.381   1.456  15.311 -0.2557  0.7457 -0.7647
 5658TIP3    H238390   3.485   1.540  15.382  0.5989 -0.4687 -0.5572
 5659TIP3   OH238391   3.146   1.589   1.201 -0.1741  0.1769 -0.3973
 5659TIP3    H138392   3.087   1.516   1.185  0.1897 -0.7218  1.9839
 5659TIP3    H238393   3.099   1.646   1.261  0.0938  1.2258 -1.1521
 5660TIP3   OH238394   2.674   1.365  14.289  0.3921  0.2195  0.3590
 5660TIP3    H138395   2.588   1.388  14.254  0.2023  0.2137  0.8070
 5660TIP3    H238396   2.658   1.287  14.342 -0.0690  2.2331  3.4282
 5661TIP3   OH238397   0.956   0.773   0.635 -0.8749 -0.4656 -0.1640
 5661TIP3    H138398   1.029   0.814   0.681 -1.5981  1.9709 -0.9960
 5661TIP3    H238399   0.989   0.756   0.547 -1.0079 -0.3112 -0.2441
 5662TIP3   OH238400   3.276   0.947   2.584 -0.5661 -0.0912 -0.2841
 5662TIP3    H138401   3.223   0.951   2.663 -2.4500 -0.1831 -1.4864
 5662TIP3    H238402   3.215   0.923   2.515  0.8096  0.9820 -1.9575
 5663TIP3   OH238403   4.096   0.981   5.006  0.6775  0.0249 -0.0686
 5663TIP3    H138404   4.076   0.898   5.050  0.2734  0.3482  0.3622
 5663TIP3    H238405   4.025   0.993   4.944 -0.0236  0.7199  0.8283
 5664TIP3   OH238406   5.974   2.893   4.071 -0.1549 -0.2672 -0.4219
 5664TIP3    H138407   5.881   2.902   4.092 -0.4670  2.2578 -2.4173
 5664TIP3    H238408   6.018   2.955   4.130  0.3459 -1.6619  0.7166
 5665TIP3   OH238409   1.178   2.016  13.734 -0.6449 -0.4931 -0.3699
 5665TIP3    H138410   1.258   2.055  13.769  0.1023 -1.0690 -1.4050
 5665TIP3    H238411   1.116   2.089  13.731  0.4169  0.4141 -1.3049
 5666TIP3   OH238412   3.850   5.050  16.825  0.2618 -0.4364 -0.1411
 5666TIP3    H138413   3.782   5.057  16.892  1.3278 -0.4017  0.9552
 5666TIP3    H238414   3.929   5.025  16.872  0.9980 -0.6143 -1.4125
 5667TIP3   OH238415   6.734   4.430  15.583 -0.0124 -0.0758  0.2604
 5667TIP3    H138416   6.683   4.507  15.558  1.3458  0.5342 -0.7623
 5667TIP3    H238417   6.824   4.451  15.556  0.0650 -2.9045 -2.1769
 5668TIP3   OH238418   5.694   4.479   0.625 -0.2174  0.4960  0.2614
 5668TIP3    H138419   5.664   4.537   0.554 -0.5922  0.5828  0.4854
 5668TIP3    H238420   5.738   4.537   0.686  0.3443  0.3800 -0.0302
 5669TIP3   OH238421   6.396   0.584   1.044 -0.0501  0.5991 -0.1910
 5669TIP3    H138422   6.378   0.518   0.976  0.0640  1.4096 -1.0354
 5669TIP3    H238423   6.488   0.570   1.067 -0.4412 -0.5472  0.7890
 5670TIP3   OH238424   0.737   6.171  16.701 -0.2791 -0.1193  0.1365
 5670TIP3    H138425   0.791   6.239  16.741  2.5660 -1.6603 -0.7749
 5670TIP3    H238426   0.757   6.092  16.751 -1.7525 -0.7617 -0.2437
 5671TIP3   OH238427   1.403   5.272   2.460  0.2247 -0.1893  0.3917
 5671TIP3    H138428   1.457   5.193   2.464 -0.4149 -0.5875  1.6845
 5671TIP3    H238429   1.419   5.317   2.543 -0.0220  0.6366  0.0011
 5672TIP3   OH238430   4.790   5.147   0.017  0.0589 -0.6449 -0.1227
 5672TIP3    H138431   4.785   5.051   0.018 -0.6888 -0.6130  0.9665
 5672TIP3    H238432   4.699   5.176   0.011 -0.0661 -0.0347  3.1182
 5673TIP3   OH238433   1.068   1.230   3.793 -0.2316  0.0591  0.3708
 5673TIP3    H138434   1.064   1.313   3.747  0.8795 -0.2388 -0.3043
 5673TIP3    H238435   0.978   1.196   3.791 -0.6459  1.1319  0.4783
 5674TIP3   OH238436   1.604   5.390  11.470 -0.3604  0.1878 -0.0033
 5674TIP3    H138437   1.570   5.402  11.558  0.1605  1.0616  0.0834
 5674TIP3    H238438   1.660   5.312  11.476 -1.8177 -0.9023 -0.0130
 5675TIP3   OH238439   3.370   0.696  11.673  0.4078 -0.0597  0.1034
 5675TIP3    H138440   3.390   0.715  11.764  0.4213 -0.3017  0.1516
 5675TIP3    H238441   3.276   0.710  11.665  0.5003  0.5220  0.0148
 5676TIP3   OH238442   2.973   4.047   2.761  0.4409  0.2419  0.5587
 5676TIP3    H138443   3.015   4.033   2.676  0.2133  3.1837 -0.1539
 5676TIP3    H238444   3.046   4.053   2.823  0.7169 -0.1088  0.2759
 5677TIP3   OH238445   0.148   1.803   0.420  0.0215 -0.3538  0.6079
 5677TIP3    H138446   0.068   1.856   0.416 -0.9280 -1.8137 -0.8060
 5677TIP3    H238447   0.217   1.861   0.389 -0.9012  0.2267 -0.4047
 5678TIP3   OH238448   1.335   5.128   1.047 -0.1357  0.5423  0.2652
 5678TIP3    H138449   1.354   5.063   0.980 -0.0383  1.1740 -0.3270
 5678TIP3    H238450   1.384   5.098   1.124  0.1535  0.0828 -0.0940
 5679TIP3   OH238451   1.038   5.656   3.389 -0.1096  0.3469  0.1411
 5679TIP3    H138452   1.130   5.682   3.388 -0.5521  2.0624 -1.1474
 5679TIP3    H238453   1.036   5.577   3.444  2.0697  0.3902  0.3838
 5680TIP3   OH238454   6.371   2.872   0.936 -0.4627  0.7850 -0.3348
 5680TIP3    H138455   6.410   2.886   0.850  1.4266  0.2631  0.3770
 5680TIP3    H238456   6.363   2.777   0.944 -1.1842  0.8568 -0.1527
 5681TIP3   OH238457   0.048   0.819   1.169 -0.2760 -0.0729 -0.1188
 5681TIP3    H138458   0.128   0.766   1.179 -0.5064 -0.4087 -0.0143
 5681TIP3    H238459   0.063   0.872   1.091  0.6830  1.0036  0.7707
 5682TIP3   OH238460   0.841   0.567  14.169 -0.0182  0.1325  0.6747
 5682TIP3    H138461   0.924   0.599  14.134 -0.6712  1.5375  0.3215
 5682TIP3    H238462   0.846   0.585  14.263  0.7867 -1.4829  0.9790
 5683TIP3   OH238463   1.598   3.426  16.710 -0.4650 -0.1048  0.4908
 5683TIP3    H138464   1.613   3.519  16.696 -1.2265 -0.2695 -2.0138
 5683TIP3    H238465   1.506   3.420  16.738 -1.0198 -0.1309 -1.1541
 5684TIP3   OH238466   0.733   4.326  12.187  0.4379  0.7357 -0.1810
 5684TIP3    H138467   0.652   4.311  12.235  0.0486  1.8713 -0.4747
 5684TIP3    H238468   0.736   4.420  12.172  0.5440  0.4340 -2.4196
 5685TIP3   OH238469   3.259   5.999   1.174 -0.6580 -0.1557  0.1367
 5685TIP3    H138470   3.216   6.058   1.112 -0.8794  1.0382  1.3801
 5685TIP3    H238471   3.322   6.054   1.220  1.1063 -1.5190 -0.5276
 5686TIP3   OH238472   4.419   4.164  10.636 -0.1020  0.2389  0.4345
 5686TIP3    H138473   4.408   4.259  10.630  0.7717  0.4886  2.1085
 5686TIP3    H238474   4.493   4.152  10.695  0.6592 -1.4946 -0.7951
 5687TIP3   OH238475   4.834   1.548  14.911 -0.2030  0.3269  0.1291
 5687TIP3    H138476   4.892   1.500  14.971 -0.7334  1.5060  1.6379
 5687TIP3    H238477   4.801   1.480  14.852  1.7932 -0.5692 -0.0566
 5688TIP3   OH238478   0.607   1.506   3.190  0.0117  0.2457  0.7080
 5688TIP3    H138479   0.629   1.431   3.134  0.7896  0.8214  0.2278
 5688TIP3    H238480   0.542   1.554   3.138 -0.4799 -0.0784  1.0122
 5689TIP3   OH238481   1.459   4.002   1.312 -0.3131  0.2886  0.1877
 5689TIP3    H138482   1.552   4.003   1.334 -0.2887  0.6873  0.0708
 5689TIP3    H238483   1.450   4.068   1.243 -1.0381  1.7589  1.6199
 5690TIP3   OH238484   1.586   4.186  12.736 -0.1247 -0.3788  0.2375
 5690TIP3    H138485   1.639   4.257  12.700 -1.8898  0.8736 -0.0099
 5690TIP3    H238486   1.593   4.116  12.672 -1.3605  0.9762 -1.4838
 5691TIP3   OH238487   5.558   5.133   0.679 -0.6760  0.3342  0.2706
 5691TIP3    H138488   5.591   5.117   0.768  0.5542  1.0434 -0.0258
 5691TIP3    H238489   5.573   5.227   0.665  1.9277 -0.2655 -1.7229
 5692TIP3   OH238490   1.634   5.839   5.170 -0.2216  0.2110 -0.0898
 5692TIP3    H138491   1.580   5.804   5.241 -1.3822 -1.1468 -1.5761
 5692TIP3    H238492   1.581   5.909   5.131  0.1032  0.4624 -0.0909
 5693TIP3   OH238493   6.180   6.003   6.184  0.7520  0.5098  0.1132
 5693TIP3    H138494   6.229   6.057   6.246  1.1028 -0.8672  1.1053
 5693TIP3    H238495   6.248   5.953   6.138  0.3672 -0.2639  0.3732
 5694TIP3   OH238496   6.260   0.857   5.428 -0.5726 -0.2971 -0.2356
 5694TIP3    H138497   6.189   0.806   5.469 -1.1791  0.2268 -0.6120
 5694TIP3    H238498   6.215   0.926   5.380  0.2552  1.1740  0.9976
 5695TIP3   OH238499   6.545   4.346   4.326  0.0456 -1.3281  0.6461
 5695TIP3    H138500   6.596   4.281   4.375  0.1115 -1.3710  0.5220
 5695TIP3    H238501   6.586   4.430   4.348  1.4022 -1.5121 -0.9027
 5696TIP3   OH238502   1.626   1.311  13.317 -0.4349  0.5320 -0.1608
 5696TIP3    H138503   1.608   1.254  13.391  0.0239  2.5016  1.5685
 5696TIP3    H238504   1.690   1.263  13.264  1.4746  0.2125  2.2787
 5697TIP3   OH238505   4.684   3.293   1.778  0.8393 -0.1200 -0.3818
 5697TIP3    H138506   4.685   3.367   1.717 -1.4436  0.1471 -0.1748
 5697TIP3    H238507   4.680   3.334   1.865  1.2575 -0.5012 -0.1775
 5698TIP3   OH238508   2.518   1.237   4.904 -0.0020  0.2835  0.3732
 5698TIP3    H138509   2.442   1.287   4.876  0.8668  1.0946 -0.6351
 5698TIP3    H238510   2.512   1.155   4.855  0.0384  0.5577 -0.0971
 5699TIP3   OH238511   3.194   6.793   4.911 -0.0448  0.4404 -0.1080
 5699TIP3    H138512   3.237   6.822   4.831 -0.2110 -1.7926 -1.0797
 5699TIP3    H238513   3.101   6.799   4.892 -0.1133  1.0679  0.3873
 5700TIP3   OH238514   1.697   5.684  16.633 -0.5327  0.3357 -0.3639
 5700TIP3    H138515   1.705   5.772  16.595 -1.5031  0.3215 -0.6505
 5700TIP3    H238516   1.697   5.626  16.557  2.3621 -0.1629 -0.0964
 5701TIP3   OH238517   0.979   0.410   0.548 -0.4729  1.1180  0.6776
 5701TIP3    H138518   0.904   0.462   0.519 -0.6066  0.4359 -0.2166
 5701TIP3    H238519   1.026   0.387   0.468 -1.2845 -1.4680  0.8457
 5702TIP3   OH238520   1.674   0.339  15.059 -0.3462  0.2542 -0.3487
 5702TIP3    H138521   1.609   0.348  14.989  0.5290  2.5154 -0.9513
 5702TIP3    H238522   1.647   0.401  15.126  1.2301  1.3552 -0.6769
 5703TIP3   OH238523   3.606   2.386   0.918 -0.7342 -0.1944  0.0109
 5703TIP3    H138524   3.636   2.299   0.890  1.9917  0.6304  0.1181
 5703TIP3    H238525   3.625   2.388   1.012 -1.3953  0.3009  0.1406
 5704TIP3   OH238526   2.602   0.524  16.843 -0.0299 -0.0344 -0.5149
 5704TIP3    H138527   2.680   0.507  16.897  1.0477  0.8259 -1.7472
 5704TIP3    H238528   2.581   0.439  16.804 -0.1300 -0.4168  0.3399
 5705TIP3   OH238529   4.592   3.571   4.886  0.1988  0.1193 -0.0624
 5705TIP3    H138530   4.498   3.584   4.892  0.0947  0.1183 -1.4063
 5705TIP3    H238531   4.629   3.659   4.894  0.0480  0.1827 -0.0659
 5706TIP3   OH238532   0.871   1.382  12.061 -0.5062  0.5703 -0.0538
 5706TIP3    H138533   0.931   1.309  12.075 -0.3479  0.5505 -0.7847
 5706TIP3    H238534   0.892   1.444  12.131  2.2194  1.7564 -1.7341
 5707TIP3   OH238535   0.152   1.435  12.414 -0.2467  0.4402  0.2020
 5707TIP3    H138536   0.113   1.404  12.496 -2.2690  0.8859 -0.5513
 5707TIP3    H238537   0.131   1.367  12.350  2.6579 -0.6953  0.2702
 5708TIP3   OH238538   2.897   1.051   4.609 -0.6623 -0.2990  0.2572
 5708TIP3    H138539   2.816   1.096   4.633 -0.2450  0.7458 -0.2333
 5708TIP3    H238540   2.883   1.024   4.518 -0.7171 -0.7288  0.3907
 5709TIP3   OH238541   6.029   5.668   2.154 -0.3675 -0.3987 -0.3035
 5709TIP3    H138542   5.969   5.724   2.203  1.2536  1.1320  0.0556
 5709TIP3    H238543   6.010   5.686   2.062 -0.5899 -0.0844 -0.1948
 5710TIP3   OH238544   3.605   1.196   0.940 -0.1114  0.2324  0.0134
 5710TIP3    H138545   3.691   1.215   0.902 -0.2217  0.2898 -0.2112
 5710TIP3    H238546   3.544   1.207   0.867 -0.3667  0.6852  0.2922
 5711TIP3   OH238547   3.372   0.715   2.780  0.6333  0.1848 -0.0192
 5711TIP3    H138548   3.305   0.728   2.848  0.0377 -1.4182 -0.2730
 5711TIP3    H238549   3.402   0.804   2.760 -2.8992  1.2173 -1.3967
 5712TIP3   OH238550   0.028   6.652   5.125 -0.3457 -0.2900 -0.2880
 5712TIP3    H138551   0.096   6.715   5.101  0.1652 -0.4582  0.6668
 5712TIP3    H238552  -0.054   6.698   5.107  0.0191  0.1256 -0.9152
 5713TIP3   OH238553   3.669   2.691   5.802 -0.4207 -0.0571  0.1801
 5713TIP3    H138554   3.665   2.597   5.782 -1.3094  0.2757 -1.3530
 5713TIP3    H238555   3.712   2.695   5.888  0.5821 -1.7969 -0.1756
 5714TIP3   OH238556   2.253   4.576  15.487  0.0222  0.1668 -0.5561
 5714TIP3    H138557   2.219   4.487  15.473  1.6720 -0.3502 -1.6336
 5714TIP3    H238558   2.216   4.627  15.415  0.9626 -0.2673 -1.3958
 5715TIP3   OH238559   3.642   4.669   1.708  0.1581  0.0837 -0.2505
 5715TIP3    H138560   3.583   4.692   1.636 -1.2601  1.3745  1.2316
 5715TIP3    H238561   3.682   4.753   1.733 -0.3215 -0.1086  1.2388
 5716TIP3   OH238562   2.074   1.874  10.635  0.3648 -0.2958 -0.4460
 5716TIP3    H138563   2.014   1.930  10.585 -1.0436 -0.8425  0.5968
 5716TIP3    H238564   2.131   1.836  10.568 -0.3155  0.3732 -1.4434
 5717TIP3   OH238565   1.510   5.634  11.218 -0.6571  0.1436  0.8428
 5717TIP3    H138566   1.516   5.542  11.192 -1.7984  0.3335 -0.1651
 5717TIP3    H238567   1.599   5.668  11.208 -0.5599 -0.4244 -0.4294
 5718TIP3   OH238568   0.398   2.903  11.399 -0.4590  0.0941 -0.1739
 5718TIP3    H138569   0.342   2.948  11.335 -0.1177  0.0248 -0.5237
 5718TIP3    H238570   0.431   2.974  11.456 -3.0857 -0.1142  1.8118
 5719TIP3   OH238571   4.083   3.851  15.365  0.3568 -0.4075 -0.1639
 5719TIP3    H138572   4.091   3.901  15.283  0.3976 -2.3951 -1.4435
 5719TIP3    H238573   4.127   3.768  15.346  1.4746 -0.4542  2.3282
 5720TIP3   OH238574   4.495   3.255  12.071 -0.0693 -0.0963 -0.7089
 5720TIP3    H138575   4.552   3.181  12.091 -1.1805 -0.9910 -0.7229
 5720TIP3    H238576   4.554   3.325  12.043  0.9464 -1.3467 -1.8129
 5721TIP3   OH238577   1.587   1.587  13.876  0.2013  0.4918  0.0135
 5721TIP3    H138578   1.606   1.578  13.783  0.6550 -1.2745  0.2316
 5721TIP3    H238579   1.533   1.511  13.897  1.3784  0.0066  1.4767
 5722TIP3   OH238580   4.436   2.593   1.079  0.6632 -0.1226  0.2204
 5722TIP3    H138581   4.463   2.526   1.141  2.7013 -1.1498 -1.6237
 5722TIP3    H238582   4.496   2.666   1.095 -0.1673  0.4436  0.8133
 5723TIP3   OH238583   4.975   5.360   6.095 -0.1852 -0.0658  0.0020
 5723TIP3    H138584   4.953   5.315   6.176  0.7388  1.4163  1.1387
 5723TIP3    H238585   4.984   5.452   6.120  1.1958  0.2863 -1.5580
 5724TIP3   OH238586   6.511   4.019  10.956  0.3372  0.1413 -0.0153
 5724TIP3    H138587   6.422   4.045  10.930  0.5379  1.9149  0.9673
 5724TIP3    H238588   6.549   3.984  10.876 -0.9472  0.1675 -0.6738
 5725TIP3   OH238589   6.635   3.240   3.837 -0.1189  0.0936 -0.4501
 5725TIP3    H138590   6.690   3.310   3.872 -0.3527  0.2818 -0.4533
 5725TIP3    H238591   6.551   3.283   3.818  0.3647  0.2941 -2.3719
 5726TIP3   OH238592   6.720   1.411  16.872 -0.2177  0.5410  0.1925
 5726TIP3    H138593   6.777   1.372  16.939 -0.4891 -0.5598 -0.1883
 5726TIP3    H238594   6.773   1.481  16.834  2.0044 -2.0560 -1.9445
 5727TIP3   OH238595   0.863   1.770  10.554  0.1489 -0.1781 -0.1763
 5727TIP3    H138596   0.853   1.780  10.459 -1.3228 -0.7073 -0.1012
 5727TIP3    H238597   0.953   1.740  10.566 -0.3488 -2.4015 -1.6083
 5728TIP3   OH238598   3.224   5.485  13.746 -0.2728 -0.6674 -0.1508
 5728TIP3    H138599   3.237   5.556  13.683 -1.6645 -0.7521 -0.5579
 5728TIP3    H238600   3.166   5.521  13.813  0.0373 -1.0312  0.3280
 5729TIP3   OH238601   3.387   1.769   1.064  0.0356  0.4175  0.0921
 5729TIP3    H138602   3.305   1.744   1.022 -0.2001  1.0797  0.1509
 5729TIP3    H238603   3.362   1.799   1.151  0.1910  1.7638 -0.3071
 5730TIP3   OH238604   5.148   5.255   0.298  0.1502  0.0577 -0.2569
 5730TIP3    H138605   5.135   5.273   0.205  1.1422 -0.7868 -0.5806
 5730TIP3    H238606   5.128   5.162   0.308  0.0635  0.1396  0.3685
 5731TIP3   OH238607   1.212   4.484   1.645  0.2594 -0.4576  0.3202
 5731TIP3    H138608   1.132   4.495   1.697 -0.0439 -0.3067 -0.1754
 5731TIP3    H238609   1.221   4.390   1.633 -0.6540 -0.4221 -0.8580
 5732TIP3   OH238610   0.021   1.811   3.339 -0.2089  0.3573  0.3985
 5732TIP3    H138611   0.062   1.851   3.416  0.3869 -0.9292  0.7800
 5732TIP3    H238612  -0.073   1.817   3.356 -0.0736 -0.5427  1.5843
 5733TIP3   OH238613   4.044   5.039  11.344  0.0484  0.5414  0.2635
 5733TIP3    H138614   4.001   4.958  11.317  0.4808  0.3500  0.1410
 5733TIP3    H238615   3.975   5.106  11.339 -0.3397  0.1615  0.4890
 5734TIP3   OH238616   5.954   5.694   3.278  0.2128 -0.5193  0.7548
 5734TIP3    H138617   5.978   5.628   3.342 -0.7439 -1.5781  0.0636
 5734TIP3    H238618   5.924   5.644   3.202  1.1085  0.6963 -0.4414
 5735TIP3   OH238619   3.074   2.020  15.698 -0.4927 -0.5067  0.1491
 5735TIP3    H138620   3.015   2.032  15.624 -1.2132 -1.1520  0.6020
 5735TIP3    H238621   3.091   2.109  15.730 -0.9240 -0.2926 -0.2074
 5736TIP3   OH238622   0.345   3.194   3.295 -0.1894  0.1556  0.0881
 5736TIP3    H138623   0.384   3.107   3.305  0.1747  0.4676  1.7437
 5736TIP3    H238624   0.262   3.189   3.344 -0.3324  0.6400 -0.0980
 5737TIP3   OH238625   6.582   0.919   4.450 -0.1698 -0.1418  0.5749
 5737TIP3    H138626   6.596   0.995   4.508 -0.6803  1.5555 -1.3851
 5737TIP3    H238627   6.492   0.930   4.418  0.1399 -0.9121 -0.6259
 5738TIP3   OH238628   3.783   1.634  14.348  0.4203 -0.1605  0.6789
 5738TIP3    H138629   3.837   1.557  14.369 -0.0873 -0.0567  2.6207
 5738TIP3    H238630   3.844   1.708  14.353  0.7226 -0.3376 -0.2759
 5739TIP3   OH238631   3.861   6.107   2.003  0.5248  0.6125 -0.3521
 5739TIP3    H138632   3.781   6.108   1.951  0.9508 -0.8106 -1.0964
 5739TIP3    H238633   3.846   6.170   2.073 -0.1029  2.5463 -2.1483
 5740TIP3   OH238634   1.075   1.000  16.590  0.1284  0.1031  0.5458
 5740TIP3    H138635   1.054   1.088  16.621 -3.2415 -0.3981  0.0756
 5740TIP3    H238636   1.101   1.012  16.499 -0.6318  0.6199  0.3855
 5741TIP3   OH238637   4.111   1.569   5.609 -0.0137 -0.1224 -0.3105
 5741TIP3    H138638   4.142   1.537   5.524 -0.3254  0.0424 -0.4872
 5741TIP3    H238639   4.169   1.642   5.629 -0.0155 -0.0862 -0.4368
 5742TIP3   OH238640   1.674   0.234  14.417  0.0800  0.2773 -0.4189
 5742TIP3    H138641   1.703   0.157  14.464 -1.2027 -0.5959 -0.9920
 5742TIP3    H238642   1.754   0.284  14.399  0.5132  1.8828  4.5819
 5743TIP3   OH238643   6.200   3.204  11.186 -0.3550 -0.2495  0.5745
 5743TIP3    H138644   6.108   3.196  11.161 -1.1489  0.2358  3.1214
 5743TIP3    H238645   6.218   3.297  11.180  0.3296 -0.4422 -0.9062
 5744TIP3   OH238646   5.039   5.586   2.145  0.4684 -0.4128 -0.2272
 5744TIP3    H138647   5.109   5.638   2.184  1.4178 -1.2602 -0.7434
 5744TIP3    H238648   4.965   5.646   2.139  1.7701  1.1498 -1.6137
 5745TIP3   OH238649   0.748   2.466   1.246  0.3069 -0.4842  0.4374
 5745TIP3    H138650   0.721   2.470   1.338 -0.0831  0.5925  0.2897
 5745TIP3    H238651   0.835   2.508   1.245  0.0775 -0.0038  0.2410
 5746TIP3   OH238652   2.254   5.400   0.326 -0.4327 -0.0306  0.3757
 5746TIP3    H138653   2.172   5.407   0.375  0.5133  0.5084  1.9399
 5746TIP3    H238654   2.275   5.490   0.302 -0.4685 -0.2083 -0.3401
 5747TIP3   OH238655   6.447   2.734   2.172  0.3672  0.1353 -0.0839
 5747TIP3    H138656   6.407   2.667   2.118 -0.5089 -0.0055  0.7015
 5747TIP3    H238657   6.513   2.775   2.116  0.1475 -0.6348 -0.9235
 5748TIP3   OH238658   2.240   2.876  13.143  0.0359 -0.0033  0.6207
 5748TIP3    H138659   2.228   2.919  13.228 -0.6327 -0.5575  0.8280
 5748TIP3    H238660   2.152   2.845  13.120 -0.1547  1.6374 -1.1146
 5749TIP3   OH238661   1.915   6.415  10.494  0.1448 -0.3237 -0.2511
 5749TIP3    H138662   1.985   6.438  10.432  0.3729  4.3253  1.3717
 5749TIP3    H238663   1.835   6.447  10.453 -0.0030  0.7419  0.8139
 5750TIP3   OH238664   6.130   2.444  12.946 -0.3789  1.1395 -0.6023
 5750TIP3    H138665   6.063   2.444  12.878 -0.7203  2.4155 -0.3064
 5750TIP3    H238666   6.123   2.532  12.985 -0.3330  0.3769  1.2077
 5751TIP3   OH238667   5.165   2.278   4.425 -0.3906 -0.4135 -0.1816
 5751TIP3    H138668   5.192   2.350   4.481 -0.3901  1.3126 -2.2842
 5751TIP3    H238669   5.070   2.289   4.415 -0.6894 -1.7938  0.8976
 5752TIP3   OH238670   0.853   6.337   5.373 -0.4505 -0.0211  0.2637
 5752TIP3    H138671   0.911   6.373   5.440 -0.4980  0.3154  0.1271
 5752TIP3    H238672   0.800   6.412   5.344 -0.5141 -0.1900 -0.0624
 5753TIP3   OH238673   2.775   4.559  15.389  1.0036 -0.5732 -0.0725
 5753TIP3    H138674   2.736   4.645  15.407  1.7355 -0.8378  3.6022
 5753TIP3    H238675   2.700   4.504  15.363 -0.5870 -0.1071  3.0191
 5754TIP3   OH238676   4.008   2.297   2.503  0.0953  0.0598 -0.2316
 5754TIP3    H138677   4.029   2.208   2.530  0.6529  0.4444  0.6950
 5754TIP3    H238678   4.012   2.296   2.408 -0.0072 -0.9211 -0.2340
 5755TIP3   OH238679   5.769   1.131   0.917  0.0397  0.0333  0.3613
 5755TIP3    H138680   5.714   1.207   0.934  1.0402  0.4820  1.8387
 5755TIP3    H238681   5.853   1.152   0.958  1.6054 -0.3051 -2.4396
 5756TIP3   OH238682   4.377   6.613  11.387  0.3604  0.0858  0.3084
 5756TIP3    H138683   4.385   6.535  11.332  1.1899 -0.5518  1.2925
 5756TIP3    H238684   4.299   6.598  11.439  0.7769 -0.3047  0.8232
 5757TIP3   OH238685   1.925   1.590  16.107  0.1208  0.1305 -0.7828
 5757TIP3    H138686   1.941   1.505  16.067  1.9744  0.0615  0.0038
 5757TIP3    H238687   1.833   1.587  16.135  0.0385 -1.4308 -1.1432
 5758TIP3   OH238688   4.082   3.798   2.847  0.5167  0.2391  0.3671
 5758TIP3    H138689   4.007   3.775   2.901  1.8594 -0.4242  2.0658
 5758TIP3    H238690   4.070   3.891   2.827 -0.6801  0.1682  0.7187
 5759TIP3   OH238691   3.257   2.424   4.833 -0.8092 -0.3139 -0.1790
 5759TIP3    H138692   3.288   2.376   4.910  2.0599  0.3806 -0.7608
 5759TIP3    H238693   3.207   2.497   4.869 -0.9136 -0.9207  0.9459
 5760TIP3   OH238694   0.178   0.728  10.591  0.1561  0.1271  0.0936
 5760TIP3    H138695   0.085   0.748  10.591  0.6504  2.8828  1.5271
 5760TIP3    H238696   0.201   0.721  10.498 -1.3402  0.0111 -0.2889
 5761TIP3   OH238697   4.061   0.775  16.974 -0.1932 -0.5370  0.5364
 5761TIP3    H138698   4.096   0.862  16.957 -0.6467 -0.9756 -3.5642
 5761TIP3    H238699   4.136   0.716  16.961 -0.8073 -0.9878 -1.2406
 5762TIP3   OH238700   3.368   3.158  16.031  0.2093 -0.3667  0.1655
 5762TIP3    H138701   3.413   3.236  16.065  0.6408 -0.8442  0.7053
 5762TIP3    H238702   3.404   3.146  15.943  1.4883 -0.9979  0.7498
 5763TIP3   OH238703   2.380   4.995  14.174 -0.0853  0.4479 -0.1574
 5763TIP3    H138704   2.466   5.012  14.136  0.8532 -1.9367  0.6579
 5763TIP3    H238705   2.336   4.939  14.110 -0.4537  0.4999  0.0508
 5764TIP3   OH238706   4.074   5.173   2.169 -0.2074  0.6701  0.6369
 5764TIP3    H138707   4.153   5.139   2.211 -1.0675  0.5913  2.2823
 5764TIP3    H238708   4.105   5.214   2.088  1.3215 -0.6404  0.5168
 5765TIP3   OH238709   3.921   0.492   0.326  0.7040 -0.2736  0.2531
 5765TIP3    H138710   3.863   0.416   0.324  1.1859 -0.6453  0.2929
 5765TIP3    H238711   3.906   0.535   0.241 -0.5907  0.3764  0.7768
 5766TIP3   OH238712   2.796   2.565  12.652 -0.4123  0.6773  0.2122
 5766TIP3    H138713   2.826   2.511  12.579  2.6966  1.5832  0.6924
 5766TIP3    H238714   2.773   2.649  12.612 -0.2644  0.6649  0.1030
 5767TIP3   OH238715   1.480   0.438   4.938  0.6293  0.4614 -0.0922
 5767TIP3    H138716   1.458   0.449   5.031  2.5600  0.6230  0.3936
 5767TIP3    H238717   1.543   0.507   4.920 -0.3074  0.9317 -1.7750
 5768TIP3   OH238718   4.217   3.389   0.761 -0.2404 -0.0255  0.5256
 5768TIP3    H138719   4.165   3.463   0.732 -0.7319 -1.0348 -1.3356
 5768TIP3    H238720   4.282   3.375   0.692  0.3392 -0.8562  1.2004
 5769TIP3   OH238721   0.406   1.484  12.308 -0.2062  0.2400  0.7052
 5769TIP3    H138722   0.460   1.432  12.367  0.3269  1.5790  1.4620
 5769TIP3    H238723   0.316   1.459  12.329  0.0399 -0.5331  0.8693
 5770TIP3   OH238724   3.693   0.610  11.080  0.0997 -0.2222 -0.0828
 5770TIP3    H138725   3.758   0.603  11.010  0.9943  1.4663  0.5345
 5770TIP3    H238726   3.616   0.565  11.045  1.7978 -3.0397 -0.5219
 5771TIP3   OH238727   6.262   3.568   3.542  0.1787 -0.5736 -0.9364
 5771TIP3    H138728   6.276   3.629   3.614  0.2009  0.7026 -1.9966
 5771TIP3    H238729   6.350   3.541   3.516  0.1985 -3.8492  1.7247
 5772TIP3   OH238730   4.220   5.713   4.582 -0.6818  0.2206 -0.3875
 5772TIP3    H138731   4.301   5.694   4.629 -1.6011 -0.7896  0.8952
 5772TIP3    H238732   4.220   5.654   4.508 -0.9035 -0.8456  0.4388
 5773TIP3   OH238733   3.873   6.480  13.245 -0.1627  1.0263  0.1085
 5773TIP3    H138734   3.936   6.543  13.209  1.3375 -0.6840 -0.4467
 5773TIP3    H238735   3.925   6.426  13.306 -0.8547 -0.9245 -0.9274
 5774TIP3   OH238736   2.861   4.484  13.276 -0.0674  0.2408 -0.3151
 5774TIP3    H138737   2.936   4.475  13.217  1.0001 -2.8228  1.3048
 5774TIP3    H238738   2.788   4.445  13.227  0.0846  0.5152 -0.7665
 5775TIP3   OH238739   4.454   1.475  12.204  0.2937  0.1939  0.4250
 5775TIP3    H138740   4.547   1.495  12.213  0.6055 -0.7685 -0.4784
 5775TIP3    H238741   4.431   1.429  12.284  0.6605  0.1712  0.5187
 5776TIP3   OH238742   5.857   0.209  13.337  0.0608 -0.3319  0.2597
 5776TIP3    H138743   5.789   0.276  13.350  0.2004  0.4831 -2.5696
 5776TIP3    H238744   5.920   0.225  13.407  0.6903  3.3796 -0.9138
 5777TIP3   OH238745   1.159   4.024  10.618  0.2709 -0.0485 -0.3952
 5777TIP3    H138746   1.195   4.075  10.545  0.3778  0.0042 -0.3048
 5777TIP3    H238747   1.123   4.090  10.677  0.5251 -0.0690 -0.2147
 5778TIP3   OH238748   6.635   4.617  13.861  0.4784 -0.0267 -0.3577
 5778TIP3    H138749   6.684   4.546  13.818 -0.0639 -0.5180 -0.1781
 5778TIP3    H238750   6.701   4.662  13.914  1.1337  0.5077 -1.5836
 5779TIP3   OH238751   3.345   6.234  15.068  0.0006 -0.8109  0.1138
 5779TIP3    H138752   3.318   6.255  14.979  0.8938  1.2721  0.2873
 5779TIP3    H238753   3.441   6.229  15.064  0.2559  1.6345  1.3477
 5780TIP3   OH238754   0.890   1.356  13.674 -0.3027 -0.2291  0.0012
 5780TIP3    H138755   0.923   1.444  13.658 -1.9986  0.5187  0.3462
 5780TIP3    H238756   0.891   1.313  13.588  0.5320  0.1197 -0.1673
 5781TIP3   OH238757   0.225   6.690  11.844  0.0276  0.5451  0.4870
 5781TIP3    H138758   0.218   6.623  11.912 -0.7181 -2.7647 -2.5512
 5781TIP3    H238759   0.142   6.685  11.798 -0.0893  3.7778  0.1581
 5782TIP3   OH238760   3.084   6.389  14.905  0.1940  0.4574 -0.5045
 5782TIP3    H138761   3.044   6.475  14.920 -1.2053 -0.4948  1.6864
 5782TIP3    H238762   3.030   6.328  14.954  3.1749 -1.2291  0.9932
 5783TIP3   OH238763   3.486   1.415  16.847  0.0851 -0.6760 -0.7276
 5783TIP3    H138764   3.568   1.372  16.823 -0.0816 -1.1962 -0.3776
 5783TIP3    H238765   3.453   1.450  16.765 -0.7894 -2.9575 -1.4176
 5784TIP3   OH238766   6.095   2.395  14.693 -0.1732 -0.6413  0.1354
 5784TIP3    H138767   6.028   2.331  14.669  0.5531 -1.4183  0.1577
 5784TIP3    H238768   6.178   2.349  14.681  0.3224 -0.0335  1.1442
 5785TIP3   OH238769   1.118   1.536   5.035 -0.3794  0.5476  0.2769
 5785TIP3    H138770   1.072   1.581   4.963 -0.3169  0.4687  0.1874
 5785TIP3    H238771   1.072   1.564   5.114  0.1970  1.4677  0.3090
 5786TIP3   OH238772   2.977   5.509   1.644 -0.2529  0.0579  0.2485
 5786TIP3    H138773   3.002   5.439   1.705 -0.2907  0.8703  1.2024
 5786TIP3    H238774   3.057   5.560   1.632  0.5234 -1.5457 -2.4471
 5787TIP3   OH238775   4.740   1.736  15.725  0.1175 -0.7123 -0.3531
 5787TIP3    H138776   4.743   1.661  15.785  2.1904 -0.6334 -0.2899
 5787TIP3    H238777   4.767   1.811  15.778  0.4447 -0.3569 -1.0064
 5788TIP3   OH238778   0.278   5.031   2.511  0.5453  0.7903  0.1755
 5788TIP3    H138779   0.315   5.048   2.598  0.6841  0.9856  0.0754
 5788TIP3    H238780   0.183   5.044   2.523  0.3828 -0.6439  0.6699
 5789TIP3   OH238781   2.626   4.713  16.897 -0.1835 -0.4196  0.2813
 5789TIP3    H138782   2.584   4.770  16.962  0.9789  1.1288 -0.2528
 5789TIP3    H238783   2.600   4.750  16.812  1.4031 -0.0199 -0.0623
 5790TIP3   OH238784   6.407   4.930  15.672  0.3440  0.0902 -0.4033
 5790TIP3    H138785   6.403   4.836  15.689 -2.3650  0.1475 -0.2666
 5790TIP3    H238786   6.447   4.968  15.750  0.6478 -0.8629 -0.0945
 5791TIP3   OH238787   5.369   1.916  15.253 -0.0065 -0.4134  0.2657
 5791TIP3    H138788   5.409   1.902  15.338  0.6667  0.7411  0.1691
 5791TIP3    H238789   5.299   1.979  15.270  0.0494 -0.2748 -0.0101
 5792TIP3   OH238790   4.111   2.400  17.106 -0.0325 -0.6332  0.2955
 5792TIP3    H138791   4.173   2.327  17.115 -0.7356 -1.2710  0.0317
 5792TIP3    H238792   4.057   2.395  17.185  0.4229  0.0997  0.6668
 5793TIP3   OH238793   4.323   5.401  16.687  0.1362 -1.1345 -0.0681
 5793TIP3    H138794   4.289   5.485  16.659  0.3971 -0.8878  0.3499
 5793TIP3    H238795   4.249   5.358  16.730  1.0226  0.6285  3.6116
 5794TIP3   OH238796   1.433   3.932  12.389  0.2152 -0.2582  0.1859
 5794TIP3    H138797   1.502   3.912  12.452  1.7734  2.5675 -0.4316
 5794TIP3    H238798   1.385   4.005  12.429 -0.1068  0.1831 -0.9584
 5795TIP3   OH238799   6.508   3.797  12.651 -0.1497 -0.2996 -0.2441
 5795TIP3    H138800   6.467   3.786  12.565 -0.7975 -0.0002  0.0179
 5795TIP3    H238801   6.548   3.713  12.670  0.0600 -0.3460 -0.8746
 5796TIP3   OH238802   6.315   1.464  12.994  0.0155 -0.7014 -0.2502
 5796TIP3    H138803   6.405   1.494  13.011 -0.0979 -1.8830  3.1108
 5796TIP3    H238804   6.269   1.544  12.968  1.8250  0.0756 -1.3159
 5797TIP3   OH238805   6.567   0.267   2.739 -0.1747  0.2337  0.5710
 5797TIP3    H138806   6.604   0.196   2.686 -0.6088 -1.0765  1.9486
 5797TIP3    H238807   6.495   0.302   2.686  0.1722 -0.2276 -0.2165
 5798TIP3   OH238808   0.876   2.390   0.989  0.1059  0.2472 -0.3487
 5798TIP3    H138809   0.960   2.372   1.032 -0.3790 -1.3584 -0.0252
 5798TIP3    H238810   0.815   2.407   1.061  0.0571  1.0453 -0.5689
 5799TIP3   OH238811   2.020   0.402   3.082  1.2333 -0.4345 -0.7346
 5799TIP3    H138812   1.961   0.470   3.049  0.9823  0.2178  0.9869
 5799TIP3    H238813   1.981   0.320   3.050 -2.1597 -0.2844  2.2962
 5800TIP3   OH238814   6.182   4.519  16.974 -0.0626 -0.3770  0.0470
 5800TIP3    H138815   6.197   4.569  16.894  2.4154 -1.1031 -0.0325
 5800TIP3    H238816   6.107   4.464  16.954 -0.1272  0.1932 -1.4177
 5801TIP3   OH238817   2.245   4.725   0.378 -0.1622  0.2761  0.0647
 5801TIP3    H138818   2.254   4.760   0.290 -1.1720 -1.6685 -0.8798
 5801TIP3    H238819   2.318   4.762   0.427  0.8984  0.7625 -1.8053
 5802TIP3   OH238820   2.631   1.608  13.664 -0.1092 -0.4288 -0.4899
 5802TIP3    H138821   2.559   1.662  13.696  1.0434  0.7642  0.1601
 5802TIP3    H238822   2.657   1.555  13.740 -0.0494 -0.5924 -0.6223
 5803TIP3   OH238823   5.451   2.668   0.148  0.8762 -0.1065 -0.0164
 5803TIP3    H138824   5.385   2.663   0.079 -0.3148  1.2995  0.9612
 5803TIP3    H238825   5.433   2.593   0.204  0.9451 -0.4500 -0.4459
 5804TIP3   OH238826   5.979   2.919  15.148 -0.0827 -0.0490  0.3265
 5804TIP3    H138827   5.980   2.904  15.054 -0.1691 -0.9715  0.4636
 5804TIP3    H238828   6.014   2.838  15.185  0.3170  0.4544  1.0687
 5805TIP3   OH238829   2.613   0.397   0.764 -0.4042 -0.4378 -0.1818
 5805TIP3    H138830   2.628   0.306   0.790 -2.6513 -1.0249 -0.6851
 5805TIP3    H238831   2.556   0.432   0.832 -0.9211  0.0597 -0.8592
 5806TIP3   OH238832   5.757   5.233  11.362 -0.2647  0.0271  0.0233
 5806TIP3    H138833   5.706   5.243  11.443  0.1852  1.4226  0.1663
 5806TIP3    H238834   5.714   5.291  11.299  0.3608  0.2152 -0.2432
 5807TIP3   OH238835   4.472   3.837  12.163 -0.3324 -0.3757  0.1351
 5807TIP3    H138836   4.551   3.827  12.215 -0.8291  0.4434  1.0820
 5807TIP3    H238837   4.405   3.788  12.210 -0.5155 -0.6680 -0.4089
 5808TIP3   OH238838   4.526   4.016  13.502  0.4891  0.3075  0.0968
 5808TIP3    H138839   4.495   4.106  13.493  0.2811  0.1093 -1.3245
 5808TIP3    H238840   4.446   3.963  13.510  0.6077  0.2295  0.8650
 5809TIP3   OH238841   3.428   3.148  15.730 -0.0735  0.3465 -0.0640
 5809TIP3    H138842   3.376   3.194  15.664  1.0448  2.2862  0.3248
 5809TIP3    H238843   3.514   3.136  15.689 -0.2954 -1.4227 -0.1222
 5810TIP3   OH238844   1.580   4.182  11.750  1.1461 -0.1085  0.3011
 5810TIP3    H138845   1.576   4.151  11.841  0.1715  0.5465  0.5000
 5810TIP3    H238846   1.492   4.215  11.732  1.8853  1.7297 -0.1651
 5811TIP3   OH238847   5.467   3.923  13.262  0.7112 -0.0797 -0.4818
 5811TIP3    H138848   5.386   3.891  13.301  0.1842  1.0321 -0.5968
 5811TIP3    H238849   5.459   3.900  13.169  0.9932 -0.8505 -0.3216
 5812TIP3   OH238850   0.996   2.056  11.471  0.2338  0.0695 -0.1188
 5812TIP3    H138851   1.001   1.971  11.427 -0.1381 -0.8129  1.4352
 5812TIP3    H238852   1.080   2.064  11.517 -0.1216  0.0338  0.5599
 5813TIP3   OH238853   2.176   5.534  14.367  0.1827  0.1808 -0.0195
 5813TIP3    H138854   2.190   5.445  14.336 -2.1112 -0.6197  0.9764
 5813TIP3    H238855   2.129   5.577  14.295  0.1285  0.1626  0.0046
 5814TIP3   OH238856   3.110   6.006  13.268 -0.8679 -0.9957  0.3995
 5814TIP3    H138857   3.104   6.081  13.208 -1.4987 -0.9698  0.4883
 5814TIP3    H238858   3.159   6.039  13.343 -0.0298 -1.0403 -0.1167
 5815TIP3   OH238859   5.987   0.625   5.314  0.9351  0.4027 -0.0166
 5815TIP3    H138860   6.077   0.599   5.336  1.0863  0.5015 -0.5276
 5815TIP3    H238861   5.980   0.612   5.220  0.7126  1.3260 -0.1313
 5816TIP3   OH238862   4.690   3.567   6.025 -0.6967 -0.0788  0.6282
 5816TIP3    H138863   4.608   3.612   6.005 -1.2695 -0.3561  2.1806
 5816TIP3    H238864   4.729   3.621   6.095 -0.8180 -1.3109  1.6852
 5817TIP3   OH238865   3.948   0.239   0.160 -0.3749  0.0325 -0.7363
 5817TIP3    H138866   3.880   0.250   0.226 -0.0861 -0.4002 -0.3552
 5817TIP3    H238867   3.909   0.180   0.095 -0.3353 -0.3058 -0.4607
 5818TIP3   OH238868   1.381   0.857  14.117  0.3022  0.5789  0.0695
 5818TIP3    H138869   1.299   0.869  14.069 -0.0672  0.8891  0.7590
 5818TIP3    H238870   1.382   0.764  14.139 -0.5254  0.8021  1.1813
 5819TIP3   OH238871   0.668   1.814  12.144 -0.4801 -0.0496 -0.0975
 5819TIP3    H138872   0.675   1.849  12.233  0.3389  1.0069 -0.5538
 5819TIP3    H238873   0.726   1.870  12.092 -2.4305  0.6242 -1.6747
 5820TIP3   OH238874   6.485   0.277  15.630 -0.6852 -0.0249  0.0464
 5820TIP3    H138875   6.432   0.349  15.664 -0.7147  0.1387 -0.3452
 5820TIP3    H238876   6.538   0.316  15.562  2.6122  0.6576  2.7690
 5821TIP3   OH238877   3.046   5.920  11.206 -0.3384 -0.0111  0.0615
 5821TIP3    H138878   2.961   5.951  11.177 -0.7534  0.4529  1.6744
 5821TIP3    H238879   3.082   5.992  11.257  0.6380 -0.5422  0.1511
 5822TIP3   OH238880   1.642   4.932   5.098 -0.3521 -0.5541 -0.2852
 5822TIP3    H138881   1.673   4.980   5.175 -0.5991 -1.1751  0.2148
 5822TIP3    H238882   1.547   4.946   5.098 -0.3410 -0.4845 -0.5221
 5823TIP3   OH238883   3.779   1.293  12.604 -0.0854 -0.1357  0.0314
 5823TIP3    H138884   3.730   1.364  12.646 -1.6511 -0.5074 -1.0769
 5823TIP3    H238885   3.850   1.273  12.665 -1.9168 -0.2661  2.2322
 5824TIP3   OH238886   4.460   0.853   0.381 -0.4440  0.6066  0.1673
 5824TIP3    H138887   4.440   0.940   0.415  0.7343  0.9996 -0.1312
 5824TIP3    H238888   4.521   0.868   0.309 -0.5374 -0.4423 -0.1477
 5825TIP3   OH238889   4.171   2.931   1.428 -0.5773 -0.1375 -0.0736
 5825TIP3    H138890   4.170   2.996   1.499 -0.1904 -0.0471 -0.1458
 5825TIP3    H238891   4.205   2.851   1.470  2.1226  0.5820 -0.6833
 5826TIP3   OH238892   4.822   3.921   4.350 -0.1343  0.0228  0.3565
 5826TIP3    H138893   4.763   3.977   4.300 -0.4406  0.1124  0.8123
 5826TIP3    H238894   4.910   3.950   4.324 -0.2699  1.2706  1.1570
 5827TIP3   OH238895   5.537   0.620   2.309 -0.8600 -0.4853 -0.6963
 5827TIP3    H138896   5.593   0.643   2.234 -1.2602 -0.0248 -0.8575
 5827TIP3    H238897   5.464   0.682   2.305 -0.4515  0.1268  0.5728
 5828TIP3   OH238898   0.882   6.005  14.293 -0.1262  0.6648 -0.2940
 5828TIP3    H138899   0.909   6.035  14.207  0.1064 -0.3396 -0.5795
 5828TIP3    H238900   0.870   5.911  14.283 -0.1807  0.5508  0.7496
 5829TIP3   OH238901   0.191   1.215   1.798  0.5354  0.1122  0.0596
 5829TIP3    H138902   0.109   1.172   1.777  0.1895  1.7003 -2.2193
 5829TIP3    H238903   0.175   1.256   1.883 -0.8700 -0.0341 -0.1089
 5830TIP3   OH238904   6.143   6.181  13.654 -0.1175  0.6159 -0.1365
 5830TIP3    H138905   6.146   6.092  13.620  3.1490  0.5635 -0.0522
 5830TIP3    H238906   6.104   6.172  13.741 -1.1232 -0.4749 -0.6757
 5831TIP3   OH238907   2.663   5.301   2.319  0.1259 -0.0429 -0.1317
 5831TIP3    H138908   2.743   5.302   2.371  0.4316 -0.5902 -0.5941
 5831TIP3    H238909   2.646   5.393   2.299  0.0385  0.1731  0.8785
 5832TIP3   OH238910   1.584   4.716  17.094  0.5637 -0.3016 -0.3218
 5832TIP3    H138911   1.543   4.648  17.040  0.9740 -0.7417 -0.0838
 5832TIP3    H238912   1.610   4.671  17.174  0.2939  0.2715  0.0940
 5833TIP3   OH238913   1.147   1.952   0.230 -0.3069 -0.0576  0.1104
 5833TIP3    H138914   1.075   1.945   0.167 -0.9931 -0.3442  0.9115
 5833TIP3    H238915   1.104   1.950   0.315  0.5711  0.9174  0.5830
 5834TIP3   OH238916   4.449   5.703   0.987  0.3724  0.0622 -0.1150
 5834TIP3    H138917   4.537   5.667   0.976  0.3702 -0.0876  0.3401
 5834TIP3    H238918   4.461   5.779   1.043  0.1370 -0.2954  0.4258
 5835TIP3   OH238919   1.131   3.528  11.133 -0.6185  0.7820 -0.1768
 5835TIP3    H138920   1.119   3.467  11.059 -0.2907  1.6374 -0.9585
 5835TIP3    H238921   1.067   3.597  11.117 -2.3195 -0.2388  1.7269
 5836TIP3   OH238922   1.681   3.783   5.646  0.0386  0.1423 -0.2789
 5836TIP3    H138923   1.760   3.832   5.624 -1.5717  1.9004 -2.4738
 5836TIP3    H238924   1.632   3.840   5.705  0.7375 -1.3565  1.9129
 5837TIP3   OH238925   0.077   5.270  15.490 -0.0759  0.1423  0.7099
 5837TIP3    H138926   0.047   5.259  15.580 -0.4204  1.4866  0.7861
 5837TIP3    H238927   0.019   5.214  15.439 -1.0492  0.7073  1.1520
 5838TIP3   OH238928   5.636   4.082  13.146 -0.1084  0.3284 -0.3017
 5838TIP3    H138929   5.595   4.148  13.090  0.7291  1.3279  0.2407
 5838TIP3    H238930   5.564   4.048  13.200 -0.5032  0.9625 -0.4195
 5839TIP3   OH238931   5.961   5.854   4.838  0.1461  0.2372 -0.3041
 5839TIP3    H138932   5.963   5.899   4.923 -1.4763  0.1015 -0.1692
 5839TIP3    H238933   6.045   5.808   4.834  0.6600  1.0121  0.7922
 5840TIP3   OH238934   4.345   4.948  16.684 -0.1672 -0.2281 -0.5090
 5840TIP3    H138935   4.311   4.935  16.773  1.2981  2.1060  0.5047
 5840TIP3    H238936   4.405   4.875  16.670  0.6469  0.0959  1.0311
 5841TIP3   OH238937   0.279   1.769   2.522 -0.7288  0.5099 -0.3981
 5841TIP3    H138938   0.327   1.848   2.496  3.1653 -0.7022  2.1231
 5841TIP3    H238939   0.290   1.710   2.447 -2.5417  1.7647 -1.7576
 5842TIP3   OH238940   3.729   3.569   2.713  0.4199  0.9326 -0.1408
 5842TIP3    H138941   3.764   3.594   2.799  1.1977 -1.1507  0.2059
 5842TIP3    H238942   3.678   3.646   2.685  0.0119  1.6249  2.2287
 5843TIP3   OH238943   3.081   5.107  11.619 -0.3736 -0.9306 -0.1932
 5843TIP3    H138944   2.989   5.101  11.643 -0.6683 -1.2537 -1.3538
 5843TIP3    H238945   3.110   5.016  11.613 -0.6981 -0.9330 -2.4262
 5844TIP3   OH238946   0.773   6.666   4.429 -0.1821  0.5896  0.5472
 5844TIP3    H138947   0.799   6.576   4.446 -1.8098  0.1473  0.9255
 5844TIP3    H238948   0.736   6.664   4.340  0.5149  1.0657  0.2396
 5845TIP3   OH238949   0.011   5.261   5.940  0.4398 -0.4596  0.1816
 5845TIP3    H138950   0.018   5.279   6.033  1.1616  0.1412  0.0270
 5845TIP3    H238951   0.099   5.281   5.906  0.1542 -0.5698 -0.6352
 5846TIP3   OH238952   2.723   0.231   3.230 -0.0792  0.2491  0.1891
 5846TIP3    H138953   2.655   0.196   3.173  0.3194  0.3853 -0.3786
 5846TIP3    H238954   2.803   0.230   3.177  0.5035 -0.4906  1.0308
 5847TIP3   OH238955   0.635   0.502   3.435 -0.3275 -0.0504 -0.5352
 5847TIP3    H138956   0.620   0.470   3.524  0.2449  1.0185 -0.0330
 5847TIP3    H238957   0.571   0.456   3.381 -1.4466  0.1334  0.6092
 5848TIP3   OH238958   2.660   4.828   3.086 -0.4258  0.6781  0.2404
 5848TIP3    H138959   2.726   4.817   3.155 -1.5057 -0.9091  1.0841
 5848TIP3    H238960   2.637   4.739   3.060 -1.9155  1.2019 -0.3492
 5849TIP3   OH238961   4.619   1.713  13.631  0.5042 -0.0404  0.0280
 5849TIP3    H138962   4.616   1.785  13.568  2.5012  0.8586  0.8695
 5849TIP3    H238963   4.713   1.698  13.646  0.2168  1.0361  4.1402
 5850TIP3   OH238964   2.384   0.062   6.263 -0.5605 -0.4071  0.3397
 5850TIP3    H138965   2.472   0.041   6.230 -0.5204 -0.7537  0.6675
 5850TIP3    H238966   2.398   0.140   6.318 -1.0273  1.9010 -2.5691
 5851TIP3   OH238967   2.364   4.145  15.565 -0.1038 -0.2180 -0.5101
 5851TIP3    H138968   2.365   4.189  15.480 -0.5244  0.3854 -0.2084
 5851TIP3    H238969   2.272   4.122  15.579 -0.0130 -0.4366 -0.2786
 5852TIP3   OH238970   6.170   2.426  15.348 -0.5363 -0.2936 -0.1716
 5852TIP3    H138971   6.196   2.438  15.440  0.8356 -0.6975 -0.4792
 5852TIP3    H238972   6.086   2.381  15.353  0.3474 -1.9776  0.9254
 5853TIP3   OH238973   4.955   3.596  13.140  0.4048 -0.5290 -0.1299
 5853TIP3    H138974   4.910   3.591  13.224 -1.6749 -1.6212 -1.2446
 5853TIP3    H238975   5.002   3.679  13.143  0.1668 -0.4386  2.0039
 5854TIP3   OH238976   5.872   0.382   1.093  0.4904 -0.3084 -0.2026
 5854TIP3    H138977   5.786   0.355   1.125  0.4163  0.4688  0.2796
 5854TIP3    H238978   5.856   0.415   1.004 -0.0280  1.4483  0.4981
 5855TIP3   OH238979   4.524   4.477  15.084 -0.3723 -0.1464 -0.1285
 5855TIP3    H138980   4.542   4.570  15.100  1.0000 -0.3128 -0.6079
 5855TIP3    H238981   4.429   4.473  15.073 -0.5982  1.0101  1.1011
 5856TIP3   OH238982   1.578   2.040  12.761 -0.4728  0.1166  0.1921
 5856TIP3    H138983   1.546   2.129  12.745 -1.3906 -0.3084 -0.3903
 5856TIP3    H238984   1.666   2.039  12.722 -1.3359  0.1156 -1.9271
 5857TIP3   OH238985   0.336   4.046  13.583  0.3866 -0.1781 -0.8357
 5857TIP3    H138986   0.285   3.970  13.554 -0.5703  0.1738 -0.0996
 5857TIP3    H238987   0.317   4.054  13.676  0.7162  0.7968 -0.8431
 5858TIP3   OH238988   5.131   0.014  15.126 -0.2248  0.0718 -0.0736
 5858TIP3    H138989   5.047   0.030  15.169  0.1342  2.2364 -0.0539
 5858TIP3    H238990   5.196   0.057  15.182  0.5277  0.9226 -1.5161
 5859TIP3   OH238991   1.806   4.003  14.940 -0.4855  0.2544 -0.2125
 5859TIP3    H138992   1.771   4.021  15.027 -2.7705  1.8405 -1.3406
 5859TIP3    H238993   1.874   4.070  14.927 -1.1220  0.9363 -0.1333
 5860TIP3   OH238994   2.512   2.326  11.470  0.0191  0.0630  0.4506
 5860TIP3    H138995   2.503   2.414  11.507  2.3477  0.3122  0.5783
 5860TIP3    H238996   2.593   2.292  11.509 -0.2359 -1.7073 -0.4597
 5861TIP3   OH238997   5.683   1.857   2.658 -0.6449  0.2148  0.0712
 5861TIP3    H138998   5.737   1.853   2.737 -0.0056 -1.7025 -0.4112
 5861TIP3    H238999   5.738   1.905   2.595 -0.2584 -0.1274  0.1430
 5862TIP3   OH239000   0.219   3.285   5.479  0.1125  0.4048  0.3732
 5862TIP3    H139001   0.197   3.280   5.572  0.0251  1.9746  0.4649
 5862TIP3    H239002   0.301   3.335   5.476  0.7499 -0.6564 -0.3200
 5863TIP3   OH239003   6.301   0.870  13.630  0.1663 -0.4495  0.0908
 5863TIP3    H139004   6.320   0.949  13.579 -1.4213 -1.0643 -1.5854
 5863TIP3    H239005   6.214   0.888  13.668 -0.5703 -1.6444 -0.9571
 5864TIP3   OH239006   4.389   3.468  13.059  0.0755  0.4645  0.1463
 5864TIP3    H139007   4.453   3.419  13.110  1.4694  2.9639  0.9786
 5864TIP3    H239008   4.306   3.425  13.077  0.8730 -0.2116  2.6033
 5865TIP3   OH239009   3.096   3.673  15.047  0.1200 -1.0250  0.2790
 5865TIP3    H139010   3.040   3.601  15.019 -1.1106  0.1175 -0.3274
 5865TIP3    H239011   3.123   3.716  14.965  0.2959 -0.4119  0.6494
 5866TIP3   OH239012   6.074   0.143  15.540  0.3791 -0.2869 -0.4336
 5866TIP3    H139013   6.166   0.121  15.550  1.0421  2.1601 -0.6075
 5866TIP3    H239014   6.070   0.199  15.463 -1.1304  0.3221  0.0420
 5867TIP3   OH239015   2.872   3.020   3.813  0.2874 -0.8070 -0.2247
 5867TIP3    H139016   2.843   3.071   3.888  0.3105 -1.7228  0.4326
 5867TIP3    H239017   2.813   2.944   3.811  0.2376 -0.7539 -1.1780
 5868TIP3   OH239018   2.977   3.824  10.921 -0.5923  0.0376 -0.2630
 5868TIP3    H139019   2.940   3.899  10.873  1.7761  2.7432  1.7574
 5868TIP3    H239020   3.064   3.813  10.883 -0.2220 -0.4611  0.7237
 5869TIP3   OH239021   2.920   4.534  14.536  0.0357 -0.1919  0.2405
 5869TIP3    H139022   2.954   4.586  14.609  1.1587 -1.1440  0.4327
 5869TIP3    H239023   2.998   4.492  14.499 -0.7841 -1.4976 -0.0768
 5870TIP3   OH239024   5.996   0.854   2.772  0.0190  0.0097  0.2202
 5870TIP3    H139025   5.938   0.928   2.788  0.5808  0.6724 -0.7116
 5870TIP3    H239026   6.057   0.855   2.846  1.4580  1.9332 -0.8889
 5871TIP3   OH239027   2.146   2.552  13.829  0.2921 -0.3082  0.1587
 5871TIP3    H139028   2.154   2.567  13.923  0.6207  0.0677  0.0727
 5871TIP3    H239029   2.055   2.526  13.817 -0.2509  1.4345  0.3443
 5872TIP3   OH239030   5.537   0.775   6.594 -0.2250 -0.2638 -0.0001
 5872TIP3    H139031   5.609   0.801   6.651 -1.0654  1.0468  0.5203
 5872TIP3    H239032   5.560   0.809   6.508  1.4745 -3.0108 -0.7585
 5873TIP3   OH239033   2.934   1.175   0.032  0.0460 -0.1125 -0.1159
 5873TIP3    H139034   2.859   1.179   0.092  0.0335  2.4906 -0.2237
 5873TIP3    H239035   3.004   1.135   0.084 -1.4429 -3.0169 -0.1468
 5874TIP3   OH239036   4.806   5.985   0.245  0.1905 -0.0762 -0.3072
 5874TIP3    H139037   4.763   5.912   0.201 -0.7997  0.4749 -0.2674
 5874TIP3    H239038   4.798   6.058   0.184  1.7872 -0.1465 -0.6515
 5875TIP3   OH239039   3.673   4.968  13.327 -0.6181  0.1729 -0.1394
 5875TIP3    H139040   3.580   4.987  13.318 -0.5322  2.3972  2.4429
 5875TIP3    H239041   3.716   5.054  13.324  0.8614 -0.3248  2.7722
 5876TIP3   OH239042   3.236   2.742   0.939  0.0582  0.4098  0.5890
 5876TIP3    H139043   3.284   2.809   0.988  2.6245 -0.9907  0.1395
 5876TIP3    H239044   3.226   2.670   1.001 -1.7951  0.7319  0.7444
 5877TIP3   OH239045   5.057   4.564  13.837 -0.4146  0.1204 -0.2428
 5877TIP3    H139046   5.055   4.659  13.847 -0.8078  0.0621  0.2556
 5877TIP3    H239047   5.033   4.549  13.745  0.6010  0.5387 -0.5948
 5878TIP3   OH239048   0.163   2.771  16.176  0.6586  0.4791 -0.0997
 5878TIP3    H139049   0.177   2.689  16.130 -1.3393  0.3944 -0.6516
 5878TIP3    H239050   0.152   2.746  16.267  1.1065  0.2556 -0.1052
 5879TIP3   OH239051   0.314   3.493  16.699 -0.0367 -0.3702  0.0818
 5879TIP3    H139052   0.314   3.474  16.793 -0.5211 -2.8208 -0.3597
 5879TIP3    H239053   0.399   3.535  16.684  0.0589  0.0614  1.5930
 5880TIP3   OH239054   4.201   5.730  14.727  0.3882 -0.7799  0.4650
 5880TIP3    H139055   4.270   5.765  14.670 -0.6450 -1.6303 -1.4089
 5880TIP3    H239056   4.187   5.798  14.793  0.2095  1.2408 -1.5322
 5881TIP3   OH239057   1.946   4.838   3.254 -0.1388  0.0689 -0.7337
 5881TIP3    H139058   2.038   4.864   3.245  0.0803 -0.4202 -0.0211
 5881TIP3    H239059   1.932   4.833   3.349 -0.4826 -1.2829 -0.8366
 5882TIP3   OH239060   4.592   4.598  12.505 -0.4144 -0.3965 -0.3769
 5882TIP3    H139061   4.594   4.510  12.543 -1.0981 -1.0635 -1.8168
 5882TIP3    H239062   4.666   4.600  12.445  0.3316  0.4583  0.5378
 5883TIP3   OH239063   0.607   4.955  13.930  0.8398  0.5028  0.3466
 5883TIP3    H139064   0.658   4.898  13.872 -2.8294 -2.0951 -0.6517
 5883TIP3    H239065   0.567   5.019  13.871  0.8293  0.8702  0.7467
 5884TIP3   OH239066   4.051   5.336  14.145 -0.4129 -0.2277  0.2224
 5884TIP3    H139067   4.107   5.413  14.136 -0.0935 -0.6828 -2.3703
 5884TIP3    H239068   3.961   5.370  14.140 -0.2688 -0.0296 -1.5499
 5885TIP3   OH239069   3.658   1.653  17.001  0.0210  0.3267 -0.1498
 5885TIP3    H139070   3.582   1.626  16.951  0.3523 -1.4569  0.2544
 5885TIP3    H239071   3.625   1.668  17.089  0.2208 -1.0201  0.1653
 5886TIP3   OH239072   1.697   1.194   4.570  0.5565  0.1436 -0.6189
 5886TIP3    H139073   1.715   1.278   4.530  1.3100  0.2528 -0.0755
 5886TIP3    H239074   1.692   1.212   4.664 -1.1317 -0.1121 -0.6374
 5887TIP3   OH239075   4.111   5.176  13.945  0.2675 -0.3170  0.9048
 5887TIP3    H139076   4.034   5.148  13.895  1.8286  0.4821 -2.1586
 5887TIP3    H239077   4.074   5.217  14.024 -2.4202 -0.0209 -0.3853
 5888TIP3   OH239078   0.508   3.131  14.103  0.3930 -0.5880 -0.1001
 5888TIP3    H139079   0.559   3.204  14.137 -1.7688  1.7889 -1.6348
 5888TIP3    H239080   0.441   3.115  14.170  0.5504 -0.8511 -0.0007
 5889TIP3   OH239081   2.189   5.231   2.644 -0.2660 -0.3419  0.1331
 5889TIP3    H139082   2.120   5.297   2.647  0.6612  0.6734 -0.1621
 5889TIP3    H239083   2.234   5.246   2.561  1.9703  0.8025  1.4497
 5890TIP3   OH239084   4.015   0.198   4.389  0.1538  0.3476 -0.9109
 5890TIP3    H139085   4.006   0.288   4.358 -1.4456  0.3437 -0.5262
 5890TIP3    H239086   4.103   0.195   4.428 -0.3222  2.1892  0.4247
 5891TIP3   OH239087   0.487   4.905  12.294 -0.1524  1.3223  0.4444
 5891TIP3    H139088   0.414   4.902  12.232 -0.8815 -1.7660  1.2957
 5891TIP3    H239089   0.565   4.914  12.239 -0.6515 -2.6714 -1.2310
 5892TIP3   OH239090   5.832   2.881   2.172  0.1299 -0.3893 -0.1464
 5892TIP3    H139091   5.790   2.923   2.096 -0.3529 -0.3943  0.1132
 5892TIP3    H239092   5.860   2.796   2.139  2.3477  0.6183 -1.0666
 5893TIP3   OH239093   3.883   5.588   6.275  0.3830 -0.0429  0.4193
 5893TIP3    H139094   3.799   5.632   6.262  0.0699 -0.2799  1.5263
 5893TIP3    H239095   3.938   5.620   6.204 -0.3892  0.7534  0.1623
 5894TIP3   OH239096   1.167   4.265  12.299 -0.1411 -0.0251 -0.5068
 5894TIP3    H139097   1.111   4.209  12.244 -0.0125  0.5914 -1.2786
 5894TIP3    H239098   1.117   4.346  12.310  0.6255  0.5626 -1.2665
 5895TIP3   OH239099   4.698   6.015  12.481 -0.1277  0.4507 -0.1003
 5895TIP3    H139100   4.764   5.973  12.426  2.2127  0.0762  2.7443
 5895TIP3    H239101   4.637   5.945  12.502  0.0715  0.1097 -0.6230
 5896TIP3   OH239102   6.677   2.092   0.235  0.0146  0.0247 -0.2269
 5896TIP3    H139103   6.711   2.164   0.288 -0.5839  0.9042 -1.0005
 5896TIP3    H239104   6.610   2.133   0.179  0.1732 -0.9888 -1.1968
 5897TIP3   OH239105   1.401   6.049  11.326  0.2189  0.0866  0.0068
 5897TIP3    H139106   1.402   5.977  11.389 -2.6216  1.7977  2.2885
 5897TIP3    H239107   1.446   6.121  11.370 -2.1647  1.4487  0.4355
 5898TIP3   OH239108   3.866   2.618   3.847  0.2499 -0.3838  0.3091
 5898TIP3    H139109   3.879   2.712   3.859 -0.7072  0.2058 -2.5720
 5898TIP3    H239110   3.954   2.583   3.831  0.6272 -0.0586  1.5373
 5899TIP3   OH239111   1.917   1.354  15.980  0.6542 -0.8926  0.0374
 5899TIP3    H139112   1.910   1.379  15.887 -0.4964 -0.5199  0.2033
 5899TIP3    H239113   1.860   1.277  15.988  1.1706 -1.2493  0.3298
 5900TIP3   OH239114   1.868   0.944  10.779  0.5234 -0.2878  0.2629
 5900TIP3    H139115   1.887   0.910  10.692  0.6341  0.7543 -0.1315
 5900TIP3    H239116   1.940   1.003  10.798  0.0475  0.1666  0.6904
 5901TIP3   OH239117   2.487   0.425  16.504  0.1014 -0.0232 -0.3198
 5901TIP3    H139118   2.534   0.508  16.504 -1.3537  0.9907 -3.8523
 5901TIP3    H239119   2.401   0.446  16.541  0.0349 -0.2003 -0.3719
 5902TIP3   OH239120   4.630   0.083  12.519  0.0396  0.6793 -1.1854
 5902TIP3    H139121   4.628   0.013  12.585 -1.0181  1.3741 -0.4605
 5902TIP3    H239122   4.570   0.053  12.450 -2.0465  1.7387  0.0756
 5903TIP3   OH239123   3.032   2.846   0.450 -0.2811 -0.4281 -0.1564
 5903TIP3    H139124   2.952   2.796   0.436 -0.3791  0.0235 -1.3600
 5903TIP3    H239125   3.006   2.919   0.506 -0.8652  0.0398 -1.0122
 5904TIP3   OH239126   2.710   2.305   0.589  0.1794  0.0151  0.2072
 5904TIP3    H139127   2.777   2.360   0.627 -0.6827 -0.1970  2.1695
 5904TIP3    H239128   2.630   2.325   0.639 -1.1345 -0.0537 -1.7384
 5905TIP3   OH239129   3.128   3.767   3.028  0.2914  0.5060  0.1624
 5905TIP3    H139130   3.113   3.840   2.968 -1.6539  0.7171  0.8473
 5905TIP3    H239131   3.172   3.807   3.104  1.5238  0.4745 -0.5032
 5906TIP3   OH239132   2.680   3.698   0.822 -0.2368  0.9445  0.1750
 5906TIP3    H139133   2.639   3.668   0.902 -1.3986  0.1948 -0.6817
 5906TIP3    H239134   2.766   3.732   0.850 -0.2030 -0.2373  1.5744
 5907TIP3   OH239135   6.394   1.412   5.843  0.0616 -0.7730  0.1796
 5907TIP3    H139136   6.465   1.438   5.784  0.3527  0.2854  0.9601
 5907TIP3    H239137   6.412   1.460   5.924 -0.3673 -2.1223  1.1146
 5908TIP3   OH239138   2.116   4.733  15.320  0.4041 -0.5609  0.1741
 5908TIP3    H139139   2.163   4.781  15.252 -0.5818  0.6006  0.2704
 5908TIP3    H239140   2.038   4.786  15.337  0.2190 -1.2450  1.6326
 5909TIP3   OH239141   3.514   0.359   1.469 -0.1694 -0.5971 -0.4440
 5909TIP3    H139142   3.422   0.365   1.494  0.0576  0.8617  0.1295
 5909TIP3    H239143   3.543   0.449   1.461  1.4774 -1.0066  0.3675
 5910TIP3   OH239144   0.757   6.348  14.493  0.0527 -0.4686 -0.4584
 5910TIP3    H139145   0.700   6.375  14.564  1.7517 -4.1138  2.6806
 5910TIP3    H239146   0.697   6.319  14.424 -1.6843  1.4270  0.1542
 5911TIP3   OH239147   2.766   0.266   1.198  0.6257 -0.0010  0.2814
 5911TIP3    H139148   2.687   0.302   1.238  0.0407 -1.4162  0.4890
 5911TIP3    H239149   2.733   0.209   1.127  1.5415  0.6670 -0.7188
 5912TIP3   OH239150   3.216   5.920  16.691  0.4698 -0.3735  0.3457
 5912TIP3    H139151   3.177   6.005  16.674  0.7379 -0.1244  0.9451
 5912TIP3    H239152   3.310   5.932  16.674  0.7517 -0.1175  1.8772
 5913TIP3   OH239153   4.307   1.027  13.642  0.2828  0.6334  0.2080
 5913TIP3    H139154   4.264   1.074  13.713  0.7108 -0.0258  0.9104
 5913TIP3    H239155   4.235   0.999  13.585 -0.4634 -1.9151  2.2414
 5914TIP3   OH239156   1.283   6.114   0.749 -1.2500 -0.1793 -0.2875
 5914TIP3    H139157   1.301   6.021   0.763 -0.6923 -0.1797 -0.9376
 5914TIP3    H239158   1.279   6.151   0.838 -0.8763 -0.7192 -0.0367
 5915TIP3   OH239159   5.285   3.743   3.577 -0.1034  0.4825 -0.1477
 5915TIP3    H139160   5.270   3.819   3.633  1.0159  0.6921 -0.1218
 5915TIP3    H239161   5.371   3.710   3.602 -0.4690 -0.6651 -0.3196
 5916TIP3   OH239162   4.010   1.928  15.978  0.7004 -0.2203 -0.0869
 5916TIP3    H139163   3.950   1.853  15.979 -0.9658  1.0289  1.7056
 5916TIP3    H239164   3.997   1.969  15.893 -0.3135 -0.5220 -0.0844
 5917TIP3   OH239165   4.362   0.066   0.416 -0.2346  0.2159 -0.6432
 5917TIP3    H139166   4.381   0.151   0.376 -0.5636  0.4819 -0.2371
 5917TIP3    H239167   4.299   0.085   0.485  1.4456 -0.0010  1.0526
 5918TIP3   OH239168   3.062   0.254   0.131 -0.2208  0.1159  0.1129
 5918TIP3    H139169   3.000   0.313   0.087  0.1509  0.9689  0.6982
 5918TIP3    H239170   3.013   0.218   0.204  0.0824  1.1504  0.8535
 5919TIP3   OH239171   4.595   2.454   3.231 -0.4040  0.6746 -0.0466
 5919TIP3    H139172   4.544   2.522   3.273 -2.3097  0.1356 -1.3525
 5919TIP3    H239173   4.604   2.386   3.298 -1.2947  0.8416  0.2557
 5920TIP3   OH239174   1.159   2.466  13.467 -0.2925  0.4685  0.0595
 5920TIP3    H139175   1.156   2.386  13.415 -0.5808 -0.2568  1.1645
 5920TIP3    H239176   1.245   2.505  13.447 -0.2098 -0.0345 -0.5831
 5921TIP3   OH239177   3.782   3.105  13.230 -0.0400  1.1588  0.2375
 5921TIP3    H139178   3.856   3.133  13.176 -0.3587 -1.0179 -1.4244
 5921TIP3    H239179   3.821   3.080  13.313  1.1528 -0.0607 -0.6513
 5922TIP3   OH239180   2.905   3.023  11.152 -0.0859  0.2062 -0.1030
 5922TIP3    H139181   2.835   3.032  11.217  0.0444 -2.5688  0.5661
 5922TIP3    H239182   2.879   2.948  11.099  3.0333 -2.0869  1.2563
 5923TIP3   OH239183   2.028   2.740   2.920 -0.1660  0.0051 -0.0122
 5923TIP3    H139184   2.003   2.718   3.010  1.5928 -0.7773  0.3204
 5923TIP3    H239185   1.945   2.763   2.878 -1.4387 -2.3430  1.0094
 5924TIP3   OH239186   1.399   1.552  11.352  0.1732 -0.0844 -0.0729
 5924TIP3    H139187   1.358   1.466  11.364  1.9159 -1.0886 -0.8379
 5924TIP3    H239188   1.492   1.536  11.370  0.6701  1.4510 -1.0806
 5925TIP3   OH239189   3.078   1.363  14.704  0.6313  0.2217  0.0827
 5925TIP3    H139190   3.011   1.296  14.690  2.6780 -1.9233 -0.0100
 5925TIP3    H239191   3.123   1.371  14.620  1.7430  0.1919  0.6555
 5926TIP3   OH239192   2.912   2.015   4.678 -0.1776 -0.2653  0.0715
 5926TIP3    H139193   2.983   1.966   4.720  0.5870  1.4189  0.8626
 5926TIP3    H239194   2.930   2.107   4.701 -2.1446  0.2911 -0.4189
 5927TIP3   OH239195   3.059   1.744  15.043 -0.0852 -0.1331  0.1364
 5927TIP3    H139196   3.031   1.668  14.991 -0.9672  0.0671  0.3016
 5927TIP3    H239197   3.118   1.792  14.985 -1.1223  0.1300 -0.7208
 5928TIP3   OH239198   6.376   1.255  14.199 -0.3645 -0.1436  0.8101
 5928TIP3    H139199   6.442   1.276  14.266  0.0621  1.2852 -0.0018
 5928TIP3    H239200   6.293   1.256  14.247  0.0459 -0.4045  1.5526
 5929TIP3   OH239201   0.387   6.734   4.018  0.4563 -0.2502  0.5970
 5929TIP3    H139202   0.456   6.785   4.060  0.8861  0.3075 -0.7174
 5929TIP3    H239203   0.370   6.661   4.078 -1.0901  2.0523  3.1533
 5930TIP3   OH239204   2.577   5.383  15.492 -0.1763 -0.4346 -0.0135
 5930TIP3    H139205   2.559   5.333  15.572  1.8458 -0.1696  0.6860
 5930TIP3    H239206   2.589   5.473  15.523 -0.2391 -0.1723 -0.7432
 5931TIP3   OH239207   0.279   3.042  11.776 -0.0603 -0.3369  0.3719
 5931TIP3    H139208   0.323   3.090  11.705 -0.6641  1.1252  0.9409
 5931TIP3    H239209   0.340   2.973  11.800 -0.6655 -2.3004 -2.9789
 5932TIP3   OH239210   4.154   6.423  16.653  0.1717 -0.3401 -0.2564
 5932TIP3    H139211   4.161   6.423  16.749  0.1558  0.6605 -0.2464
 5932TIP3    H239212   4.061   6.442  16.637  0.3145  0.1531 -0.4780
 5933TIP3   OH239213   5.514   3.791   1.427  0.4510 -0.0720  0.3495
 5933TIP3    H139214   5.558   3.833   1.353 -0.4092  0.8263  0.3368
 5933TIP3    H239215   5.569   3.813   1.503 -0.5156  1.9810  0.5095
 5934TIP3   OH239216   0.926   1.528  11.519  0.1462 -0.4926  0.1219
 5934TIP3    H139217   0.955   1.445  11.556  0.6837 -0.1680  0.4571
 5934TIP3    H239218   0.875   1.568  11.589 -0.2875 -0.6328 -0.1140
 5935TIP3   OH239219   2.517   3.724   2.001 -0.3516 -0.4629  0.3087
 5935TIP3    H139220   2.482   3.763   2.082 -1.7364  0.9258 -0.9032
 5935TIP3    H239221   2.611   3.719   2.016 -0.6291 -0.9666  2.2961
 5936TIP3   OH239222   3.452   2.754  16.779 -0.0949 -0.3950 -0.0384
 5936TIP3    H139223   3.384   2.771  16.714 -0.9343  0.0519  0.9403
 5936TIP3    H239224   3.442   2.823  16.844 -0.7656 -2.0642  1.7494
 5937TIP3   OH239225   1.127   4.258   4.761 -0.2675 -0.5023 -0.1666
 5937TIP3    H139226   1.124   4.321   4.833  1.0418 -2.2906  1.5446
 5937TIP3    H239227   1.194   4.291   4.702  0.1720 -0.1209  0.5395
 5938TIP3   OH239228   2.137   3.161  14.684  0.3262 -0.3188  0.4153
 5938TIP3    H139229   2.085   3.237  14.708 -1.1357 -1.6454  1.5725
 5938TIP3    H239230   2.079   3.108  14.629  1.2802 -0.6796 -0.2752
 5939TIP3   OH239231   0.802   4.245  16.285  0.0839 -0.4487  0.3149
 5939TIP3    H139232   0.772   4.272  16.198 -0.8919  1.3264  1.1427
 5939TIP3    H239233   0.854   4.167  16.269 -1.7155 -1.3444 -1.6555
 5940TIP3   OH239234   2.205   1.651  11.226  0.3147 -0.3661 -0.4026
 5940TIP3    H139235   2.269   1.706  11.181 -0.0251 -0.8265 -1.4778
 5940TIP3    H239236   2.155   1.711  11.280  1.5377  0.0297  0.3437
 5941TIP3   OH239237   6.539   4.363   0.589  0.5176 -0.2389 -0.2794
 5941TIP3    H139238   6.483   4.350   0.665  0.8277  0.9611  0.1778
 5941TIP3    H239239   6.533   4.281   0.540 -0.0939 -0.8325  0.7625
 5942TIP3   OH239240   0.170   5.800   5.164  0.3246 -0.1460  0.3913
 5942TIP3    H139241   0.170   5.745   5.085  1.3432 -0.1554  0.3905
 5942TIP3    H239242   0.083   5.841   5.164  0.1991 -0.3759 -0.5715
 5943TIP3   OH239243   2.783   2.667  15.129  0.3148 -0.5993  0.0910
 5943TIP3    H139244   2.876   2.659  15.150  0.6011 -0.3048 -1.0216
 5943TIP3    H239245   2.749   2.727  15.196  1.2001  0.2964 -0.2310
 5944TIP3   OH239246   0.678   0.608  12.200  0.0528 -0.6204  0.3615
 5944TIP3    H139247   0.584   0.587  12.198  0.1643 -1.1930 -1.9062
 5944TIP3    H239248   0.691   0.662  12.123  1.6165 -0.6423  0.5932
 5945TIP3   OH239249   6.385   2.445   1.777 -0.3911  0.1427  0.2135
 5945TIP3    H139250   6.360   2.493   1.697  1.9925  0.1050 -0.6300
 5945TIP3    H239251   6.463   2.396   1.752  0.3537  0.0265  2.5660
 5946TIP3   OH239252   5.013   5.848  15.454 -0.4768  1.3199  0.1943
 5946TIP3    H139253   4.960   5.894  15.389  0.9645  0.9738 -1.3059
 5946TIP3    H239254   5.101   5.885  15.443 -0.0271  0.6336  1.3644
 5947TIP3   OH239255   4.126   1.852  12.474 -0.3412 -0.2462 -0.2091
 5947TIP3    H139256   4.138   1.932  12.524  2.2448  0.8466 -2.2827
 5947TIP3    H239257   4.040   1.819  12.499 -1.8112  3.5222  0.2432
 5948TIP3   OH239258   6.116   5.849   3.428  0.5686 -0.0689  0.5655
 5948TIP3    H139259   6.054   5.913   3.463  0.3637  0.6992 -1.1183
 5948TIP3    H239260   6.065   5.796   3.367  1.4557  0.3058 -0.5264
 5949TIP3   OH239261   6.387   4.141  14.143 -0.0910 -0.2314 -0.7184
 5949TIP3    H139262   6.471   4.141  14.189 -0.1078  0.8940 -0.6562
 5949TIP3    H239263   6.326   4.182  14.204 -0.6417 -0.8660 -0.8402
 5950TIP3   OH239264   3.426   5.277   2.592 -0.7536 -0.2595  0.0263
 5950TIP3    H139265   3.497   5.237   2.542 -1.1904 -0.3660 -0.5138
 5950TIP3    H239266   3.435   5.371   2.575 -0.5783 -0.2471  0.1801
 5951TIP3   OH239267   6.143   6.258   0.341  0.1034 -0.1839 -0.1308
 5951TIP3    H139268   6.163   6.348   0.366 -1.9512  0.1897  0.4163
 5951TIP3    H239269   6.076   6.268   0.273  1.1385 -1.3046 -1.3622
 5952TIP3   OH239270   4.198   0.512  11.229  0.4228 -0.0721  0.5315
 5952TIP3    H139271   4.125   0.492  11.288  1.0801 -0.0793  1.3492
 5952TIP3    H239272   4.156   0.521  11.143 -0.9129  2.2753  1.3344
 5953TIP3   OH239273   3.669   3.519   2.087 -0.3322 -0.0093  0.3513
 5953TIP3    H139274   3.674   3.435   2.132 -0.7213 -0.5022 -0.4952
 5953TIP3    H239275   3.677   3.584   2.156 -0.3437 -0.7460  1.0574
 5954TIP3   OH239276   1.186   5.011  14.136  0.6463 -0.3806 -0.5653
 5954TIP3    H139277   1.227   5.031  14.052 -1.1563 -2.9845 -2.1873
 5954TIP3    H239278   1.100   4.976  14.114 -0.6231  0.4126  2.4848
 5955TIP3   OH239279   6.098   2.314   0.068  0.2350 -0.1815 -0.2105
 5955TIP3    H139280   6.085   2.280  -0.021 -1.0955 -1.3825  0.4142
 5955TIP3    H239281   6.044   2.393   0.071 -1.5908 -1.3745  0.1887
 5956TIP3   OH239282   6.456   4.087   3.506  0.2504 -0.3824 -0.1849
 5956TIP3    H139283   6.440   4.002   3.547 -1.6949  1.6187  3.6563
 5956TIP3    H239284   6.534   4.121   3.551 -0.4438  0.8577  0.1174
 5957TIP3   OH239285   4.058   5.559   5.022 -0.5530  0.6122  0.3197
 5957TIP3    H139286   4.055   5.506   4.942 -1.6130 -0.2248  0.8945
 5957TIP3    H239287   4.152   5.569   5.040 -0.3101  0.4318 -0.7789
 5958TIP3   OH239288   0.918   5.204   1.790  0.1070 -0.2252 -0.1284
 5958TIP3    H139289   0.889   5.121   1.827 -0.5377 -0.6460 -1.5279
 5958TIP3    H239290   1.001   5.184   1.747  0.0708 -0.0819 -0.2649
 5959TIP3   OH239291   1.662   0.851  14.021 -0.2173 -0.1725  0.2947
 5959TIP3    H139292   1.673   0.932  14.070  0.5648 -0.4602  0.6001
 5959TIP3    H239293   1.569   0.850  13.998 -0.3442  0.5486  0.7418
 5960TIP3   OH239294   4.981   6.068  12.609 -0.4565  0.8364 -0.8604
 5960TIP3    H139295   4.947   5.979  12.616 -2.1247  1.5247  0.6952
 5960TIP3    H239296   5.073   6.060  12.634 -0.4305 -0.5179 -1.2984
 5961TIP3   OH239297   3.494   3.135  13.757 -0.7714 -0.4543 -0.3628
 5961TIP3    H139298   3.424   3.200  13.763 -1.1423 -0.7702 -1.1439
 5961TIP3    H239299   3.520   3.136  13.665 -1.7109 -2.3533 -0.7038
 5962TIP3   OH239300   0.597   3.795   3.253 -0.5022 -0.4493  0.1839
 5962TIP3    H139301   0.550   3.878   3.245 -0.6598 -0.5644 -0.0797
 5962TIP3    H239302   0.542   3.731   3.208  0.2161 -0.4593 -0.7219
 5963TIP3   OH239303   3.107   4.005  15.521  0.3348  0.0331  0.0783
 5963TIP3    H139304   3.025   3.959  15.537 -0.1144  0.8133  0.0952
 5963TIP3    H239305   3.086   4.097  15.536  0.8549  0.4010 -1.2943
 5964TIP3   OH239306   3.931   4.214   1.758  0.4866  0.0608 -0.4984
 5964TIP3    H139307   3.921   4.281   1.826  1.2762 -0.3029  0.0002
 5964TIP3    H239308   4.015   4.235   1.717  1.8170 -1.8314  1.0868
 5965TIP3   OH239309   1.507   4.144   1.574 -0.1983 -0.1384  0.5330
 5965TIP3    H139310   1.559   4.127   1.495 -1.5229 -0.6555 -0.2636
 5965TIP3    H239311   1.517   4.065   1.627 -0.7016 -0.5284  0.0628
 5966TIP3   OH239312   1.864   5.503  14.663 -0.3766 -0.0349 -0.0559
 5966TIP3    H139313   1.950   5.545  14.662 -1.7154  3.0058 -0.7229
 5966TIP3    H239314   1.839   5.501  14.756 -0.2558  0.6334 -0.0064
 5967TIP3   OH239315   6.086   2.762   3.224  0.2548  0.1762  0.5378
 5967TIP3    H139316   6.173   2.801   3.212 -0.2920  1.2186 -0.2238
 5967TIP3    H239317   6.026   2.828   3.189 -0.7281 -1.3001 -0.6480
 5968TIP3   OH239318   4.089   0.390  14.687  0.1066  0.0196 -0.1183
 5968TIP3    H139319   4.011   0.442  14.708  0.3400  0.5311 -0.5002
 5968TIP3    H239320   4.060   0.299  14.696 -0.3785  0.2116  0.3043
 5969TIP3   OH239321   2.816   2.295   5.322  0.2934 -0.2967  0.2502
 5969TIP3    H139322   2.860   2.334   5.397  0.0815  0.6781 -0.1166
 5969TIP3    H239323   2.886   2.275   5.260  0.5089 -1.4599  0.8527
 5970TIP3   OH239324   4.310   3.233  10.710 -1.1693 -0.1080  0.1147
 5970TIP3    H139325   4.227   3.200  10.744 -1.7504  1.0557 -0.1090
 5970TIP3    H239326   4.313   3.202  10.620 -1.2309 -0.3855  0.2076
 5971TIP3   OH239327   2.621   4.948  11.597 -0.1023  0.2054 -0.0038
 5971TIP3    H139328   2.538   4.976  11.635  0.5601  1.4804  0.5778
 5971TIP3    H239329   2.608   4.856  11.574 -1.2323  0.0083  1.3332
 5972TIP3   OH239330   3.236   2.583   3.862 -0.0626  0.0979 -0.0148
 5972TIP3    H139331   3.182   2.662   3.868 -0.7358 -0.4140  1.0133
 5972TIP3    H239332   3.253   2.559   3.953  0.3892 -0.7680 -0.3138
 5973TIP3   OH239333   5.755   3.307   0.880  0.4502  0.1295  0.2366
 5973TIP3    H139334   5.756   3.246   0.807  1.9561  1.5687 -1.0116
 5973TIP3    H239335   5.846   3.313   0.908  0.2023  1.1970  0.8615
 5974TIP3   OH239336   3.344   5.113  13.938 -0.0440 -0.2964  0.1764
 5974TIP3    H139337   3.421   5.128  13.993  0.5094  0.0719 -0.6950
 5974TIP3    H239338   3.330   5.018  13.943 -0.5770 -0.1641  1.7002
 5975TIP3   OH239339   5.112   6.727  16.738  0.4099  0.4378  0.2453
 5975TIP3    H139340   5.116   6.656  16.674 -0.1563  0.7384 -0.1307
 5975TIP3    H239341   5.202   6.757  16.746  0.3980  0.8822 -0.9734
 5976TIP3   OH239342   6.381   2.212  13.968  0.1851  0.1344 -0.3523
 5976TIP3    H139343   6.454   2.160  13.935  1.3615  0.5703  1.3957
 5976TIP3    H239344   6.306   2.153  13.967  0.6194 -0.4262 -1.8687
 5977TIP3   OH239345   2.382   4.511   0.076 -0.3302  0.0913 -0.6260
 5977TIP3    H139346   2.305   4.523   0.131 -0.0664  0.3114 -0.2979
 5977TIP3    H239347   2.353   4.535  -0.012 -0.7533 -0.2547 -0.5848
 5978TIP3   OH239348   0.704   6.255   6.347  0.0563  0.2111  0.2227
 5978TIP3    H139349   0.637   6.204   6.302  0.2021 -0.0302  0.2827
 5978TIP3    H239350   0.737   6.316   6.281  0.1335 -0.0114  0.0569
 5979TIP3   OH239351   3.298   1.711  10.464  0.2938  0.0485 -0.1249
 5979TIP3    H139352   3.388   1.680  10.476 -0.1308 -0.3323  3.0915
 5979TIP3    H239353   3.290   1.729  10.371  4.0513  1.2282 -0.3548
 5980TIP3   OH239354   5.696   5.081  12.035 -0.3291  0.1102 -0.1594
 5980TIP3    H139355   5.699   5.039  12.121  0.8323 -1.0669 -0.7375
 5980TIP3    H239356   5.783   5.120  12.025 -0.3152 -0.1050 -0.9502
 5981TIP3   OH239357   3.816   6.603   0.122 -0.3494  0.2271  0.5790
 5981TIP3    H139358   3.846   6.589   0.032 -0.1035 -3.3079  1.0673
 5981TIP3    H239359   3.896   6.607   0.174 -0.4551  3.0728  0.6570
 5982TIP3   OH239360   3.729   1.570  11.220  0.2659  0.4144  0.4013
 5982TIP3    H139361   3.672   1.516  11.165 -1.0418 -0.2301  2.2780
 5982TIP3    H239362   3.783   1.620  11.158  1.0710 -2.5045 -1.4674
 5983TIP3   OH239363   1.866   4.586  12.285  0.9260 -0.5588 -0.6546
 5983TIP3    H139364   1.810   4.513  12.259  1.3544 -0.6881 -1.2403
 5983TIP3    H239365   1.820   4.663  12.251 -0.9796 -0.2146  2.3429
 5984TIP3   OH239366   6.508   6.148   4.552  0.1921 -0.0194 -0.4840
 5984TIP3    H139367   6.523   6.091   4.627  0.5245  1.9117  0.9964
 5984TIP3    H239368   6.589   6.144   4.501  1.4044  1.3602  1.2207
 5985TIP3   OH239369   5.231   4.384  13.530 -0.0208 -0.4444 -0.0179
 5985TIP3    H139370   5.255   4.360  13.619 -1.1092 -0.2512  0.3447
 5985TIP3    H239371   5.262   4.474  13.520  2.2052 -1.2117 -0.6716
 5986TIP3   OH239372   2.887   0.058  11.598 -0.2560  0.3030  0.3960
 5986TIP3    H139373   2.952   0.015  11.543 -1.1811  2.0278 -2.2320
 5986TIP3    H239374   2.811  -0.001  11.596  0.1991 -0.3463  1.1492
 5987TIP3   OH239375   6.725   3.060   2.922 -0.4615  0.5118  0.2555
 5987TIP3    H139376   6.780   3.003   2.869 -0.5409  0.8887 -0.2438
 5987TIP3    H239377   6.759   3.148   2.905  0.8565  0.4736  2.4336
 5988TIP3   OH239378   2.870   0.508   1.794  0.2281 -0.0260  0.1245
 5988TIP3    H139379   2.955   0.465   1.810 -0.5870 -2.0443 -0.6530
 5988TIP3    H239380   2.893   0.597   1.768  2.0156  0.0334  1.6572
 5989TIP3   OH239381   5.007   5.997  13.546  0.4931  0.5912  0.0127
 5989TIP3    H139382   5.060   5.935  13.596 -1.3628  0.2601  1.6532
 5989TIP3    H239383   4.947   5.942  13.496 -1.8263  0.9669  2.2184
 5990TIP3   OH239384   2.934   3.794  15.218  0.0318  0.8292  0.0444
 5990TIP3    H139385   2.977   3.739  15.152 -0.0195  1.7838 -0.8244
 5990TIP3    H239386   2.977   3.772  15.300 -0.6571 -1.2044 -0.0907
 5991TIP3   OH239387   0.329   0.136  16.592  0.4034 -0.4462  0.4398
 5991TIP3    H139388   0.393   0.174  16.532  0.5754 -2.1521 -0.5178
 5991TIP3    H239389   0.361   0.047  16.609 -1.1971 -1.0062  0.7158
 5992TIP3   OH239390   3.426   6.302  12.897  0.1577 -0.2427  0.2594
 5992TIP3    H139391   3.349   6.312  12.842  0.4613  0.4654 -0.0616
 5992TIP3    H239392   3.483   6.242  12.849  0.2507  0.0597 -0.0123
 5993TIP3   OH239393   1.514   5.404   1.274 -0.2760 -0.9907  0.4299
 5993TIP3    H139394   1.474   5.392   1.360 -1.6233  0.4750  0.0570
 5993TIP3    H239395   1.556   5.490   1.278  1.3948 -1.7498  0.2294
 5994TIP3   OH239396   6.819   1.634  12.320  0.7393  0.1944 -0.2312
 5994TIP3    H139397   6.889   1.575  12.348  1.5905  1.4180  0.3142
 5994TIP3    H239398   6.843   1.719  12.356 -1.3900  0.5322  0.5366
 5995TIP3   OH239399   3.871   3.961  16.248 -0.2263 -0.6035  0.4297
 5995TIP3    H139400   3.871   4.057  16.249 -1.5032 -0.5139  3.9180
 5995TIP3    H239401   3.806   3.938  16.182 -0.5596  0.9681  0.1696
 5996TIP3   OH239402   3.693   1.842   3.592  0.5909 -0.3881 -0.5589
 5996TIP3    H139403   3.633   1.825   3.665 -1.2183  0.9390 -1.6171
 5996TIP3    H239404   3.739   1.922   3.617  0.8238 -0.5747 -0.3873
 5997TIP3   OH239405   5.279   5.186   4.207  0.3461 -0.1221 -0.8465
 5997TIP3    H139406   5.309   5.264   4.253 -0.9303 -1.1181  1.9226
 5997TIP3    H239407   5.188   5.204   4.185 -0.2441 -1.0574  0.6252
 5998TIP3   OH239408   4.144   2.348   2.847  0.0043 -0.5223  0.3069
 5998TIP3    H139409   4.168   2.402   2.771 -1.0425 -0.3592  0.0632
 5998TIP3    H239410   4.174   2.260   2.825  0.4550 -0.3130  0.0745
 5999TIP3   OH239411   2.196   4.722  16.640  0.8536 -0.1596 -0.4964
 5999TIP3    H139412   2.193   4.730  16.735  3.1197 -1.0883 -0.2789
 5999TIP3    H239413   2.188   4.812  16.607 -1.3253  0.0517  0.4500
 6000TIP3   OH239414   4.721   3.409   2.188 -0.5352 -0.1173 -0.6102
 6000TIP3    H139415   4.727   3.474   2.118 -0.2029 -0.1107 -0.5804
 6000TIP3    H239416   4.667   3.449   2.255 -0.9095 -0.1489 -0.8923
 6001TIP3   OH239417   6.697   0.896  13.092  0.2898  0.9811 -0.5395
 6001TIP3    H139418   6.763   0.895  13.162 -0.3506  0.8228  0.0809
 6001TIP3    H239419   6.709   0.812  13.047 -0.4876  0.2274  0.5671
 6002TIP3   OH239420   4.397   0.121  15.125  0.0490 -0.1339  0.5012
 6002TIP3    H139421   4.466   0.084  15.178  2.1129  2.8483  0.1669
 6002TIP3    H239422   4.325   0.058  15.129  1.9772 -2.3327  2.6402
 6003TIP3   OH239423   0.325   5.022   2.776  0.0802 -0.5179  0.2556
 6003TIP3    H139424   0.401   5.056   2.823  0.3109 -1.1960  0.3920
 6003TIP3    H239425   0.249   5.053   2.826  0.3479 -2.8094  2.2724
 6004TIP3   OH239426   3.266   6.446  15.919 -0.3893  0.0667  0.0620
 6004TIP3    H139427   3.319   6.387  15.865  0.0197 -0.0367  0.5647
 6004TIP3    H239428   3.180   6.444  15.879  0.2139  0.9971 -1.3674
 6005TIP3   OH239429   3.818   2.740  15.088  0.3360 -0.5820 -0.3681
 6005TIP3    H139430   3.863   2.790  15.019 -0.9350 -2.4041 -2.6820
 6005TIP3    H239431   3.751   2.800  15.121  0.3312  0.0381 -1.4397
 6006TIP3   OH239432   3.201   2.117   6.594 -0.0545  0.4712  0.6262
 6006TIP3    H139433   3.171   2.038   6.549 -0.9378  0.8209  0.5801
 6006TIP3    H239434   3.134   2.183   6.574  1.5760  1.7676 -0.8403
 6007TIP3   OH239435   1.886   0.230  15.674 -0.1341  0.2646 -0.4563
 6007TIP3    H139436   1.865   0.322  15.687 -1.1845  0.0923 -0.7910
 6007TIP3    H239437   1.973   0.231  15.633 -0.0928  1.0936 -0.3735
 6008TIP3   OH239438   0.343   5.613  13.963 -0.4030 -0.5140  0.3352
 6008TIP3    H139439   0.322   5.542  13.902 -1.5925  1.1032 -1.2193
 6008TIP3    H239440   0.397   5.673  13.912  0.0122  0.0600  1.4252
 6009TIP3   OH239441   1.402   0.586   1.300 -0.7304  0.2484  0.8967
 6009TIP3    H139442   1.353   0.606   1.221  1.3257 -0.4765 -0.6515
 6009TIP3    H239443   1.340   0.540   1.357 -1.9188 -0.3480 -0.8187
 6010TIP3   OH239444   5.996   0.149   4.217 -0.2499 -0.0970 -0.3758
 6010TIP3    H139445   6.077   0.197   4.237 -0.2367  0.2353 -1.1930
 6010TIP3    H239446   5.995   0.143   4.121 -0.5193 -1.2761 -0.3082
 6011TIP3   OH239447   5.057   5.371  13.861  0.3229 -0.0417 -0.2880
 6011TIP3    H139448   5.131   5.410  13.813  0.3144 -0.0917 -0.3409
 6011TIP3    H239449   5.017   5.445  13.907  1.3541 -0.2437  1.0173
 6012TIP3   OH239450   4.640   1.000   4.268  0.2972  0.3340  0.5478
 6012TIP3    H139451   4.568   0.956   4.314 -0.9964  3.6316  2.0597
 6012TIP3    H239452   4.711   0.936   4.267 -2.2377 -2.7131 -0.0569
 6013TIP3   OH239453   2.689   1.565  14.726  1.1751 -0.4288  0.2947
 6013TIP3    H139454   2.691   1.543  14.820  1.5936 -1.0604  0.1453
 6013TIP3    H239455   2.742   1.644  14.719  1.0839 -0.3370  0.6029
 6014TIP3   OH239456   3.309   2.194  11.830  0.6005 -0.5187 -0.0742
 6014TIP3    H139457   3.368   2.229  11.897 -0.6966 -0.3072  0.9893
 6014TIP3    H239458   3.285   2.270  11.777  1.4182 -0.6401 -0.6347
 6015TIP3   OH239459   3.029   3.963   3.413  0.7526 -0.1097 -0.3967
 6015TIP3    H139460   3.119   3.989   3.429  1.0947 -1.0471 -0.7090
 6015TIP3    H239461   3.010   3.997   3.325  0.9071 -0.1845 -0.4598
 6016TIP3   OH239462   4.252   2.778  11.054  0.8833  0.3385  0.1373
 6016TIP3    H139463   4.165   2.770  11.016  1.1052  1.7009 -0.7201
 6016TIP3    H239464   4.311   2.761  10.981  1.3179  2.2031  0.0037
 6017TIP3   OH239465   5.251   0.672  13.433  0.1822 -0.5531 -0.0649
 6017TIP3    H139466   5.222   0.716  13.353 -0.5143 -2.0050 -0.6514
 6017TIP3    H239467   5.291   0.742  13.486 -1.3394  0.8775 -0.7027
 6018TIP3   OH239468   2.535   5.065   5.756  0.7340  0.2338  0.3468
 6018TIP3    H139469   2.608   5.124   5.740  1.3256 -0.6435 -0.2960
 6018TIP3    H239470   2.539   5.046   5.850 -0.6690  2.7152  1.0156
 6019TIP3   OH239471   5.626   0.608   4.941 -0.2804  0.1030 -0.2024
 6019TIP3    H139472   5.557   0.542   4.942 -1.6851  1.5029  1.4120
 6019TIP3    H239473   5.675   0.595   5.022 -0.6517  1.1002  0.1968
 6020TIP3   OH239474   2.092   1.009  14.397  0.1184  0.1334  0.2399
 6020TIP3    H139475   2.008   1.055  14.392 -0.8112 -1.5051 -0.2026
 6020TIP3    H239476   2.105   0.993  14.490 -2.5158 -3.6572  0.1783
 6021TIP3   OH239477   5.530   4.717   4.223 -0.0351  0.3414  0.2558
 6021TIP3    H139478   5.513   4.664   4.301  0.9291  0.4175  0.5296
 6021TIP3    H239479   5.460   4.781   4.222 -0.5541 -0.2140  0.5685
 6022TIP3   OH239480   1.138   4.998   3.863  0.1580 -0.3073  0.0239
 6022TIP3    H139481   1.135   5.020   3.956 -0.7225  2.5248 -0.5669
 6022TIP3    H239482   1.212   5.049   3.829 -1.4868  1.3384 -1.3269
 6023TIP3   OH239483   1.088   2.701  13.888  0.2298 -0.6545  0.2073
 6023TIP3    H139484   1.035   2.742  13.956  0.7243 -0.4340  0.4692
 6023TIP3    H239485   1.049   2.730  13.806 -1.5859 -2.4584  0.3428
 6024TIP3   OH239486   4.832   4.422  14.725  0.0450  0.6944  0.9320
 6024TIP3    H139487   4.922   4.442  14.751  0.0874  1.9602 -0.1254
 6024TIP3    H239488   4.839   4.391  14.635 -0.5832  0.9244  0.7978
 6025TIP3   OH239489   6.620   1.379  16.157  0.4813 -0.3994 -0.4465
 6025TIP3    H139490   6.541   1.369  16.210  0.6563  0.6589  0.0480
 6025TIP3    H239491   6.677   1.435  16.210  0.7589  0.4879 -1.6489
 6026TIP3   OH239492   0.977   6.691  15.510  0.5638  0.5898 -0.3800
 6026TIP3    H139493   0.906   6.730  15.460  0.6637 -0.7887 -1.6863
 6026TIP3    H239494   0.944   6.688  15.600 -0.0958  2.0492 -0.5445
 6027TIP3   OH239495   4.920   1.237  12.927 -0.0101  0.3944  0.6459
 6027TIP3    H139496   4.984   1.195  12.984  0.1198  1.3514  1.2373
 6027TIP3    H239497   4.971   1.265  12.851  0.8441  3.1775  2.1003
 6028TIP3   OH239498   5.529   5.798   3.677  0.2778  0.1095  0.8557
 6028TIP3    H139499   5.596   5.839   3.732  1.7268 -1.5938  0.4627
 6028TIP3    H239500   5.535   5.844   3.594  1.4288 -0.4214  0.6223
 6029TIP3   OH239501   5.149   0.494   4.868  0.3459 -0.4768 -0.3195
 6029TIP3    H139502   5.142   0.462   4.778  0.1539 -0.2911 -0.3747
 6029TIP3    H239503   5.089   0.569   4.871 -0.0034 -0.7682  0.0939
 6030TIP3   OH239504   4.713   5.827  14.459 -0.0932  0.2649  0.2602
 6030TIP3    H139505   4.745   5.747  14.499 -0.7391  0.0460  0.3485
 6030TIP3    H239506   4.791   5.867  14.420  0.5183  0.3921  1.5661
 6031TIP3   OH239507   2.442   4.464  16.385 -0.4741 -0.1919  0.3726
 6031TIP3    H139508   2.445   4.464  16.480 -0.6897  0.1354  0.3831
 6031TIP3    H239509   2.356   4.501  16.364 -0.5810 -0.6062  0.0549
 6032TIP3   OH239510   6.356   2.147   4.023 -0.1469  0.7762  0.7722
 6032TIP3    H139511   6.283   2.196   4.059 -1.2284  0.3078 -0.6844
 6032TIP3    H239512   6.344   2.153   3.928  0.3559 -1.3118  0.5369
 6033TIP3   OH239513   5.843   1.259  10.914 -0.1408  0.4016  0.2814
 6033TIP3    H139514   5.874   1.344  10.881  0.1044  0.5409  0.8511
 6033TIP3    H239515   5.748   1.268  10.917 -0.2651 -0.0583 -1.5699
 6034TIP3   OH239516   1.269   5.575   0.402  0.4192  0.1272  0.9817
 6034TIP3    H139517   1.243   5.656   0.445 -0.7343 -0.2926  1.0958
 6034TIP3    H239518   1.252   5.506   0.466  0.6122 -0.2970  0.5882
 6035TIP3   OH239519   0.879   5.708  16.652 -0.4169  0.1268 -0.3273
 6035TIP3    H139520   0.831   5.710  16.569 -0.2012  1.1164 -0.4388
 6035TIP3    H239521   0.860   5.621  16.688 -0.2206 -0.4546 -1.5739
 6036TIP3   OH239522   6.529   2.356   2.793 -0.1566 -0.0439 -0.1718
 6036TIP3    H139523   6.572   2.300   2.728 -3.5026 -0.7269 -2.0475
 6036TIP3    H239524   6.470   2.297   2.840 -0.1500  1.0533  1.2529
 6037TIP3   OH239525   1.943   1.114  15.079 -0.0128 -0.6429 -0.3689
 6037TIP3    H139526   1.932   1.053  15.152  2.2087 -1.2369 -0.4771
 6037TIP3    H239527   1.873   1.090  15.017 -1.2052 -0.8705  1.0134
 6038TIP3   OH239528   6.300   0.764   1.909  0.4228  0.2527 -0.2565
 6038TIP3    H139529   6.369   0.702   1.888  0.6872  0.7774 -1.0085
 6038TIP3    H239530   6.269   0.739   1.996  0.0443 -1.3518 -0.8283
 6039TIP3   OH239531   3.334   5.904   2.643  0.1584  0.7287 -0.4923
 6039TIP3    H139532   3.391   5.981   2.650  0.0479  0.9041 -1.4190
 6039TIP3    H239533   3.318   5.895   2.549  0.4057 -0.6166 -0.4123
 6040TIP3   OH239534   5.795   1.015  15.827 -0.6376 -0.0924 -0.8663
 6040TIP3    H139535   5.868   1.047  15.880 -0.4578 -2.2667  0.2814
 6040TIP3    H239536   5.719   1.022  15.884 -1.0084  0.3682 -1.4040
 6041TIP3   OH239537   3.340   2.170  10.925  0.2914  0.1187 -0.1798
 6041TIP3    H139538   3.348   2.087  10.877  0.2501 -0.0648  0.1223
 6041TIP3    H239539   3.394   2.156  11.004 -0.1074  0.1987  0.1090
 6042TIP3   OH239540   6.683   5.620  11.442 -0.5318 -0.0173 -0.1452
 6042TIP3    H139541   6.634   5.695  11.476 -1.9079  0.0181 -2.0554
 6042TIP3    H239542   6.672   5.625  11.347  0.6872 -1.7508 -0.4251
 6043TIP3   OH239543   3.135   0.153   4.335 -0.1117 -0.3634 -0.3038
 6043TIP3    H139544   3.125   0.199   4.418 -0.7130  0.1047 -0.6253
 6043TIP3    H239545   3.228   0.135   4.327 -0.0458 -0.3585  0.4456
 6044TIP3   OH239546   1.895   2.153   3.452 -0.1269 -0.1550  0.1034
 6044TIP3    H139547   1.990   2.143   3.450  0.0237  1.1343  0.2067
 6044TIP3    H239548   1.875   2.213   3.381 -0.6127  1.3165  1.4085
 6045TIP3   OH239549   2.288   3.286   5.161 -0.4252  0.3499  0.1282
 6045TIP3    H139550   2.347   3.323   5.226  1.3220  0.4348 -1.4437
 6045TIP3    H239551   2.200   3.310   5.192  0.2276 -0.5231  2.9794
 6046TIP3   OH239552   0.559   4.208  15.196  0.0338  0.1116 -0.1709
 6046TIP3    H139553   0.574   4.214  15.290  0.8077  0.6365 -0.3143
 6046TIP3    H239554   0.532   4.118  15.181  0.3566 -0.1010  0.4987
 6047TIP3   OH239555   1.944   2.905   3.300 -0.9637 -0.1491 -0.3597
 6047TIP3    H139556   1.960   2.977   3.239 -1.2941  0.5920  0.4142
 6047TIP3    H239557   1.850   2.910   3.317 -0.7034  0.3380  1.0408
 6048TIP3   OH239558   1.546   6.255   2.121  0.2339 -0.1400 -0.1113
 6048TIP3    H139559   1.483   6.310   2.167  0.2153 -1.5536  1.6584
 6048TIP3    H239560   1.500   6.228   2.041 -0.6286  0.4940  0.1585
 6049TIP3   OH239561   0.009   4.820  12.865 -0.8564  0.0689  0.2996
 6049TIP3    H139562   0.007   4.829  12.770 -0.2978 -0.2629  0.2482
 6049TIP3    H239563  -0.006   4.908  12.898  0.7825  0.5475 -0.1233
 6050TIP3   OH239564   5.488   3.086  16.953 -0.2432  0.4283  0.7169
 6050TIP3    H139565   5.540   3.008  16.968 -1.0485 -0.9049 -2.5161
 6050TIP3    H239566   5.549   3.159  16.965  0.5083 -0.5828  3.8816
 6051TIP3   OH239567   2.920   2.204  16.326 -0.0091 -0.1411  0.4895
 6051TIP3    H139568   2.898   2.119  16.287 -0.0450  0.6426 -1.2526
 6051TIP3    H239569   3.011   2.220  16.301 -0.2615  0.7195  0.0943
 6052TIP3   OH239570   5.694   0.200   3.364  0.4306 -0.2518  0.3270
 6052TIP3    H139571   5.776   0.242   3.339 -0.0432 -0.4449 -1.6967
 6052TIP3    H239572   5.627   0.248   3.316 -0.6923 -0.0051  2.0557
 6053TIP3   OH239573   1.488   4.392   3.910 -0.0403  0.0334 -0.3231
 6053TIP3    H139574   1.461   4.342   3.833 -3.2266  0.3838  0.3947
 6053TIP3    H239575   1.583   4.382   3.914  0.1271 -0.8888 -3.6389
 6054TIP3   OH239576   3.500   4.931  10.856 -0.3916  0.2996 -0.0301
 6054TIP3    H139577   3.449   4.856  10.886 -0.2733 -0.0788 -0.7447
 6054TIP3    H239578   3.571   4.938  10.920 -1.0076  0.4836  0.6491
 6055TIP3   OH239579   2.988   0.605   4.624 -0.0479  0.1014 -0.2189
 6055TIP3    H139580   2.900   0.567   4.623  0.0306 -0.0685 -0.6191
 6055TIP3    H239581   2.977   0.688   4.671 -1.2624  2.0600 -3.6173
 6056TIP3   OH239582   5.389   2.352  13.981 -0.3080  0.1644  0.2844
 6056TIP3    H139583   5.420   2.441  13.966 -1.6688  0.5154 -0.7302
 6056TIP3    H239584   5.463   2.297  13.958 -0.1683  0.9815 -1.4193
 6057TIP3   OH239585   3.858   2.460  15.525 -0.1176 -0.0258 -0.4518
 6057TIP3    H139586   3.807   2.422  15.453 -0.3060  1.0648 -0.9137
 6057TIP3    H239587   3.804   2.532  15.558  0.0542 -0.3873  0.6652
 6058TIP3   OH239588   0.622   3.652   2.094  0.4697 -0.6746 -0.0035
 6058TIP3    H139589   0.645   3.743   2.078 -0.4071 -0.1966  1.2733
 6058TIP3    H239590   0.704   3.604   2.082  1.0233  0.3269 -0.3086
 6059TIP3   OH239591   6.572   5.247   2.258 -0.4296  0.1875 -0.2534
 6059TIP3    H139592   6.626   5.171   2.284  1.3504  1.4920  0.0804
 6059TIP3    H239593   6.508   5.211   2.197 -0.6413 -1.8576  1.0438
 6060TIP3   OH239594   2.619   3.862   3.822 -0.2755  0.1595  0.9195
 6060TIP3    H139595   2.623   3.799   3.750  2.4309  0.8553  0.3236
 6060TIP3    H239596   2.643   3.812   3.899 -1.9001 -0.3028  1.1628
 6061TIP3   OH239597   5.596   6.673  13.828 -0.5664 -0.4995 -0.1752
 6061TIP3    H139598   5.630   6.633  13.748 -2.4415 -0.7393 -0.8934
 6061TIP3    H239599   5.501   6.669  13.819 -0.8269  0.0288  1.7981
 6062TIP3   OH239600   1.924   4.485  12.653  0.1761 -0.6505  0.0726
 6062TIP3    H139601   1.850   4.458  12.599 -2.4461  2.9893  1.4074
 6062TIP3    H239602   1.902   4.454  12.741 -1.3290  2.6520  1.0030
 6063TIP3   OH239603   2.975   1.540  14.872  0.1338  0.0784 -0.2574
 6063TIP3    H139604   3.002   1.464  14.821  3.0106  1.3189 -0.7542
 6063TIP3    H239605   2.960   1.609  14.807 -0.1946  0.5716  0.3282
 6064TIP3   OH239606   5.693   2.752  10.511 -0.5603  0.4452  0.7590
 6064TIP3    H139607   5.720   2.669  10.552  0.2485  1.3397  2.0912
 6064TIP3    H239608   5.601   2.762  10.538 -0.9649 -0.4387 -0.1804
 6065TIP3   OH239609   1.798   6.239  12.000 -0.4662  1.0590 -0.0215
 6065TIP3    H139610   1.746   6.180  11.945  0.9440  0.2459 -0.5131
 6065TIP3    H239611   1.739   6.314  12.015 -2.2616 -0.3826  0.5625
 6066TIP3   OH239612   3.654   1.855  16.327  0.1663 -0.1327  0.1362
 6066TIP3    H139613   3.573   1.903  16.345 -0.0752 -0.6589  0.5003
 6066TIP3    H239614   3.671   1.871  16.235 -0.5817 -0.3342 -0.0503
 6067TIP3   OH239615   1.980   6.719   3.340  0.1717 -0.1703  0.8320
 6067TIP3    H139616   1.902   6.763   3.373 -1.1375 -4.2378  4.0399
 6067TIP3    H239617   2.051   6.751   3.396  0.1060  0.8019  0.3820
 6068TIP3   OH239618   2.743   1.839  14.816 -0.0300 -0.0304  0.4641
 6068TIP3    H139619   2.742   1.933  14.837  2.5489 -0.2888  2.1680
 6068TIP3    H239620   2.758   1.836  14.721 -0.0734  1.2700  0.3929
 6069TIP3   OH239621   5.292   3.067  14.356 -0.0116 -0.5576 -0.2583
 6069TIP3    H139622   5.360   3.127  14.386 -0.0396 -0.5232 -0.2640
 6069TIP3    H239623   5.321   3.039  14.270 -0.6413  0.4688 -0.8267
 6070TIP3   OH239624   5.636   1.897  16.716 -0.6097 -0.1559  0.0709
 6070TIP3    H139625   5.598   1.985  16.724 -0.7336 -0.3961  3.6972
 6070TIP3    H239626   5.573   1.848  16.663 -3.0070  0.7554  1.9025
 6071TIP3   OH239627   5.130   0.810   5.028  0.1439  0.2292 -0.3801
 6071TIP3    H139628   5.069   0.789   4.957  0.2133  1.3233 -0.7869
 6071TIP3    H239629   5.212   0.769   5.002 -0.5200 -1.7598  0.4544
 6072TIP3   OH239630   3.580   2.353  14.743  0.0631  0.1851 -0.8637
 6072TIP3    H139631   3.540   2.438  14.759 -0.6020 -0.3113  0.2043
 6072TIP3    H239632   3.651   2.371  14.681  1.6592  1.9699  1.3179
 6073TIP3   OH239633   1.482   2.445  13.009 -0.7135 -0.0042  0.0662
 6073TIP3    H139634   1.436   2.494  13.078  3.1148  0.4302  2.6688
 6073TIP3    H239635   1.536   2.511  12.965 -2.2067 -0.4994 -2.7274
 6074TIP3   OH239636   3.623   2.158   1.933  0.8824 -0.0429 -0.4413
 6074TIP3    H139637   3.669   2.120   2.008  1.5638  2.2111  0.3395
 6074TIP3    H239638   3.559   2.218   1.972  1.4699  1.4104 -1.6273
 6075TIP3   OH239639   4.836   6.365  14.508  0.1858  0.2022 -0.7603
 6075TIP3    H139640   4.820   6.379  14.415  0.5904 -0.5023 -0.9455
 6075TIP3    H239641   4.837   6.453  14.546 -1.0857  0.4389 -1.2266
 6076TIP3   OH239642   4.107   1.354   1.909 -0.7020  0.0741 -0.5364
 6076TIP3    H139643   4.177   1.394   1.960 -1.3361 -0.8480  1.1481
 6076TIP3    H239644   4.073   1.425   1.854 -0.9325  1.5393  1.3972
 6077TIP3   OH239645   5.719   4.383  13.800 -0.8748 -0.2378  0.2501
 6077TIP3    H139646   5.803   4.359  13.839 -0.4278  2.3752  1.1577
 6077TIP3    H239647   5.741   4.404  13.709 -0.6612 -0.1723  0.3144
 6078TIP3   OH239648   0.484   4.934  16.158  0.4036  0.4457 -0.1787
 6078TIP3    H139649   0.497   5.004  16.221 -1.6939 -0.6505  1.6064
 6078TIP3    H239650   0.543   4.864  16.187  0.5590  0.4889 -0.3835
 6079TIP3   OH239651   3.622   5.783   5.275  0.3070 -0.2849  0.1755
 6079TIP3    H139652   3.540   5.735   5.266 -0.6581  0.6946  2.8388
 6079TIP3    H239653   3.595   5.873   5.295  2.0548  0.3706 -0.2117
 6080TIP3   OH239654   6.007   4.694  16.020 -0.4777 -0.2109  0.3108
 6080TIP3    H139655   5.947   4.638  16.069 -1.0489  0.4260  0.3598
 6080TIP3    H239656   5.959   4.713  15.939  0.9246 -2.2414 -1.0997
 6081TIP3   OH239657   4.437   6.458  15.746 -0.7330 -0.2107 -0.0042
 6081TIP3    H139658   4.378   6.506  15.689  0.9655 -0.0877 -1.7879
 6081TIP3    H239659   4.424   6.366  15.722 -0.7619 -0.2533  0.1716
 6082TIP3   OH239660   5.404   0.102  12.874 -0.1941 -0.0699 -0.5607
 6082TIP3    H139661   5.472   0.120  12.940  0.0157 -1.4620 -0.3708
 6082TIP3    H239662   5.387   0.009  12.882 -2.3935  0.2994 -0.3907
 6083TIP3   OH239663   1.826   1.500   1.738 -0.5369  0.0163  0.1576
 6083TIP3    H139664   1.862   1.414   1.717  0.6982  0.3217  0.8804
 6083TIP3    H239665   1.736   1.497   1.707 -0.1823 -1.1424 -0.8445
 6084TIP3   OH239666   3.417   5.008   5.833  0.0230  0.0137  0.1869
 6084TIP3    H139667   3.394   5.099   5.850  1.3907  0.3236  0.5047
 6084TIP3    H239668   3.335   4.960   5.843 -0.5277  1.0758  0.9697
 6085TIP3   OH239669   6.273   5.420  14.576  0.0925  0.3437  0.2644
 6085TIP3    H139670   6.284   5.350  14.640  0.6446 -0.2773 -0.4854
 6085TIP3    H239671   6.329   5.395  14.503  0.8128  1.8979  0.2367
 6086TIP3   OH239672   5.373   2.946   1.184 -0.2431 -0.0119 -0.6109
 6086TIP3    H139673   5.325   2.873   1.145 -0.1260 -1.0017  0.9623
 6086TIP3    H239674   5.450   2.957   1.129  0.1966 -1.7123 -0.3974
 6087TIP3   OH239675   0.149   3.308  16.587  0.0709  0.4361 -0.7741
 6087TIP3    H139676   0.214   3.373  16.614  1.7539 -1.3898 -0.1761
 6087TIP3    H239677   0.182   3.276  16.503  1.1454 -1.8979  0.4340
 6088TIP3   OH239678   0.555   5.279  10.868 -0.3213 -0.0870  0.1054
 6088TIP3    H139679   0.648   5.296  10.878 -0.3595  0.7441 -0.8470
 6088TIP3    H239680   0.550   5.191  10.830  0.0986  0.1524 -0.5019
 6089TIP3   OH239681   6.303   3.767   0.805 -0.2509 -0.1473 -0.2764
 6089TIP3    H139682   6.257   3.779   0.888 -0.9801  1.3751 -0.8446
 6089TIP3    H239683   6.380   3.715   0.827 -1.4742 -1.5389  0.9693
 6090TIP3   OH239684   1.562   2.484  15.834 -0.1037 -0.1827  0.0913
 6090TIP3    H139685   1.607   2.435  15.903  0.1550 -2.0595 -1.3300
 6090TIP3    H239686   1.631   2.514  15.776 -0.4329 -0.0234 -0.2240
 6091TIP3   OH239687   1.693   3.747   3.474  0.4844  0.3241 -0.5970
 6091TIP3    H139688   1.655   3.795   3.400 -0.3517 -1.2070 -1.2056
 6091TIP3    H239689   1.626   3.683   3.498  1.3090 -0.1301  0.5911
 6092TIP3   OH239690   2.729   0.464   0.453  0.1219  0.3620  0.0067
 6092TIP3    H139691   2.774   0.386   0.421  1.3271  1.7306 -1.8944
 6092TIP3    H239692   2.764   0.535   0.399 -3.7822  1.6917 -1.1092
 6093TIP3   OH239693   3.195   1.748  11.951  0.1646 -0.0967 -0.2728
 6093TIP3    H139694   3.139   1.786  12.020 -2.5865 -2.4265 -1.0280
 6093TIP3    H239695   3.246   1.681  11.997  0.5060  0.3573  0.0102
 6094TIP3   OH239696   0.985   1.786  12.132  0.1618  0.4703 -0.4473
 6094TIP3    H139697   1.005   1.707  12.183 -0.1231  0.4626 -0.3496
 6094TIP3    H239698   0.957   1.752  12.047  1.0989  0.4911 -0.7824
 6095TIP3   OH239699   6.300   4.312  14.751  0.4640 -0.1110  0.0928
 6095TIP3    H139700   6.291   4.282  14.841  2.0004 -2.2317 -0.4024
 6095TIP3    H239701   6.394   4.315  14.736  0.3024 -2.9711 -2.3727
 6096TIP3   OH239702   5.521   1.144  14.837 -0.7119 -0.2702 -0.0853
 6096TIP3    H139703   5.571   1.123  14.759  0.8388 -0.3648  0.8974
 6096TIP3    H239704   5.558   1.087  14.905 -0.8059  1.0752  1.1233
 6097TIP3   OH239705   3.427   3.584   1.087 -0.1924 -0.0069  0.1435
 6097TIP3    H139706   3.360   3.579   1.156 -0.5237 -1.9505 -0.2612
 6097TIP3    H239707   3.501   3.629   1.129 -1.4143  1.4015  0.8623
 6098TIP3   OH239708   1.008   2.868  11.978  0.1615  0.3610 -0.2617
 6098TIP3    H139709   0.964   2.924  11.914  0.8652  1.7191  0.3914
 6098TIP3    H239710   0.968   2.782  11.967  0.3001  0.5311 -2.5622
 6099TIP3   OH239711   3.268   2.162   4.982  0.4427  0.0147 -0.0083
 6099TIP3    H139712   3.245   2.070   4.972 -0.0991  0.3339 -2.1443
 6099TIP3    H239713   3.353   2.170   4.940 -0.9685  1.0434 -2.9255
 6100TIP3   OH239714   4.769   2.620   2.756 -0.5971 -0.2706 -0.1638
 6100TIP3    H139715   4.768   2.714   2.771  0.0675 -0.1461 -0.8389
 6100TIP3    H239716   4.850   2.590   2.799 -0.5332 -0.4546 -0.4138
 6101TIP3   OH239717   1.414   1.019   3.567 -0.1629  0.1159 -0.0246
 6101TIP3    H139718   1.331   0.988   3.601 -1.1090 -1.7808 -3.5551
 6101TIP3    H239719   1.392   1.095   3.512  0.5438  0.1425 -0.2951
 6102TIP3   OH239720   6.348   2.757  15.856  0.3881  0.0376  0.4882
 6102TIP3    H139721   6.386   2.670  15.861 -0.8679 -0.6472 -1.1791
 6102TIP3    H239722   6.384   2.803  15.932  1.9635 -1.5533  0.7735
 6103TIP3   OH239723   1.903   1.776  10.339  0.1627  0.2399  0.0519
 6103TIP3    H139724   1.989   1.743  10.367 -0.7292 -1.9842  0.3419
 6103TIP3    H239725   1.906   1.870  10.360  2.1668  0.0418  0.9109
 6104TIP3   OH239726   6.261   5.176   1.044 -0.6844 -0.8332  0.1050
 6104TIP3    H139727   6.261   5.165   1.140  0.4816  1.6523  0.4883
 6104TIP3    H239728   6.188   5.236   1.027  0.2366  0.2322 -0.2727
 6105TIP3   OH239729   1.078   5.180  16.690 -0.0311 -0.0632 -0.2007
 6105TIP3    H139730   1.087   5.085  16.692 -1.2164 -0.2378 -1.6115
 6105TIP3    H239731   1.110   5.206  16.603 -2.1782  0.4934 -0.8867
 6106TIP3   OH239732   4.167   0.148  12.543 -0.3266  0.0487  0.0180
 6106TIP3    H139733   4.207   0.222  12.589  1.6101  0.0240 -1.4751
 6106TIP3    H239734   4.172   0.172  12.451 -1.0378 -1.3228 -0.4024
 6107TIP3   OH239735   3.877   3.984  16.808  0.1890  0.2834 -0.0829
 6107TIP3    H139736   3.847   4.048  16.743  1.0334  1.5821  0.7529
 6107TIP3    H239737   3.853   4.023  16.893 -0.6014 -1.2223  0.4268
 6108TIP3   OH239738   6.053   0.550   1.235 -0.2761 -0.3170  0.2748
 6108TIP3    H139739   5.985   0.503   1.187  1.2260 -1.5694 -0.7224
 6108TIP3    H239740   6.097   0.603   1.169  0.7820 -0.7976  0.5850
 6109TIP3   OH239741   6.037   3.294   1.033  0.2309 -0.3351  0.3918
 6109TIP3    H139742   6.115   3.295   0.977 -0.6232 -0.9487 -0.8499
 6109TIP3    H239743   6.042   3.376   1.082  0.0559  1.1932 -1.9673
 6110TIP3   OH239744   3.351   2.991   4.911 -0.3242 -0.0198  0.2560
 6110TIP3    H139745   3.296   2.918   4.883 -1.0204  0.0588  1.3842
 6110TIP3    H239746   3.440   2.954   4.914 -0.9235 -1.5135  2.9685
 6111TIP3   OH239747   6.440   4.357   2.233  0.2711 -0.1959  0.0784
 6111TIP3    H139748   6.350   4.389   2.234  0.5185  0.4930  0.7584
 6111TIP3    H239749   6.446   4.299   2.308  0.8244  1.0059  0.9944
 6112TIP3   OH239750   3.337   2.593  14.502  0.2562  0.4301 -0.1615
 6112TIP3    H139751   3.396   2.603  14.428  0.0589  1.0135 -0.2444
 6112TIP3    H239752   3.341   2.500  14.523 -0.5536  0.0195 -1.6395
 6113TIP3   OH239753   3.426   2.379  13.420  0.2210 -0.0051 -0.0468
 6113TIP3    H139754   3.518   2.388  13.396 -0.0370 -1.1230 -1.5624
 6113TIP3    H239755   3.397   2.469  13.435  1.2260  0.4796 -0.8744
 6114TIP3   OH239756   2.461   3.201   3.910 -0.1618  0.2180 -0.6338
 6114TIP3    H139757   2.534   3.179   3.967  0.1447 -0.8007 -1.3874
 6114TIP3    H239758   2.395   3.239   3.969  0.5552  0.1818  0.2126
 6115TIP3   OH239759   4.142   4.286   1.588  0.7864 -0.6047 -0.2170
 6115TIP3    H139760   4.107   4.314   1.504  0.5963  0.2972  0.1544
 6115TIP3    H239761   4.223   4.239   1.566  0.2189 -1.2631 -0.9607
 6116TIP3   OH239762   3.211   0.298  13.422 -0.1441 -0.0138 -0.0987
 6116TIP3    H139763   3.131   0.273  13.376 -0.6001  0.4054  0.4443
 6116TIP3    H239764   3.272   0.227  13.406 -0.6378 -0.3478 -0.5071
 6117TIP3   OH239765   1.640   5.415  14.546 -0.5270  0.1048 -0.0419
 6117TIP3    H139766   1.708   5.436  14.610 -0.9407  1.2226  0.0446
 6117TIP3    H239767   1.686   5.411  14.463  0.2680 -2.6655  0.4066
 6118TIP3   OH239768   0.765   5.472  16.753 -0.2283 -0.1268  0.2662
 6118TIP3    H139769   0.785   5.457  16.846 -0.2526 -1.1597  0.1126
 6118TIP3    H239770   0.670   5.484  16.751 -0.3182 -0.8085  0.2923
 6119TIP3   OH239771   6.380   3.513  11.826  0.2780 -0.4039  0.3131
 6119TIP3    H139772   6.345   3.425  11.812 -0.2271 -0.3650  1.2450
 6119TIP3    H239773   6.410   3.541  11.740 -1.9718 -0.4485 -0.5520
 6120TIP3   OH239774   1.225   3.141   5.780  0.3119 -0.2388  0.0861
 6120TIP3    H139775   1.292   3.083   5.816  1.3204  1.0522  0.3410
 6120TIP3    H239776   1.193   3.095   5.702  1.9485 -0.6094 -0.4004
 6121TIP3   OH239777   4.328   4.168   0.845 -0.0241  0.1431 -0.0260
 6121TIP3    H139778   4.340   4.193   0.936  1.0026  1.4098 -0.4854
 6121TIP3    H239779   4.331   4.072   0.846  1.9332  0.1622  1.0519
 6122TIP3   OH239780   4.206   0.430   3.004  0.2116 -0.1901 -0.5945
 6122TIP3    H139781   4.234   0.521   3.015  2.1298 -0.6760 -1.0177
 6122TIP3    H239782   4.281   0.387   2.963 -0.3958 -2.1261  0.2026
 6123TIP3   OH239783   1.262   6.157   3.612 -0.0235  0.0079 -0.1595
 6123TIP3    H139784   1.329   6.110   3.562  0.2807  0.9483 -0.6732
 6123TIP3    H239785   1.179   6.131   3.572  0.1290 -0.1858 -0.3563
 6124TIP3   OH239786   5.476   2.710   0.477 -0.4563 -0.3107  0.0694
 6124TIP3    H139787   5.432   2.713   0.562  0.6964 -0.0475  0.6752
 6124TIP3    H239788   5.537   2.636   0.483 -0.5890 -0.4826 -0.6393
 6125TIP3   OH239789   6.475   0.774  16.943 -0.9338 -0.5244  0.0465
 6125TIP3    H139790   6.457   0.854  16.894 -0.1926  0.2573  1.0054
 6125TIP3    H239791   6.396   0.722  16.933 -1.6942  0.6103 -0.0675
 6126TIP3   OH239792   6.348   3.728  15.795 -0.5857  0.5065  0.7705
 6126TIP3    H139793   6.312   3.752  15.709  1.0261  1.8109  0.4255
 6126TIP3    H239794   6.350   3.809  15.844 -0.3629 -0.0094  1.6288
 6127TIP3   OH239795   5.246   5.859  11.865  0.1135 -0.1983 -0.5204
 6127TIP3    H139796   5.248   5.798  11.791 -1.8314  0.6718 -1.3646
 6127TIP3    H239797   5.293   5.937  11.833 -2.4505  0.9897 -1.7326
 6128TIP3   OH239798   6.243   4.122   4.308 -0.0677  0.2057 -0.4175
 6128TIP3    H139799   6.168   4.089   4.258 -0.3456 -0.3354  0.3497
 6128TIP3    H239800   6.241   4.217   4.292  0.1567 -0.0009 -1.8378
 6129TIP3   OH239801   6.142   3.237  12.686  0.0718 -0.0258 -0.3803
 6129TIP3    H139802   6.206   3.287  12.634  2.6059 -0.6398  1.9151
 6129TIP3    H239803   6.113   3.167  12.627  1.3022  0.4339 -1.5949
 6130TIP3   OH239804   1.219   1.279  12.445 -0.4146  0.1488  0.5397
 6130TIP3    H139805   1.218   1.344  12.375 -1.4692  2.2951  2.4195
 6130TIP3    H239806   1.288   1.309  12.504 -0.8294 -0.5071  1.3797
 6131TIP3   OH239807   0.462   0.765   3.420 -0.1057 -0.2937 -0.1790
 6131TIP3    H139808   0.442   0.761   3.327  0.6159 -2.9588 -0.2915
 6131TIP3    H239809   0.517   0.688   3.437 -1.0519 -0.4841  2.6417
 6132TIP3   OH239810   6.307   4.377  15.329  0.1301  0.3798 -0.1930
 6132TIP3    H139811   6.212   4.367  15.319  0.2910 -2.0841  0.1244
 6132TIP3    H239812   6.332   4.306  15.388  2.3255  0.3034 -1.1466
 6133TIP3   OH239813   5.092   1.349   2.941 -0.1519 -0.7826  0.4264
 6133TIP3    H139814   5.051   1.271   2.904  0.7586 -1.1417  0.1428
 6133TIP3    H239815   5.173   1.317   2.981  0.5601  0.1061 -0.2538
 6134TIP3   OH239816   2.855   5.876   1.497  0.5643 -0.0366 -0.8347
 6134TIP3    H139817   2.903   5.895   1.417  2.3353 -2.5061 -0.5022
 6134TIP3    H239818   2.912   5.907   1.567  1.9926 -3.1513 -0.4261
 6135TIP3   OH239819   5.824   5.114   2.927  0.3096  0.4028  0.2474
 6135TIP3    H139820   5.912   5.076   2.938  0.2092  0.7486  3.0267
 6135TIP3    H239821   5.838   5.208   2.933 -0.0809  0.5551 -1.0583
 6136TIP3   OH239822   1.830   5.839   3.423 -0.6598  0.3384  0.1630
 6136TIP3    H139823   1.753   5.896   3.425 -0.5697  0.4500  0.5854
 6136TIP3    H239824   1.801   5.757   3.464 -1.3111 -0.6068 -2.0565
 6137TIP3   OH239825   3.383   1.600  15.027  0.1160 -0.5848 -0.4881
 6137TIP3    H139826   3.438   1.523  15.043  0.6528 -0.0196  0.4383
 6137TIP3    H239827   3.444   1.669  15.002 -0.4225 -0.5969 -1.9541
 6138TIP3   OH239828   2.551   3.865  12.523  0.0203 -0.3293  0.4932
 6138TIP3    H139829   2.643   3.838  12.529  0.0776 -0.0200  1.1799
 6138TIP3    H239830   2.515   3.814  12.451  0.5478 -1.0025  0.6968
 6139TIP3   OH239831   5.955   0.886  16.982 -0.0838  0.1926  0.0053
 6139TIP3    H139832   5.953   0.931  17.067 -0.8657  0.6422 -0.2385
 6139TIP3    H239833   6.041   0.908  16.946  0.4063 -0.3215  0.8466
 6140TIP3   OH239834   6.651   4.562  11.443  0.7241  0.0617  0.3105
 6140TIP3    H139835   6.606   4.578  11.360  1.5851 -0.0451 -0.1880
 6140TIP3    H239836   6.740   4.541  11.418  0.9016 -0.3467  1.2520
 6141TIP3   OH239837   4.728   5.812   2.016 -0.1449  0.0542 -0.5194
 6141TIP3    H139838   4.633   5.817   2.027 -0.0355  0.0204  0.4923
 6141TIP3    H239839   4.764   5.851   2.096  0.7014  1.1514 -1.4028
 6142TIP3   OH239840   4.195   5.463   0.387  0.0622 -0.2756  0.0662
 6142TIP3    H139841   4.220   5.475   0.295  0.1806 -2.0550 -0.1783
 6142TIP3    H239842   4.216   5.546   0.429 -1.3556  1.1201 -1.7976
 6143TIP3   OH239843   6.525   5.667  17.100  0.2970 -0.0106 -0.1182
 6143TIP3    H139844   6.465   5.671  17.026  0.4168 -1.3716 -0.3143
 6143TIP3    H239845   6.501   5.587  17.146  0.6315  0.5047  0.9693
 6144TIP3   OH239846   1.275   2.103  16.152  0.2580 -0.5941  0.7487
 6144TIP3    H139847   1.271   2.032  16.088 -3.3151 -0.4499  0.6237
 6144TIP3    H239848   1.288   2.181  16.099  2.5364 -0.9174  0.7429
 6145TIP3   OH239849   5.070   0.536  15.465 -0.4259  0.1895 -0.0071
 6145TIP3    H139850   5.112   0.450  15.467  1.0830  0.8890  1.4143
 6145TIP3    H239851   4.995   0.525  15.407 -0.2990 -2.0861  0.1616
 6146TIP3   OH239852   6.297   0.191   3.748 -0.3731  0.2834  0.8543
 6146TIP3    H139853   6.320   0.164   3.836  1.3635 -0.3248  0.2598
 6146TIP3    H239854   6.365   0.153   3.692 -0.1412  2.4855 -0.5015
 6147TIP3   OH239855   2.601   1.347   2.282 -0.7636 -0.9398  0.0372
 6147TIP3    H139856   2.593   1.381   2.371 -0.6416 -0.6518 -0.0611
 6147TIP3    H239857   2.579   1.421   2.226  3.2143  0.1783 -0.3026
 6148TIP3   OH239858   5.376   2.444   0.322  0.8034  0.4186 -0.2215
 6148TIP3    H139859   5.441   2.460   0.390  1.5019  1.4013 -1.0918
 6148TIP3    H239860   5.292   2.447   0.368  1.3396 -0.4743  0.8436
 6149TIP3   OH239861   4.725   3.809  12.568 -0.0002 -0.0210  0.1732
 6149TIP3    H139862   4.695   3.729  12.613 -0.9203  0.9577  1.3637
 6149TIP3    H239863   4.820   3.810  12.584 -0.0518 -0.6118  0.5842
 6150TIP3   OH239864   3.834   4.802  13.168  0.9092  0.3760 -0.1545
 6150TIP3    H139865   3.781   4.862  13.221  2.8300  1.5232  0.5679
 6150TIP3    H239866   3.772   4.735  13.140 -1.4379  2.7412 -1.1654
 6151TIP3   OH239867   6.531   3.663   2.603  0.6204  0.1569  0.0755
 6151TIP3    H139868   6.613   3.648   2.556  0.1596 -1.0324 -0.3868
 6151TIP3    H239869   6.468   3.686   2.534  0.2383 -0.3503  0.2500
 6152TIP3   OH239870   6.359   4.094  14.532  0.3493 -0.2677  0.0566
 6152TIP3    H139871   6.418   4.161  14.567  0.5596 -0.5210  0.1960
 6152TIP3    H239872   6.394   4.012  14.565  0.5374 -0.5159 -0.7249
 6153TIP3   OH239873   6.197   0.982  16.857 -0.8293 -0.3639  0.5145
 6153TIP3    H139874   6.158   1.050  16.802 -1.6785 -0.1623  1.3386
 6153TIP3    H239875   6.257   0.935  16.799 -0.1622  1.1331 -0.0540
 6154TIP3   OH239876   3.879   6.544  16.625 -0.2126 -0.0829  0.3797
 6154TIP3    H139877   3.889   6.638  16.638 -0.7224  0.2926 -1.6036
 6154TIP3    H239878   3.798   6.522  16.673 -0.3997  0.5973  0.3865
 6155TIP3   OH239879   4.548   3.849  14.098 -0.1382 -0.2748 -1.0933
 6155TIP3    H139880   4.496   3.779  14.060 -1.6646 -0.9718  1.9771
 6155TIP3    H239881   4.636   3.813  14.107 -0.1622 -0.6615 -2.3259
 6156TIP3   OH239882   3.575   1.260   1.642  0.1748  0.1809 -0.1157
 6156TIP3    H139883   3.592   1.352   1.621  0.6981  0.4190  1.2476
 6156TIP3    H239884   3.648   1.212   1.601  0.3928  0.4701 -0.0689
 6157TIP3   OH239885   1.340   4.694   3.787  0.1340  0.0915 -0.0479
 6157TIP3    H139886   1.298   4.611   3.763 -2.0452  1.1742 -0.2160
 6157TIP3    H239887   1.306   4.713   3.874  1.9858  0.0126  0.7511
 6158TIP3   OH239888   6.402   0.081   0.510  0.0781  0.3838 -0.0667
 6158TIP3    H139889   6.315   0.105   0.542 -0.1650  0.1852 -0.5770
 6158TIP3    H239890   6.445   0.165   0.493  0.2129  0.4952  0.7660
 6159TIP3   OH239891   6.739   0.884   5.181 -0.2344  0.2571  0.5807
 6159TIP3    H139892   6.755   0.804   5.130  1.4525  0.5030  0.6516
 6159TIP3    H239893   6.656   0.918   5.147 -1.0228 -1.5508  0.6025
 6160TIP3   OH239894   3.707   3.415   1.321  0.0159 -0.1800  0.2662
 6160TIP3    H139895   3.730   3.330   1.285  1.5493 -0.3361  1.5184
 6160TIP3    H239896   3.736   3.412   1.412 -0.3323  1.5190  0.4731
 6161TIP3   OH239897   0.796   0.128   1.223  0.4621  0.0792 -0.6344
 6161TIP3    H139898   0.747   0.047   1.212 -0.5907  0.5061  0.6697
 6161TIP3    H239899   0.878   0.113   1.176  0.8270 -2.2217  0.5928
 6162TIP3   OH239900   6.026   5.819  16.822  0.2759  0.5355 -0.3541
 6162TIP3    H139901   5.963   5.787  16.887  0.7164  2.0070  0.8420
 6162TIP3    H239902   5.995   5.906  16.799  0.2417  0.1097 -2.0046
 6163TIP3   OH239903   4.775   2.326  17.090  0.2767  0.3981  0.5249
 6163TIP3    H139904   4.686   2.347  17.063  0.7906  1.6031 -0.3061
 6163TIP3    H239905   4.815   2.410  17.111  1.3512 -0.0716  0.4373
 6164TIP3   OH239906   3.847   2.435   0.189  0.2026 -0.0625  0.3338
 6164TIP3    H139907   3.762   2.406   0.224 -0.9281  0.7392 -1.5966
 6164TIP3    H239908   3.861   2.521   0.230  0.0993 -0.1977  0.6603
 6165TIP3   OH239909   1.778   0.666   5.965 -0.5322  0.0352 -0.5991
 6165TIP3    H139910   1.708   0.732   5.973 -1.0802 -0.7546  2.3876
 6165TIP3    H239911   1.820   0.666   6.051  1.0879 -1.7758 -1.3276
 6166TIP3   OH239912   0.184   0.674   3.096  0.5178  0.6653  0.4890
 6166TIP3    H139913   0.111   0.618   3.069 -0.5413  2.8831 -1.6795
 6166TIP3    H239914   0.262   0.630   3.064 -0.2245  0.1182 -0.6100
 6167TIP3   OH239915   0.841   3.705   5.465 -0.4403  0.2642 -0.4818
 6167TIP3    H139916   0.855   3.673   5.376 -0.0264  1.7492 -0.9944
 6167TIP3    H239917   0.896   3.650   5.520  0.4995  0.3044 -1.3560
 6168TIP3   OH239918   5.430   1.686  15.462  0.2385  0.1984  0.1711
 6168TIP3    H139919   5.409   1.606  15.511 -4.2690  2.6166  2.9529
 6168TIP3    H239920   5.363   1.691  15.394 -1.2374  2.5889  1.6362
 6169TIP3   OH239921   2.974   6.552   3.417 -0.5993  0.2210 -0.1247
 6169TIP3    H139922   2.913   6.484   3.444 -0.4847  0.2707  0.2577
 6169TIP3    H239923   3.012   6.519   3.335 -0.8586  0.0209 -0.1653
 6170TIP3   OH239924   1.561   4.596  11.700  0.1325  0.5881 -0.2929
 6170TIP3    H139925   1.634   4.540  11.723  0.8713  1.5975 -0.0909
 6170TIP3    H239926   1.514   4.609  11.783 -1.5361 -1.7322 -0.7826
 6171TIP3   OH239927   6.716   2.814   4.054 -0.0801  0.6862  0.5269
 6171TIP3    H139928   6.756   2.786   3.972  0.7511  0.8941  0.8455
 6171TIP3    H239929   6.700   2.733   4.102  0.2499  0.6179  0.5233
 6172TIP3   OH239930   1.405   6.664   3.866  0.0926 -0.0850  0.3458
 6172TIP3    H139931   1.371   6.658   3.956  0.1101  1.5174  0.4790
 6172TIP3    H239932   1.441   6.752   3.860  1.4973 -0.6918 -0.7638
 6173TIP3   OH239933   0.775   5.428   1.722 -0.6331 -0.2407  0.3487
 6173TIP3    H139934   0.845   5.472   1.676 -0.9813 -0.0965 -0.0427
 6173TIP3    H239935   0.814   5.345   1.751  0.4368  0.8432  2.2546
 6174TIP3   OH239936   1.108   6.063   6.511  0.2221 -0.3739  0.0441
 6174TIP3    H139937   1.153   6.147   6.513 -0.2515 -0.0715 -1.1811
 6174TIP3    H239938   1.178   5.998   6.517  0.5651  0.0769  1.4176
 6175TIP3   OH239939   5.760   4.757   3.760  0.4786  0.0764  0.3623
 6175TIP3    H139940   5.744   4.813   3.684  0.2776  0.6165  0.7966
 6175TIP3    H239941   5.672   4.733   3.791  0.5575 -0.0904  0.4595
 6176TIP3   OH239942   5.178   2.876  12.835 -0.0835 -0.1909 -0.0086
 6176TIP3    H139943   5.191   2.825  12.755 -1.0674 -0.5103  0.0227
 6176TIP3    H239944   5.100   2.838  12.875  0.7632 -0.4473  1.4443
 6177TIP3   OH239945   4.486   1.289  15.448 -0.0426  0.1689  0.2687
 6177TIP3    H139946   4.441   1.213  15.484  1.3851 -0.2982  1.1739
 6177TIP3    H239947   4.457   1.362  15.503 -0.7734  0.1452 -0.0724
 6178TIP3   OH239948   5.704   1.183  15.226  0.2256  0.3361 -0.0671
 6178TIP3    H139949   5.636   1.237  15.265 -0.0265 -0.5912  0.8209
 6178TIP3    H239950   5.785   1.210  15.269 -0.0485 -0.6709  1.1279
 6179TIP3   OH239951   3.724   2.217  11.771 -0.4287  0.3125 -0.0708
 6179TIP3    H139952   3.789   2.272  11.728 -0.4913  0.9258  0.5954
 6179TIP3    H239953   3.641   2.244  11.731 -0.4629  0.7351  0.2726
 6180TIP3   OH239954   2.368   1.299  15.352 -0.6181  0.0329 -0.0351
 6180TIP3    H139955   2.341   1.210  15.374 -0.3262 -0.0498 -0.0078
 6180TIP3    H239956   2.456   1.307  15.388 -0.2197 -0.0252 -0.9611
 6181TIP3   OH239957   6.580   3.914  14.837 -0.2440  0.2151  0.0872
 6181TIP3    H139958   6.577   3.827  14.878 -0.0057  0.3422  0.3786
 6181TIP3    H239959   6.672   3.938  14.840  0.0480 -0.4251 -1.9128
 6182TIP3   OH239960   2.013   5.783   5.709  0.1136  0.8673 -0.2031
 6182TIP3    H139961   1.926   5.776   5.670  1.3711 -2.9924 -2.9300
 6182TIP3    H239962   2.002   5.748   5.798 -0.8877 -1.4975 -1.1717
 6183TIP3   OH239963   5.938   3.614   6.239 -0.0548  0.1101  0.3473
 6183TIP3    H139964   6.023   3.603   6.196 -0.6153 -0.6382 -0.6401
 6183TIP3    H239965   5.895   3.529   6.227 -0.5553  0.1579  1.7177
 6184TIP3   OH239966   3.638   5.756   4.925 -0.4316  0.0790 -0.0647
 6184TIP3    H139967   3.580   5.801   4.987 -0.5407  0.1896 -0.2452
 6184TIP3    H239968   3.726   5.782   4.952 -0.4145 -0.7506  0.7281
 6185TIP3   OH239969   1.551   2.824  11.201 -0.4450  0.4046 -0.2046
 6185TIP3    H139970   1.646   2.813  11.198 -0.1403  2.4437  0.7332
 6185TIP3    H239971   1.537   2.916  11.224 -2.6390 -0.1270  0.9219
 6186TIP3   OH239972   3.348   0.383  15.729  0.0393  0.0723 -0.3702
 6186TIP3    H139973   3.286   0.417  15.794 -1.4292 -0.4506 -1.4367
 6186TIP3    H239974   3.321   0.293  15.715 -0.1507  0.3746 -2.2079
 6187TIP3   OH239975   1.588   5.562   2.914  0.5727 -0.3744  0.1528
 6187TIP3    H139976   1.646   5.519   2.978 -0.0012 -0.9059  0.3259
 6187TIP3    H239977   1.578   5.651   2.947 -1.0396 -1.0866  1.7284
 6188TIP3   OH239978   5.193   5.740   4.549  0.8463 -0.8514  0.5993
 6188TIP3    H139979   5.126   5.748   4.481  1.4607  1.5043  0.1845
 6188TIP3    H239980   5.271   5.709   4.503  1.3080  0.8943  0.1275
 6189TIP3   OH239981   2.512   0.902   2.732  0.2251  1.1649  0.5573
 6189TIP3    H139982   2.480   0.848   2.660  0.3733  0.8124  0.7572
 6189TIP3    H239983   2.438   0.960   2.752  1.0174  3.0410 -1.5671
 6190TIP3   OH239984   1.984   0.531   5.510 -0.3103 -0.6221  0.4399
 6190TIP3    H139985   1.963   0.617   5.546  1.1045 -0.2189  0.3637
 6190TIP3    H239986   1.900   0.484   5.508 -0.9389  0.4273  1.3343
 6191TIP3   OH239987   3.893   4.164  11.093 -0.0055  0.3546  0.4070
 6191TIP3    H139988   3.798   4.152  11.094  0.0547 -0.2359 -0.4589
 6191TIP3    H239989   3.916   4.169  11.186 -0.9573  1.2333  0.6269
 6192TIP3   OH239990   0.804   6.438   6.179 -0.0092  0.1186  0.6901
 6192TIP3    H139991   0.830   6.530   6.176 -1.3255  0.5148  1.0125
 6192TIP3    H239992   0.808   6.409   6.088 -0.3173  0.7076  0.4864
 6193TIP3   OH239993   3.421   2.798   2.618  0.3441  0.3411 -0.0597
 6193TIP3    H139994   3.479   2.873   2.602 -0.6987  1.1597 -0.1246
 6193TIP3    H239995   3.339   2.837   2.648  0.2799 -0.8647  1.4274
 6194TIP3   OH239996   4.265   5.435  14.790 -0.1269 -0.3278  0.2763
 6194TIP3    H139997   4.274   5.493  14.866  1.0492 -0.1352  0.0037
 6194TIP3    H239998   4.312   5.479  14.720 -0.0202 -1.1592 -0.1905
 6195TIP3   OH239999   6.708   5.702  14.602 -0.3004  0.5646  0.3398
 6195TIP3    H140000   6.780   5.745  14.557 -0.6199 -0.4590 -1.2384
 6195TIP3    H240001   6.684   5.762  14.672  1.0827  1.6229 -0.0482
 6196TIP3   OH240002   2.746   5.917  12.509 -0.4332 -0.1754  0.6377
 6196TIP3    H140003   2.756   5.871  12.426 -1.2265  1.2730 -0.3243
 6196TIP3    H240004   2.813   5.880  12.567  0.3503 -0.9895 -0.7542
 6197TIP3   OH240005   4.585   0.392   1.820 -0.1434 -0.3151 -0.1280
 6197TIP3    H140006   4.552   0.482   1.831  3.2714  0.9353  1.1289
 6197TIP3    H240007   4.558   0.347   1.900 -2.7584 -0.8418 -1.2004
 6198TIP3   OH240008   6.234   5.160   3.945 -0.1117  0.1069  0.1065
 6198TIP3    H140009   6.210   5.160   4.037  0.3480  0.4900  0.2340
 6198TIP3    H240010   6.216   5.249   3.915 -0.9928 -0.2225 -0.3805
 6199TIP3   OH240011   6.545   5.575   0.516  0.0374  0.2437 -0.4260
 6199TIP3    H140012   6.509   5.663   0.515  2.5226  1.5320  2.5675
 6199TIP3    H240013   6.488   5.526   0.576  0.6825  0.9627  0.8122
 6200TIP3   OH240014   2.171   4.183  12.821 -0.0034 -0.0220  0.4055
 6200TIP3    H140015   2.079   4.207  12.811 -0.3786 -1.8310 -0.9363
 6200TIP3    H240016   2.174   4.136  12.904 -0.2316  0.2741  0.5851
 6201TIP3   OH240017   0.120   0.701   3.796  0.7367 -0.5576  0.7638
 6201TIP3    H140018   0.174   0.778   3.780  1.5494 -1.1737  0.4413
 6201TIP3    H240019   0.095   0.708   3.888  1.2686 -0.1918  0.8891
 6202TIP3   OH240020   6.016   6.553   5.657 -0.1794 -0.4631  0.0770
 6202TIP3    H140021   6.080   6.483   5.645  1.2071  0.6912  0.4445
 6202TIP3    H240022   6.031   6.584   5.746 -0.7583  0.3110 -0.0847
 6203TIP3   OH240023   3.606   4.434   4.282  0.0885 -0.1475  0.0591
 6203TIP3    H140024   3.634   4.458   4.194  1.7254  0.6434  0.7405
 6203TIP3    H240025   3.678   4.378   4.314 -0.9495 -1.2357  0.5573
 6204TIP3   OH240026   1.265   2.795   1.327 -0.4110 -0.0843 -0.3328
 6204TIP3    H140027   1.297   2.788   1.237  2.5069 -1.0209  0.6520
 6204TIP3    H240028   1.252   2.704   1.355  2.7429 -0.1321  1.3834
 6205TIP3   OH240029   1.436   2.366   1.843  0.1314  0.1590 -0.0111
 6205TIP3    H140030   1.488   2.440   1.812  0.0395 -0.8953 -2.9732
 6205TIP3    H240031   1.499   2.295   1.853 -0.3664 -0.6023 -1.8114
 6206TIP3   OH240032   2.767   3.212  15.980 -0.3287  0.3570  0.5873
 6206TIP3    H140033   2.806   3.129  15.952 -0.0565  1.1545 -1.6139
 6206TIP3    H240034   2.806   3.277  15.921  0.0044  2.1849  2.6875
 6207TIP3   OH240035   3.590   1.002   4.159 -0.0479 -0.2311 -0.2265
 6207TIP3    H140036   3.604   0.915   4.122 -1.5115 -0.4015 -0.4454
 6207TIP3    H240037   3.542   0.987   4.240 -0.5417  0.3842 -0.3979
 6208TIP3   OH240038   5.041   1.073   2.795 -0.3776 -0.0833 -0.2329
 6208TIP3    H140039   4.958   1.119   2.808  0.6709  2.4148 -1.5583
 6208TIP3    H240040   5.020   0.981   2.810 -2.8748  0.6643  1.5694
 6209TIP3   OH240041   1.016   5.602  10.264  0.3525 -1.0961  0.0319
 6209TIP3    H140042   0.996   5.690  10.231 -2.3725 -1.0282  1.5755
 6209TIP3    H240043   1.090   5.615  10.323  0.5383  0.0012 -0.4068
 6210TIP3   OH240044   3.394   4.489  15.464  0.7675  0.7748 -0.1927
 6210TIP3    H140045   3.338   4.482  15.541  2.2490  1.1660  0.9633
 6210TIP3    H240046   3.415   4.398  15.442 -1.9470  0.4469 -1.9746
 6211TIP3   OH240047   2.733   4.662  16.336  0.7785  0.0420 -0.1469
 6211TIP3    H140048   2.726   4.733  16.273 -1.5962  1.5341  1.5918
 6211TIP3    H240049   2.814   4.678  16.383  1.9024 -0.3420 -1.8814
 6212TIP3   OH240050   2.790   3.299  14.391  0.2643  0.5594  0.0275
 6212TIP3    H140051   2.755   3.386  14.374  1.0271  1.0744  0.9554
 6212TIP3    H240052   2.717   3.250  14.429 -0.1255  0.8421 -0.3507
 6213TIP3   OH240053   1.918   1.353  12.708 -0.2482  0.3406  0.6952
 6213TIP3    H140054   2.001   1.356  12.755  0.1747  1.2066 -0.0757
 6213TIP3    H240055   1.852   1.355  12.776  0.3032 -2.4057  1.4596
 6214TIP3   OH240056   0.324   0.924   2.420 -0.1837  0.1018 -0.9171
 6214TIP3    H140057   0.369   0.965   2.346 -1.7398  1.2674 -1.2727
 6214TIP3    H240058   0.375   0.952   2.497  0.0274  0.9250 -1.3454
 6215TIP3   OH240059   1.838   4.022   3.576  0.0290  0.8573  0.1497
 6215TIP3    H140060   1.844   4.114   3.599 -1.1887  1.3300 -1.2977
 6215TIP3    H240061   1.757   4.014   3.526  0.1455 -0.9834  0.1579
 6216TIP3   OH240062   5.992   0.669  14.646 -0.2300  0.2350  0.1372
 6216TIP3    H140063   6.070   0.621  14.673  1.0035  1.5652 -0.9598
 6216TIP3    H240064   5.993   0.664  14.550 -0.7409  1.4175  0.0617
 6217TIP3   OH240065   4.474   3.248   2.735  0.7261 -0.2727  0.1975
 6217TIP3    H140066   4.457   3.328   2.686 -0.8714 -0.1300  0.9002
 6217TIP3    H240067   4.408   3.186   2.702  0.9989 -0.8305  0.6860
 6218TIP3   OH240068   2.826   5.190   2.007 -0.2679  0.3395 -0.0610
 6218TIP3    H140069   2.907   5.195   2.058 -1.4606  2.5519  1.8503
 6218TIP3    H240070   2.817   5.277   1.967 -1.5643  0.0609 -0.4380
 6219TIP3   OH240071   4.035   4.879   0.615  0.0223 -0.0172 -0.6117
 6219TIP3    H140072   3.959   4.859   0.670  0.3481 -0.5634 -0.3420
 6219TIP3    H240073   4.097   4.809   0.635  0.2909 -0.0156 -1.4137
 6220TIP3   OH240074   6.800   0.820   4.320 -0.5320  0.3849  0.0269
 6220TIP3    H140075   6.868   0.887   4.317 -0.4891  0.3776  0.6118
 6220TIP3    H240076   6.723   0.865   4.355 -1.0079  0.5309 -1.1642
 6221TIP3   OH240077   4.708   3.894  13.318  0.5439  0.2741 -0.0487
 6221TIP3    H140078   4.676   3.909  13.229  1.8874  1.7311 -0.3186
 6221TIP3    H240079   4.662   3.960  13.371  2.2271  1.6920 -0.2703
 6222TIP3   OH240080   0.064   2.869   2.095  0.3114 -0.0583 -0.8061
 6222TIP3    H140081   0.062   2.952   2.143  0.6435 -0.0739 -0.7661
 6222TIP3    H240082   0.139   2.878   2.036  0.6711 -0.5384 -0.4314
 6223TIP3   OH240083   6.461   4.920   2.455  0.6876 -0.0256 -0.3859
 6223TIP3    H140084   6.522   4.869   2.507  2.0944  2.9942  1.1846
 6223TIP3    H240085   6.377   4.876   2.467  1.7446 -1.8436  0.9324
 6224TIP3   OH240086   5.713   0.540  15.581  0.2007  0.2801 -0.2516
 6224TIP3    H140087   5.802   0.569  15.561 -0.4229  2.8422  0.3570
 6224TIP3    H240088   5.656   0.605  15.539 -1.4037 -1.1375 -0.4059
 6225TIP3   OH240089   4.121   5.990   1.313 -0.0861 -0.0929 -0.7091
 6225TIP3    H140090   4.115   5.959   1.403 -0.0314 -0.5662 -0.8661
 6225TIP3    H240091   4.171   6.072   1.319  1.3918 -0.9775 -0.4924
 6226TIP3   OH240092   1.847   5.332   3.648  0.1708  0.7663  0.0261
 6226TIP3    H140093   1.756   5.341   3.679  0.1979 -3.0704  1.7386
 6226TIP3    H240094   1.840   5.291   3.562  0.1644 -2.0674  1.2762
 6227TIP3   OH240095   3.262   1.759  16.155  1.0051 -0.8689 -0.6787
 6227TIP3    H140096   3.185   1.724  16.110  0.8557 -0.1995 -0.9542
 6227TIP3    H240097   3.333   1.753  16.090  1.0269 -0.8410 -0.6573
 6228TIP3   OH240098   2.403   0.412   1.885 -0.7621 -0.0474 -0.2276
 6228TIP3    H140099   2.320   0.423   1.932 -1.4913  1.3616 -1.7406
 6228TIP3    H240100   2.387   0.339   1.826 -0.9593  0.2434 -0.5408
 6229TIP3   OH240101   4.602   4.021  11.589  0.6376 -1.1307  0.3965
 6229TIP3    H140102   4.685   3.987  11.622  0.3096 -1.9300  0.4175
 6229TIP3    H240103   4.557   3.944  11.554  0.1329 -0.6154 -0.1030
 6230TIP3   OH240104   4.457   0.542   2.901  0.4508  0.4039 -0.2043
 6230TIP3    H140105   4.413   0.611   2.949  1.5246  2.9128 -2.5697
 6230TIP3    H240106   4.523   0.508   2.961 -0.7386  0.7182  1.3279
 6231TIP3   OH240107   5.329   1.386  11.838  0.0604 -0.3299  0.8117
 6231TIP3    H140108   5.423   1.372  11.822 -0.5659 -1.1442 -3.1775
 6231TIP3    H240109   5.286   1.321  11.782 -2.8857  1.4079  0.8900
 6232TIP3   OH240110   2.810   1.191   4.312  0.0032  0.3515  0.0170
 6232TIP3    H140111   2.851   1.122   4.260  1.7777  0.2305  1.4880
 6232TIP3    H240112   2.748   1.232   4.252  1.1201 -0.5229 -1.8298
 6233TIP3   OH240113   5.013   0.849  11.580 -0.0998  0.6678  0.8256
 6233TIP3    H140114   5.063   0.909  11.635 -0.9460  0.5314  1.7811
 6233TIP3    H240115   5.065   0.769  11.579  1.1783  1.4815 -0.6979
 6234TIP3   OH240116   4.725   2.584   4.893 -0.5272 -0.7507 -0.0830
 6234TIP3    H140117   4.780   2.662   4.891 -3.1995  1.3258  0.2084
 6234TIP3    H240118   4.756   2.534   4.968 -0.2097  1.3175  1.2542
 6235TIP3   OH240119   4.538   6.670   0.264 -0.1939 -0.5218  0.4685
 6235TIP3    H140120   4.485   6.749   0.277  0.8847 -0.0520  2.4905
 6235TIP3    H240121   4.512   6.612   0.336 -1.1304 -2.1462 -1.1116
 6236TIP3   OH240122   6.004   6.685   1.142  0.3956 -0.4530  0.1941
 6236TIP3    H140123   5.976   6.630   1.215 -0.3936 -0.2328  0.0719
 6236TIP3    H240124   6.045   6.761   1.183  1.5636 -1.1572  0.3629
 6237TIP3   OH240125   2.800   1.236   5.256 -0.3659 -0.2514  0.4783
 6237TIP3    H140126   2.817   1.143   5.247  1.3508  0.1375 -0.7075
 6237TIP3    H240127   2.705   1.243   5.258 -0.5387 -1.9542 -0.2731
 6238TIP3   OH240128   5.712   6.490  12.348  0.3171 -0.4962 -0.2991
 6238TIP3    H140129   5.697   6.442  12.266  0.8706  1.8264 -1.8378
 6238TIP3    H240130   5.771   6.434  12.399  1.5685 -1.1148 -2.3419
 6239TIP3   OH240131   4.287   6.239  15.601  0.5565  0.8908 -0.4293
 6239TIP3    H140132   4.236   6.195  15.669  1.7179 -1.0869 -0.7455
 6239TIP3    H240133   4.225   6.251  15.529 -0.4577  2.2313  0.6025
 6240TIP3   OH240134   2.363   5.939   3.889 -0.1193  0.1117 -0.0591
 6240TIP3    H140135   2.298   5.960   3.957 -0.6371 -0.2765 -0.4304
 6240TIP3    H240136   2.437   5.996   3.909 -0.0257 -0.4081  1.1881
 6241TIP3   OH240137   5.230   4.245  14.430 -0.5537  0.0808 -0.1357
 6241TIP3    H140138   5.278   4.304  14.488  0.6651 -1.3669  0.3860
 6241TIP3    H240139   5.168   4.302  14.385  1.0065  1.8848 -0.1534
 6242TIP3   OH240140   0.125   5.728   0.143 -0.5834 -0.1657  0.4116
 6242TIP3    H140141   0.079   5.781   0.209 -0.4793 -2.2915  2.3138
 6242TIP3    H240142   0.160   5.654   0.192  1.0070 -0.9741 -1.7835
 6243TIP3   OH240143   6.271   3.364  14.938 -0.1271 -0.4011 -0.4248
 6243TIP3    H140144   6.190   3.366  14.887 -0.8396 -1.9320  0.5682
 6243TIP3    H240145   6.312   3.280  14.914 -0.7307 -1.4013  1.8093
 6244TIP3   OH240146   0.419   6.242   4.945  0.0685  0.4134  0.1298
 6244TIP3    H140147   0.403   6.159   4.988  2.6697  0.2421  0.9047
 6244TIP3    H240148   0.439   6.303   5.016  4.3498  0.1421 -0.6160
 6245TIP3   OH240149   3.610   1.592   5.037  0.2256  0.2036  1.1536
 6245TIP3    H140150   3.663   1.571   5.114 -0.1605 -0.0538  1.3530
 6245TIP3    H240151   3.582   1.507   5.003  0.1316  0.3294  0.9148
 6246TIP3   OH240152   2.770   4.176   3.437 -0.0246 -0.4509 -0.0188
 6246TIP3    H140153   2.684   4.138   3.457  0.2296 -1.2352 -0.3756
 6246TIP3    H240154   2.801   4.128   3.360  1.2342 -1.0058  0.7887
 6247TIP3   OH240155   6.231   1.898  11.793 -0.6218  0.1798  0.1551
 6247TIP3    H140156   6.261   1.983  11.762 -0.7229  0.0758 -0.2252
 6247TIP3    H240157   6.198   1.915  11.881 -1.3690  0.6851 -0.2138
 6248TIP3   OH240158   1.028   1.308  16.158  0.1013 -0.5059  0.7245
 6248TIP3    H140159   1.078   1.287  16.079 -0.9565 -1.9804  0.4126
 6248TIP3    H240160   0.979   1.387  16.135  0.1486 -0.6662  0.0584
 6249TIP3   OH240161   1.055   6.180   2.726  0.3206 -0.1316 -0.0459
 6249TIP3    H140162   0.990   6.232   2.773  0.3332  0.4683 -0.6693
 6249TIP3    H240163   1.073   6.105   2.783  1.2917  1.2073  1.4963
 6250TIP3   OH240164   4.322   5.722   4.026 -0.3620  0.6324 -0.0405
 6250TIP3    H140165   4.309   5.745   3.934 -1.5643  1.6951  0.3618
 6250TIP3    H240166   4.265   5.646   4.040  2.6972 -2.0810 -1.0629
 6251TIP3   OH240167   6.626   4.076  14.273  0.9131  1.1474 -0.3604
 6251TIP3    H140168   6.640   4.057  14.366 -2.3993 -1.1888 -0.1662
 6251TIP3    H240169   6.672   4.007  14.227 -0.8927 -0.2485 -0.1806
 6252TIP3   OH240170   2.455   5.196  14.849 -0.2990  0.5398 -0.5120
 6252TIP3    H140171   2.431   5.258  14.781 -0.0978  0.8884 -0.2683
 6252TIP3    H240172   2.466   5.249  14.928  0.1745  0.2426 -0.3699
 6253TIP3   OH240173   5.448   4.045  14.728 -0.0006  0.9952  0.2591
 6253TIP3    H140174   5.386   3.991  14.679  0.9934 -0.2213  0.3052
 6253TIP3    H240175   5.443   4.011  14.817 -0.0734  1.6376  0.5055
 6254TIP3   OH240176   3.511   3.007  14.420 -0.4323 -0.1050 -0.1812
 6254TIP3    H140177   3.507   2.933  14.359  1.2616 -0.5215  0.1687
 6254TIP3    H240178   3.538   3.081  14.365  1.4858 -0.5633  0.0681
 6255TIP3   OH240179   5.069   3.642   1.032 -0.3536 -0.0111 -0.1388
 6255TIP3    H140180   5.092   3.610   0.944  0.4387 -1.5900  0.5984
 6255TIP3    H240181   5.153   3.661   1.073 -0.7162  0.5468  0.3576
 6256TIP3   OH240182   6.177   1.963   4.954  0.2735  0.5165  0.9883
 6256TIP3    H140183   6.263   1.968   4.911 -0.4051 -1.6200 -0.8424
 6256TIP3    H240184   6.189   1.899   5.024  0.5002  1.2849  1.6601
 6257TIP3   OH240185   5.887   1.748  12.089  0.1450  0.0463  0.3397
 6257TIP3    H140186   5.883   1.844  12.084  0.5862  0.1345  1.4012
 6257TIP3    H240187   5.795   1.721  12.082 -0.1440  0.6471  1.5084
 6258TIP3   OH240188   3.887   0.156   2.346  0.2241  0.1784  0.2158
 6258TIP3    H140189   3.886   0.089   2.414  0.9035 -0.5175 -0.4313
 6258TIP3    H240190   3.801   0.199   2.352  0.1956 -0.0160  1.3464
 6259TIP3   OH240191   1.497   5.803   5.430  0.0034  0.1914 -0.0212
 6259TIP3    H140192   1.492   5.866   5.502 -0.1425  0.7894 -0.5463
 6259TIP3    H240193   1.416   5.753   5.437  0.5534 -0.6127  0.9892
 6260TIP3   OH240194   1.951   4.353   2.963 -0.4851  0.4445 -0.1809
 6260TIP3    H140195   1.982   4.275   2.917  0.3449  1.1100 -0.7722
 6260TIP3    H240196   2.031   4.401   2.985 -0.9252  0.6150  1.1229
 6261TIP3   OH240197   2.148   0.931   1.095  0.4166 -0.7112 -0.3353
 6261TIP3    H140198   2.075   0.973   1.140  0.4651  1.5853 -2.2192
 6261TIP3    H240199   2.217   0.925   1.161 -0.4641 -0.1890  0.6620
 6262TIP3   OH240200   4.757   3.233  15.082 -0.2138  0.0693 -0.1915
 6262TIP3    H140201   4.753   3.168  15.152 -0.0620 -1.6448 -1.7076
 6262TIP3    H240202   4.818   3.196  15.018 -0.7819  1.3064 -1.5000
 6263TIP3   OH240203   1.740   1.790  15.470 -0.7791 -0.2375  0.5620
 6263TIP3    H140204   1.715   1.714  15.418 -0.6320 -2.3792  3.3556
 6263TIP3    H240205   1.752   1.756  15.559 -2.2856  3.3177  2.3684
 6264TIP3   OH240206   3.809   0.137  16.115  0.3318 -0.1020 -0.0673
 6264TIP3    H140207   3.764   0.116  16.197 -0.1250 -0.1532 -0.3284
 6264TIP3    H240208   3.793   0.062  16.059  2.1782 -0.8836  0.4076
 6265TIP3   OH240209   0.161   6.018   3.664 -0.1370 -0.6134 -0.2975
 6265TIP3    H140210   0.182   6.006   3.757  1.4146 -2.3137 -0.7979
 6265TIP3    H240211   0.161   5.929   3.628 -1.3080 -0.0414 -1.8261
 6266TIP3   OH240212   2.098   3.901  15.174  0.3480 -0.1408  0.1369
 6266TIP3    H140213   2.097   3.884  15.080  0.0227  0.1708  0.0783
 6266TIP3    H240214   2.184   3.871  15.204  0.2180 -0.7982 -0.1511
 6267TIP3   OH240215   1.442   2.437   1.514 -0.5960  0.2071  0.0660
 6267TIP3    H140216   1.366   2.492   1.492 -0.4479  0.2162 -0.4537
 6267TIP3    H240217   1.480   2.479   1.591 -1.1152  0.2032  0.3304
 6268TIP3   OH240218   3.552   4.587  11.677 -0.3068 -0.1050 -0.5161
 6268TIP3    H140219   3.523   4.549  11.761 -3.7294  0.8047 -1.1382
 6268TIP3    H240220   3.619   4.527  11.646 -0.6924 -1.8511  1.7370
 6269TIP3   OH240221   0.932   0.532  11.241  0.3443 -0.6261 -0.1367
 6269TIP3    H140222   0.887   0.585  11.175  0.4451  0.2221  0.4621
 6269TIP3    H240223   0.907   0.571  11.325  1.6830 -0.5329  0.2455
 6270TIP3   OH240224   6.147   6.243   5.428  0.3585  1.0380  0.5076
 6270TIP3    H140225   6.114   6.256   5.517 -0.4802 -1.5597  0.6683
 6270TIP3    H240226   6.120   6.154   5.406 -0.3005  1.9263 -2.7435
 6271TIP3   OH240227   1.157   5.922   1.549 -0.2051  1.0266 -0.1303
 6271TIP3    H140228   1.110   5.854   1.500  1.6366 -0.7922  0.4698
 6271TIP3    H240229   1.191   5.981   1.481  1.4687 -0.8911 -1.0824
 6272TIP3   OH240230   4.422   4.399  12.281 -0.4562 -0.4018  0.3341
 6272TIP3    H140231   4.405   4.445  12.199  0.0357  0.1192  0.5198
 6272TIP3    H240232   4.516   4.382  12.281 -0.3216  0.2616  1.1246
 6273TIP3   OH240233   2.371   0.445  11.529 -0.6362 -0.2037 -0.4341
 6273TIP3    H140234   2.363   0.435  11.623 -1.7832  0.0796 -0.4910
 6273TIP3    H240235   2.401   0.535  11.517  1.5801 -0.8464 -0.2859
 6274TIP3   OH240236   0.180   4.530   2.786 -0.0670 -0.1764  0.0541
 6274TIP3    H140237   0.165   4.613   2.740  0.2613 -0.3253 -0.3243
 6274TIP3    H240238   0.229   4.555   2.865  0.4448 -0.0650 -0.2966
 6275TIP3   OH240239   1.892   4.960  15.416 -0.0169 -0.1883 -0.2487
 6275TIP3    H140240   1.908   5.054  15.409  0.6469 -0.3859 -2.2687
 6275TIP3    H240241   1.805   4.948  15.377 -0.3602 -0.3578  0.5578
 6276TIP3   OH240242   2.680   5.803   5.953  0.8177 -0.8151  0.4408
 6276TIP3    H140243   2.722   5.835   5.873 -0.6922 -0.3323 -0.1971
 6276TIP3    H240244   2.752   5.770   6.007  1.9163 -0.6470 -0.8859
 6277TIP3   OH240245   6.450   2.351  14.961  0.4483 -0.6727  0.1840
 6277TIP3    H140246   6.481   2.434  14.924 -0.5863 -0.3188  0.1026
 6277TIP3    H240247   6.382   2.377  15.023  0.3526 -1.4465  0.4044
 6278TIP3   OH240248   1.117   1.858   5.480  0.5232 -0.2840 -0.0486
 6278TIP3    H140249   1.055   1.882   5.550 -0.4913  0.9063 -1.2960
 6278TIP3    H240250   1.069   1.876   5.399  2.1488 -0.3252 -1.0556
 6279TIP3   OH240251   5.695   0.681   2.101  0.3109  0.0810 -0.0519
 6279TIP3    H140252   5.638   0.704   2.028  1.0358 -0.2669 -0.7442
 6279TIP3    H240253   5.750   0.611   2.067  1.7044  0.9572  0.3218
 6280TIP3   OH240254   1.925   5.349   5.108  0.2315  0.0786 -0.4932
 6280TIP3    H140255   1.982   5.273   5.094  4.2259  2.9262 -1.7217
 6280TIP3    H240256   1.919   5.357   5.203  1.4815 -0.6825 -0.3146
 6281TIP3   OH240257   2.491   4.494  12.506  0.5804 -0.3657  0.5439
 6281TIP3    H140258   2.399   4.483  12.529  0.2774 -2.2317 -1.2680
 6281TIP3    H240259   2.532   4.410  12.531  1.4185 -0.1999 -0.2430
 6282TIP3   OH240260   0.505   4.352   5.235 -0.5731  0.0811  0.1332
 6282TIP3    H140261   0.418   4.386   5.212 -0.1947 -0.3419 -2.1063
 6282TIP3    H240262   0.557   4.430   5.252 -1.4260  0.3345  1.8226
 6283TIP3   OH240263   5.628   2.619  17.031 -0.0861 -0.2431 -0.0265
 6283TIP3    H140264   5.582   2.639  17.112  0.5111 -0.8145  0.4646
 6283TIP3    H240265   5.682   2.697  17.014 -1.8316  0.7915 -1.0680
 6284TIP3   OH240266   3.555   4.580  13.692  0.0981 -0.6526 -0.1290
 6284TIP3    H140267   3.572   4.570  13.598 -2.2714  0.1271 -0.7184
 6284TIP3    H240268   3.505   4.502  13.716 -0.0368 -0.4459  0.2769
 6285TIP3   OH240269   0.755   6.546   5.644  0.2230  0.0162  0.1860
 6285TIP3    H140270   0.838   6.498   5.638 -0.7745 -1.6222 -1.1575
 6285TIP3    H240271   0.689   6.484   5.613 -1.1876  2.1528 -1.3345
 6286TIP3   OH240272   5.222   6.357  11.541  0.7925 -0.8740  0.3313
 6286TIP3    H140273   5.256   6.301  11.611  1.3793 -1.0801 -0.1162
 6286TIP3    H240274   5.203   6.440  11.585  0.1593 -1.3228  0.9466
 6287TIP3   OH240275   2.823   0.091  16.872  1.1194 -0.4306  0.0141
 6287TIP3    H140276   2.880   0.062  16.944  0.6752 -0.5861  0.3022
 6287TIP3    H240277   2.761   0.020  16.861  0.9688 -0.2493 -0.2906
 6288TIP3   OH240278   0.872   3.955  15.532 -0.2953 -0.3960  0.0616
 6288TIP3    H140279   0.838   3.889  15.471 -0.1474 -1.1026  0.7250
 6288TIP3    H240280   0.958   3.977  15.497 -0.1715 -0.8669  0.0560
 6289TIP3   OH240281   0.322   0.473   4.343 -0.1518 -0.5016  0.0047
 6289TIP3    H140282   0.360   0.537   4.283  0.5319 -2.0243 -1.2536
 6289TIP3    H240283   0.394   0.447   4.400  0.3886 -2.2446 -1.3803
 6290TIP3   OH240284   5.346   5.653  13.423  0.2383  0.4567  0.2268
 6290TIP3    H140285   5.390   5.592  13.482 -0.1241  0.3886  0.4345
 6290TIP3    H240286   5.274   5.602  13.385 -0.5073  0.9388  0.9427
 6291TIP3   OH240287   0.094   6.804   5.831 -0.1460  0.1887  0.0274
 6291TIP3    H140288   0.106   6.777   5.922  1.5371  2.8637  0.7225
 6291TIP3    H240289   0.002   6.827   5.824 -0.3902 -0.4742  0.9186
 6292TIP3   OH240290   4.213   6.086   2.376  0.0100  0.1213 -0.1458
 6292TIP3    H140291   4.174   6.004   2.407 -1.0435  0.7601  0.3087
 6292TIP3    H240292   4.223   6.138   2.455  0.8521  0.3618 -0.4100
 6293TIP3   OH240293   5.297   6.100   2.256 -0.9080 -0.3592 -0.4175
 6293TIP3    H140294   5.358   6.128   2.325 -0.3990 -1.2277 -0.5030
 6293TIP3    H240295   5.334   6.134   2.175 -1.1232  0.0439 -0.3500
 6294TIP3   OH240296   0.095   2.887   5.280 -0.2091  0.2316 -0.0002
 6294TIP3    H140297   0.187   2.865   5.263  0.3564  2.4742 -0.0779
 6294TIP3    H240298   0.096   2.925   5.368 -1.2593 -0.6376  0.4121
 6295TIP3   OH240299   1.604   4.382   4.635  0.4256 -0.2810 -0.2101
 6295TIP3    H140300   1.509   4.381   4.621  0.3647  0.3103  0.1555
 6295TIP3    H240301   1.628   4.474   4.630  1.0300 -0.4503 -0.5887
 6296TIP3   OH240302   2.994   6.722   0.808  0.2084  0.1941  0.2000
 6296TIP3    H140303   3.086   6.704   0.822 -0.0806 -1.2971  0.2767
 6296TIP3    H240304   2.956   6.725   0.896 -0.3524 -2.3421  0.1236
 6297TIP3   OH240305   2.166   1.513  14.889  0.6497 -0.0848  0.4430
 6297TIP3    H140306   2.176   1.520  14.794 -0.2438 -0.4455  0.3150
 6297TIP3    H240307   2.256   1.510  14.922  1.0335 -2.5624 -0.5917
 6298TIP3   OH240308   3.146   4.811   4.579  0.1814 -0.3477  0.2191
 6298TIP3    H140309   3.213   4.797   4.512 -0.5263 -1.6986 -0.2516
 6298TIP3    H240310   3.167   4.746   4.647 -0.2177 -0.2740  0.4126
 6299TIP3   OH240311   4.557   1.596  11.532  0.2239 -0.2358  0.1969
 6299TIP3    H140312   4.483   1.534  11.529 -0.0197  0.0494  0.2708
 6299TIP3    H240313   4.632   1.546  11.500  0.0021 -0.5357  0.1458
 6300TIP3   OH240314   0.291   3.520   5.092  0.0189 -0.0201  0.2748
 6300TIP3    H140315   0.372   3.470   5.103 -0.7263 -1.5774 -0.9425
 6300TIP3    H240316   0.315   3.609   5.115  2.8450  0.1625 -2.7224
 6301TIP3   OH240317   0.262   5.039  15.106 -0.0986  0.5776 -0.1291
 6301TIP3    H140318   0.227   5.029  15.018  1.8150 -1.0958 -0.7613
 6301TIP3    H240319   0.352   5.069  15.093  0.7508 -1.2237  1.1383
 6302TIP3   OH240320   0.662   1.778   0.455 -0.0733  0.5290 -0.1579
 6302TIP3    H140321   0.753   1.807   0.441  0.2249 -0.4058 -0.2095
 6302TIP3    H240322   0.614   1.859   0.472  0.6734  1.0951 -0.6448
 6303TIP3   OH240323   1.075   3.093   2.968  0.0246 -0.4331 -0.0162
 6303TIP3    H140324   1.117   3.175   2.945 -0.3087 -0.0735  0.6452
 6303TIP3    H240325   1.124   3.026   2.919  0.4960  0.1182 -0.3025
 6304TIP3   OH240326   1.515   5.881  12.825  0.3375 -0.3778  0.0202
 6304TIP3    H140327   1.434   5.886  12.874 -0.0816 -1.0990 -0.5824
 6304TIP3    H240328   1.489   5.894  12.734  0.9973  0.1109 -0.1075
 6305TIP3   OH240329   4.882   2.108   2.941 -0.0437 -0.8597  0.7895
 6305TIP3    H140330   4.815   2.176   2.948  0.7313  0.2198 -1.4008
 6305TIP3    H240331   4.963   2.151   2.969  0.5951 -0.5551 -1.3347
 6306TIP3   OH240332   1.608   1.682  10.973 -0.4490 -0.0148 -0.4465
 6306TIP3    H140333   1.589   1.706  10.883 -2.0114  1.0231  0.1114
 6306TIP3    H240334   1.524   1.694  11.019  0.5620  0.5400  1.3496
 6307TIP3   OH240335   0.816   3.956  15.827 -0.4411  1.0243 -0.1868
 6307TIP3    H140336   0.741   3.896  15.832  0.4140 -0.1106 -0.6059
 6307TIP3    H240337   0.838   3.959  15.734  1.3792 -0.3839  0.1516
 6308TIP3   OH240338   4.998   0.345  16.363  0.5436  0.4067 -0.0032
 6308TIP3    H140339   5.071   0.354  16.302 -0.0819  1.6834 -0.6090
 6308TIP3    H240340   5.038   0.341  16.449  1.3420  1.0001 -0.3337
 6309TIP3   OH240341   4.175   3.545   2.420  0.4992 -0.0219  0.5740
 6309TIP3    H140342   4.100   3.567   2.475  0.3586 -0.4119  0.5419
 6309TIP3    H240343   4.250   3.546   2.480  0.2862 -0.8831  0.8773
 6310TIP3   OH240344   0.361   5.648  15.692  0.4250 -0.4765  0.5020
 6310TIP3    H140345   0.375   5.555  15.708  0.2882 -0.4957  0.5128
 6310TIP3    H240346   0.266   5.660  15.697 -0.0485 -1.0819 -3.4296
 6311TIP3   OH240347   2.435   5.328   1.770  0.8382  0.0692  0.8076
 6311TIP3    H140348   2.491   5.338   1.847  1.3679  3.1723  0.1424
 6311TIP3    H240349   2.374   5.402   1.775 -0.0517 -0.4777 -1.0209
 6312TIP3   OH240350   2.226   5.920  16.083 -0.8929 -0.4302 -0.1965
 6312TIP3    H140351   2.196   5.860  16.151 -0.1750 -1.4547 -0.7497
 6312TIP3    H240352   2.305   5.960  16.118 -0.5705 -0.8949 -0.3811
 6313TIP3   OH240353   4.070   4.353  11.522 -0.1958  0.1116 -0.0232
 6313TIP3    H140354   4.125   4.346  11.444 -1.2789 -0.6914 -0.7359
 6313TIP3    H240355   4.065   4.447  11.539  2.3905  0.1718  0.8218
 6314TIP3   OH240356   5.258   2.597  13.550  0.8624 -0.2228  0.1115
 6314TIP3    H140357   5.181   2.608  13.605  1.4779  1.4061  0.7019
 6314TIP3    H240358   5.263   2.503  13.534  0.0859 -0.6131  1.9811
 6315TIP3   OH240359   1.143   5.041   2.146 -0.1406  0.4879  0.8751
 6315TIP3    H140360   1.158   5.017   2.237 -0.0658 -0.4300  0.6355
 6315TIP3    H240361   1.167   4.962   2.097  0.4190  1.1717  0.0165
 6316TIP3   OH240362   3.492   4.866   4.670  0.1812 -0.9952 -0.1048
 6316TIP3    H140363   3.462   4.823   4.591  1.5021 -0.5932 -0.8446
 6316TIP3    H240364   3.488   4.799   4.738  0.1240 -1.6509 -0.7557
 6317TIP3   OH240365   0.884   0.334   2.994  0.2461  0.0857  0.6995
 6317TIP3    H140366   0.837   0.378   3.065  0.4667  1.4524  0.0365
 6317TIP3    H240367   0.835   0.358   2.915  0.7561 -0.3514  0.2436
 6318TIP3   OH240368   5.771   2.531   4.695 -0.5731  1.2361 -0.2498
 6318TIP3    H140369   5.811   2.606   4.740 -2.6138  1.6310  1.0162
 6318TIP3    H240370   5.745   2.471   4.765  1.6368 -1.0675 -1.2770
 6319TIP3   OH240371   2.015   1.918   0.689 -0.2832  0.0246  0.0005
 6319TIP3    H140372   2.069   1.997   0.692 -0.0943 -0.0912 -0.2664
 6319TIP3    H240373   2.049   1.869   0.614  1.1598 -1.4201  1.5246
 6320TIP3   OH240374   4.371   3.141   4.272  0.8601 -0.4787  0.5748
 6320TIP3    H140375   4.440   3.204   4.291 -0.1799  1.5023 -1.6934
 6320TIP3    H240376   4.418   3.061   4.248  2.2432 -0.1748  2.0747
 6321TIP3   OH240377   6.116   6.471  13.664 -0.6226  0.2996 -0.1689
 6321TIP3    H140378   6.069   6.497  13.584 -1.7765  0.6446  0.6066
 6321TIP3    H240379   6.124   6.376  13.656  0.4985  0.4621 -1.3373
 6322TIP3   OH240380   1.789   1.759  11.177  0.3105 -0.4159  0.5491
 6322TIP3    H140381   1.834   1.826  11.125 -1.4464  1.8645  1.7560
 6322TIP3    H240382   1.732   1.714  11.114  0.4844  0.1786 -0.0492
 6323TIP3   OH240383   6.773   5.608   4.694  0.5655 -0.3575  0.1493
 6323TIP3    H140384   6.733   5.667   4.631 -0.2248 -0.8346  0.1910
 6323TIP3    H240385   6.816   5.665   4.757  0.0952  0.1600  0.0064
 6324TIP3   OH240386   0.613   1.708  16.025  0.1018  0.0005  0.1811
 6324TIP3    H140387   0.591   1.768  15.953  1.6045 -0.5621 -0.7890
 6324TIP3    H240388   0.642   1.766  16.096 -0.0057  0.5015 -0.1732
 6325TIP3   OH240389   5.425   2.311   3.778 -0.1456  0.6398 -0.1320
 6325TIP3    H140390   5.340   2.269   3.766 -0.7381  1.3318  1.4007
 6325TIP3    H240391   5.482   2.267   3.715 -2.1509  1.7939 -2.9262
 6326TIP3   OH240392   4.215   2.086  16.836 -0.2721 -0.3515  0.3695
 6326TIP3    H140393   4.220   2.008  16.782  1.4766  0.1944 -0.3375
 6326TIP3    H240394   4.124   2.114  16.831 -0.8976 -2.2622  0.5469
 6327TIP3   OH240395   1.794   5.895   6.222 -0.0207  0.2455 -0.0737
 6327TIP3    H140396   1.855   5.968   6.232  0.3969  0.4301 -3.1161
 6327TIP3    H240397   1.711   5.936   6.198 -1.1849 -0.0773  2.9820
 6328TIP3   OH240398   6.260   4.541   1.874 -0.2500 -0.2305  0.3672
 6328TIP3    H140399   6.228   4.569   1.959  1.1697 -2.0737  1.6025
 6328TIP3    H240400   6.271   4.622   1.824 -2.5319  0.7749  1.3540
 6329TIP3   OH240401   6.463   3.689  16.436 -0.2942 -0.0554 -0.1136
 6329TIP3    H140402   6.482   3.601  16.469 -0.4654 -0.4955 -1.1418
 6329TIP3    H240403   6.372   3.685  16.406 -0.3165  0.4884 -0.1354
 6330TIP3   OH240404   2.827   0.532   3.850  0.0491 -0.0329 -0.2951
 6330TIP3    H140405   2.810   0.440   3.828 -0.0799  0.2723 -1.5433
 6330TIP3    H240406   2.843   0.574   3.765  0.8955  0.9409  0.3309
 6331TIP3   OH240407   2.317   6.162   2.952  0.1995 -0.3588  0.2744
 6331TIP3    H140408   2.222   6.164   2.946  0.2842  0.0439 -1.4116
 6331TIP3    H240409   2.342   6.255   2.952  0.6588 -0.4716 -0.9821
 6332TIP3   OH240410   5.072   4.207   2.150  0.2508  0.4365  0.4799
 6332TIP3    H140411   5.084   4.293   2.191 -1.5171  1.0322 -0.1216
 6332TIP3    H240412   5.082   4.144   2.221  4.3429  0.8266  0.4798
 6333TIP3   OH240413   1.635   0.074   1.742  0.6908 -0.1012  0.3043
 6333TIP3    H140414   1.669   0.112   1.661 -2.1749 -1.4052 -1.6847
 6333TIP3    H240415   1.607   0.150   1.794  0.4066  0.7172 -0.9982
 6334TIP3   OH240416   4.245   1.827  17.010 -0.1136 -0.0344 -0.1393
 6334TIP3    H140417   4.330   1.841  16.969  0.5626  0.1932  1.2639
 6334TIP3    H240418   4.200   1.764  16.953  0.6689  0.4385 -1.3144
 6335TIP3   OH240419   3.510   5.532   4.104  0.0031  0.0260  0.0001
 6335TIP3    H140420   3.584   5.478   4.078 -0.4713  0.2551 -1.9615
 6335TIP3    H240421   3.433   5.475   4.094 -0.2953  0.4432 -0.1501
 6336TIP3   OH240422   0.905   6.329  15.587 -0.3023  0.0844 -0.7640
 6336TIP3    H140423   0.941   6.376  15.512  0.1293 -0.0660 -0.6538
 6336TIP3    H240424   0.841   6.270  15.549 -0.6088  0.5215 -0.9385
 6337TIP3   OH240425   2.797   4.516  12.766  1.0800  0.2074  0.4048
 6337TIP3    H140426   2.715   4.487  12.806 -1.1781  4.1562 -0.7503
 6337TIP3    H240427   2.794   4.484  12.676  1.4288 -0.6301  0.6831
 6338TIP3   OH240428   2.753   1.113   1.217 -0.5917  0.2252 -0.1040
 6338TIP3    H140429   2.758   1.027   1.176  0.9880  0.4900 -0.5541
 6338TIP3    H240430   2.835   1.120   1.267 -1.2284  1.0128  0.8607
 6339TIP3   OH240431   1.491   3.427  13.805 -0.1565 -0.1658  0.4677
 6339TIP3    H140432   1.420   3.486  13.783 -2.8001 -2.3120  2.4579
 6339TIP3    H240433   1.536   3.469  13.878  0.1485  0.8426 -0.2835
 6340TIP3   OH240434   0.847   6.053   5.181  0.1954 -0.3693 -0.3293
 6340TIP3    H140435   0.798   6.123   5.137 -0.3812 -1.1101 -0.8804
 6340TIP3    H240436   0.782   6.008   5.234  0.6959 -0.0953  0.5318
 6341TIP3   OH240437   2.648   0.938  12.940  0.4044 -0.2250  0.2481
 6341TIP3    H140438   2.659   0.859  12.993 -1.4996 -0.5963  0.1727
 6341TIP3    H240439   2.646   1.009  13.004  2.6507 -0.1304  0.2768
 6342TIP3   OH240440   3.910   2.810  10.608  0.2345 -0.4431 -0.6784
 6342TIP3    H140441   3.847   2.880  10.623  0.2097 -0.7339  0.6362
 6342TIP3    H240442   3.996   2.854  10.610  0.1374 -0.1702 -1.7284
 6343TIP3   OH240443   4.614   0.115  16.958 -0.4207 -0.3503 -0.1597
 6343TIP3    H140444   4.692   0.083  16.913  0.3322  1.7851 -0.5223
 6343TIP3    H240445   4.558   0.148  16.888 -0.4413  0.5273  0.2575
 6344TIP3   OH240446   2.701   6.654   4.214 -0.1784 -0.1941 -0.2723
 6344TIP3    H140447   2.740   6.584   4.267 -1.8943 -1.9889 -1.2256
 6344TIP3    H240448   2.719   6.734   4.263 -1.4930 -1.7029  2.9450
 6345TIP3   OH240449   4.402   2.638   0.799 -0.6032 -0.0481  0.1827
 6345TIP3    H140450   4.327   2.578   0.804  0.3354 -1.4163 -1.2361
 6345TIP3    H240451   4.438   2.640   0.888 -1.4633 -0.4774  0.5515
 6346TIP3   OH240452   3.924   4.092  12.335 -0.4260 -0.0446 -0.0892
 6346TIP3    H140453   4.002   4.146  12.341 -1.7656  2.2529 -1.7805
 6346TIP3    H240454   3.950   4.018  12.280  1.0836 -0.4633  1.1356
 6347TIP3   OH240455   4.904   0.224   4.833 -0.1098  0.1855  0.3581
 6347TIP3    H140456   4.974   0.225   4.898 -0.7206  2.6450  1.0663
 6347TIP3    H240457   4.909   0.309   4.790  0.0562 -1.2121 -2.6653
 6348TIP3   OH240458   1.693   2.953   4.099  0.0158 -0.2777  0.1017
 6348TIP3    H140459   1.788   2.946   4.111 -0.1275 -1.7311  0.6178
 6348TIP3    H240460   1.656   2.921   4.182 -0.9203 -0.7594 -0.4839
 6349TIP3   OH240461   3.268   3.131  12.015  0.2223 -0.4789  0.3819
 6349TIP3    H140462   3.351   3.157  11.974 -0.5029  0.9897 -0.2441
 6349TIP3    H240463   3.201   3.160  11.953 -0.7506 -3.3584 -0.0489
 6350TIP3   OH240464   6.061   6.649   3.263 -0.4057 -0.1473 -0.0731
 6350TIP3    H140465   6.030   6.738   3.281  0.7237  0.3675 -0.5713
 6350TIP3    H240466   6.156   6.653   3.277 -0.0480 -0.7487 -2.0505
 6351TIP3   OH240467   0.358   1.231   0.592  0.0893 -0.1213  0.3836
 6351TIP3    H140468   0.409   1.155   0.619 -0.2601 -0.2033  0.8157
 6351TIP3    H240469   0.269   1.198   0.582 -0.1606  0.3383  1.0670
 6352TIP3   OH240470   0.528   5.792   2.582 -0.1299  0.2853  0.0603
 6352TIP3    H140471   0.560   5.733   2.514 -0.1782 -0.6627  0.8414
 6352TIP3    H240472   0.478   5.858   2.534  1.0688  0.4989 -0.9604
 6353TIP3   OH240473   5.563   6.468   2.395 -0.1541  0.2482  0.3363
 6353TIP3    H140474   5.536   6.493   2.484 -1.7085  0.0473 -0.0352
 6353TIP3    H240475   5.652   6.500   2.386 -0.3681  1.2637  1.5874
 6354TIP3   OH240476   4.749   5.981   1.820 -0.2533  0.2309 -0.3371
 6354TIP3    H140477   4.752   5.929   1.900 -1.2528 -2.5461 -1.9667
 6354TIP3    H240478   4.837   5.971   1.782  0.3858  1.9562  0.5392
 6355TIP3   OH240479   4.621   5.172  16.093  0.1306  0.0246 -0.1976
 6355TIP3    H140480   4.606   5.100  16.032 -2.1389  0.0696  0.1938
 6355TIP3    H240481   4.627   5.249  16.037  0.0949 -0.1814 -0.4902
 6356TIP3   OH240482   2.270   4.115   0.666  0.2234 -0.4071 -0.0408
 6356TIP3    H140483   2.210   4.147   0.733  0.1796 -1.2961  0.3661
 6356TIP3    H240484   2.334   4.184   0.655  1.3944 -1.0163  2.3555
 6357TIP3   OH240485   4.827   0.593  16.502  0.2946 -0.5324  0.5941
 6357TIP3    H140486   4.776   0.602  16.582 -0.3041  1.5646  0.0254
 6357TIP3    H240487   4.918   0.595  16.531  0.0868 -1.0474  1.3110
 6358TIP3   OH240488   1.680   0.441   4.202  0.0212  0.3343 -0.3223
 6358TIP3    H140489   1.742   0.399   4.261  0.2793  0.1683 -0.7031
 6358TIP3    H240490   1.594   0.412   4.232  0.2404 -2.8181 -2.2260
 6359TIP3   OH240491   0.861   6.220  12.497 -0.6555 -0.5438 -0.2938
 6359TIP3    H140492   0.874   6.259  12.584 -0.2170 -0.6666 -0.2998
 6359TIP3    H240493   0.830   6.292  12.443 -0.6762 -0.4026 -0.0962
 6360TIP3   OH240494   5.173   0.135  11.515  0.1495 -0.2155  0.4910
 6360TIP3    H140495   5.194   0.215  11.466 -1.8832 -0.0817 -0.3026
 6360TIP3    H240496   5.198   0.155  11.605  1.0382  0.7503  0.0586
 6361TIP3   OH240497   1.063   6.665   0.820 -0.1793  0.6311  0.4537
 6361TIP3    H140498   1.143   6.717   0.829 -0.4878  1.0886  0.5758
 6361TIP3    H240499   1.077   6.614   0.740  0.5856  0.0804  0.9290
 6362TIP3   OH240500   1.778   6.289   0.867 -0.2161 -0.3394 -0.0743
 6362TIP3    H140501   1.782   6.361   0.804 -2.0824 -0.9493 -0.9531
 6362TIP3    H240502   1.868   6.282   0.900  0.5050  0.9364 -1.5882
 6363TIP3   OH240503   2.666   2.289  16.376  0.6369  0.2836 -0.0809
 6363TIP3    H140504   2.616   2.222  16.422 -0.9190  0.7382 -1.0322
 6363TIP3    H240505   2.747   2.245  16.349 -0.7067 -1.4995 -1.4248
 6364TIP3   OH240506   2.556   0.001   5.848 -0.5910  0.0871  0.0810
 6364TIP3    H140507   2.626   0.056   5.813 -0.5120 -0.1806 -0.1846
 6364TIP3    H240508   2.532   0.043   5.931 -0.1056  0.1721  0.1839
 6365TIP3   OH240509   0.406   1.462  15.464  0.0546 -0.4599 -0.0099
 6365TIP3    H140510   0.436   1.506  15.544 -0.4214 -1.6397  0.8506
 6365TIP3    H240511   0.311   1.469  15.467  0.0432 -0.4020 -0.5416
 6366TIP3   OH240512   0.414   1.826  13.773  0.5716 -0.0439 -0.0391
 6366TIP3    H140513   0.327   1.866  13.774  0.2388 -0.7154 -0.9741
 6366TIP3    H240514   0.422   1.785  13.859 -0.7336 -1.4078 -0.5348
 6367TIP3   OH240515   6.458   6.155   1.268  0.0411  0.2405  0.2844
 6367TIP3    H140516   6.430   6.243   1.295 -0.0269  0.2701  0.1152
 6367TIP3    H240517   6.423   6.144   1.180 -1.0690 -0.4654  0.7868
 6368TIP3   OH240518   2.408   4.219  14.222  0.2045 -0.2071  0.3538
 6368TIP3    H140519   2.407   4.133  14.182 -1.8105 -0.0174 -0.1115
 6368TIP3    H240520   2.368   4.277  14.157  1.6313  1.1263  0.5989
 6369TIP3   OH240521   5.641   3.268  14.781 -0.4466 -0.8127  0.5092
 6369TIP3    H140522   5.570   3.332  14.775  0.6301  0.4741  0.7232
 6369TIP3    H240523   5.667   3.252  14.690 -0.5943 -0.7887  0.4640
 6370TIP3   OH240524   3.997   1.887   0.589  0.4320  0.2238 -0.2354
 6370TIP3    H140525   4.091   1.896   0.575  0.3653  0.0856 -0.7635
 6370TIP3    H240526   3.972   1.967   0.637  0.6934  0.5809 -0.6898
 6371TIP3   OH240527   0.889   0.748  12.689  0.0890  0.0740 -0.2968
 6371TIP3    H140528   0.824   0.732  12.622  0.5076  0.7024 -0.8704
 6371TIP3    H240529   0.949   0.673  12.684 -0.0794 -0.0537 -0.3839
 6372TIP3   OH240530   6.707   3.195  13.229 -0.3440  0.0003  0.1181
 6372TIP3    H140531   6.708   3.105  13.197  2.4141  0.0282 -0.1586
 6372TIP3    H240532   6.800   3.221  13.229 -0.9644  2.4989  1.1483
 6373TIP3   OH240533   3.758   0.571  15.888 -0.3437 -0.6151 -0.3543
 6373TIP3    H140534   3.818   0.584  15.962 -1.3737  3.0172  0.0020
 6373TIP3    H240535   3.816   0.551  15.815  1.1202  0.1429  0.5282
 6374TIP3   OH240536   4.831   3.972  11.714  0.4363  0.1195 -0.2256
 6374TIP3    H140537   4.866   4.061  11.710 -3.0951  1.7010 -0.5715
 6374TIP3    H240538   4.835   3.949  11.807 -1.6655  2.1951  0.4883
 6375TIP3   OH240539   5.105   4.025   3.541 -0.1344 -0.9514  0.0752
 6375TIP3    H140540   5.141   4.080   3.471 -0.9992  0.9430  1.0588
 6375TIP3    H240541   5.169   4.032   3.612 -1.6484  1.3278  1.3248
 6376TIP3   OH240542   5.279   5.514  11.189 -0.0243  0.4967  0.0895
 6376TIP3    H140543   5.333   5.493  11.113  0.2486  1.0653  0.1214
 6376TIP3    H240544   5.328   5.582  11.235 -0.1578  0.1129  0.8102
 6377TIP3   OH240545   1.319   4.533   5.505 -0.2960 -0.1630  0.6720
 6377TIP3    H140546   1.318   4.437   5.498 -0.1228 -0.1009 -0.3482
 6377TIP3    H240547   1.404   4.552   5.546  0.4251 -0.3733 -0.6769
 6378TIP3   OH240548   0.697   0.888   4.869  0.2274  0.2266  0.3734
 6378TIP3    H140549   0.782   0.910   4.831  0.7158 -1.1367  0.5971
 6378TIP3    H240550   0.676   0.802   4.831 -0.8345  0.3455  0.6697
 6379TIP3   OH240551   3.297   0.064   0.035  0.0870  0.3674 -0.1557
 6379TIP3    H140552   3.299   0.155   0.005 -0.6911  0.2420 -0.6140
 6379TIP3    H240553   3.263   0.070   0.124  4.3656  0.9587  1.7203
 6380TIP3   OH240554   3.407   0.747   2.166  0.0694  0.2678 -0.0985
 6380TIP3    H140555   3.455   0.810   2.220  0.7556 -0.0573 -0.3170
 6380TIP3    H240556   3.318   0.783   2.161  0.0765  0.4614  0.9726
 6381TIP3   OH240557   4.519   0.885  16.213 -0.1978  0.0412 -0.0228
 6381TIP3    H140558   4.539   0.975  16.240 -0.3988  1.3469 -3.6319
 6381TIP3    H240559   4.552   0.879  16.124 -0.9554 -3.2497 -0.2186
 6382TIP3   OH240560   0.037   1.617   5.218 -0.0882  0.1602  0.0707
 6382TIP3    H140561   0.039   1.707   5.185  1.4544  1.4025  3.1140
 6382TIP3    H240562  -0.046   1.611   5.266 -0.4708 -0.2703 -0.6305
 6383TIP3   OH240563   4.024   2.236  13.762  0.2219  0.6578  0.6232
 6383TIP3    H140564   3.964   2.189  13.705  1.3953  1.0118 -0.9864
 6383TIP3    H240565   3.981   2.320  13.779 -0.5306  0.2050  1.0334
 6384TIP3   OH240566   1.890   2.584  14.120  0.6476 -0.2584  0.0170
 6384TIP3    H140567   1.802   2.548  14.124 -1.1445  3.6806  1.4695
 6384TIP3    H240568   1.935   2.545  14.195 -0.0508 -1.7892 -0.3181
 6385TIP3   OH240569   3.332   3.812  12.352  0.0985  0.0126 -0.0002
 6385TIP3    H140570   3.246   3.845  12.378 -0.2609 -1.5056  0.8180
 6385TIP3    H240571   3.328   3.805  12.257 -0.6548 -0.0013  0.0303
 6386TIP3   OH240572   5.584   3.777  11.571 -0.1109 -0.4944  0.2514
 6386TIP3    H140573   5.489   3.772  11.574 -0.1681 -2.6961 -2.0933
 6386TIP3    H240574   5.613   3.690  11.597  1.2139 -0.2268 -0.2692
 6387TIP3   OH240575   5.777   2.338  15.023  0.3117 -0.1638  0.5185
 6387TIP3    H140576   5.724   2.262  15.048 -1.6181  1.1405  0.6602
 6387TIP3    H240577   5.787   2.329  14.928  3.1082 -2.3338  0.8835
 6388TIP3   OH240578   3.846   3.818  13.315 -0.1105 -0.4520  0.2490
 6388TIP3    H140579   3.936   3.822  13.345  0.5626 -1.4565 -1.4971
 6388TIP3    H240580   3.810   3.905  13.334  1.5577  0.3264 -0.0070
 6389TIP3   OH240581   3.782   2.919   6.033  0.0487  0.3752  0.2491
 6389TIP3    H140582   3.803   3.012   6.030  0.8171  0.1848 -0.5716
 6389TIP3    H240583   3.686   2.917   6.040 -0.1318  1.2387 -1.4059
 6390TIP3   OH240584   1.381   4.605   0.533 -0.1572  0.1108 -0.3321
 6390TIP3    H140585   1.449   4.649   0.584 -0.7593  1.0801 -0.3316
 6390TIP3    H240586   1.423   4.526   0.500  0.7806  0.3771  0.1785
 6391TIP3   OH240587   0.734   4.978  15.770  0.3216  0.0652 -0.0557
 6391TIP3    H140588   0.641   4.999  15.764  0.6397  1.2569 -1.7924
 6391TIP3    H240589   0.748   4.952  15.861 -1.7462 -0.4148  0.1695
 6392TIP3   OH240590   4.417   4.474  11.798 -0.2215 -0.4622 -0.3542
 6392TIP3    H140591   4.329   4.438  11.807  0.2805 -1.6851 -0.1662
 6392TIP3    H240592   4.467   4.406  11.753  0.4815  0.4735 -1.0342
 6393TIP3   OH240593   3.695   5.530   2.457 -0.6016  0.8137  0.2914
 6393TIP3    H140594   3.703   5.545   2.363  0.4794  0.7431  0.3634
 6393TIP3    H240595   3.731   5.442   2.470  1.0475  1.5441  0.9996
 6394TIP3   OH240596   4.949   3.130   1.443 -0.5049  0.0781  0.3815
 6394TIP3    H140597   4.956   3.216   1.485  1.0316 -0.0349  0.4090
 6394TIP3    H240598   4.858   3.105   1.456 -0.9366  1.6148  0.5448
 6395TIP3   OH240599   4.533   5.022  16.485 -0.4815 -0.3969  0.2150
 6395TIP3    H140600   4.571   4.934  16.487 -0.0359 -0.1925  1.4686
 6395TIP3    H240601   4.483   5.030  16.566 -1.4185  0.1295 -0.3944
 6396TIP3   OH240602   4.801   1.818   5.248  0.4525 -0.0108  0.1090
 6396TIP3    H140603   4.870   1.862   5.197  0.7157 -1.4880 -0.8759
 6396TIP3    H240604   4.813   1.725   5.230 -0.3873 -0.4843  1.7485
 6397TIP3   OH240605   3.114   0.041  15.307  0.0880  0.0286 -0.1097
 6397TIP3    H140606   3.024   0.067  15.288 -0.2236 -1.5818 -0.9527
 6397TIP3    H240607   3.124  -0.045  15.267  0.9294 -1.4495  2.9439
 6398TIP3   OH240608   0.542   5.102  13.735  0.0793  0.2380  0.1696
 6398TIP3    H140609   0.577   5.191  13.730  0.7772  0.0962  1.9227
 6398TIP3    H240610   0.484   5.095  13.659  2.7188  0.9733 -2.0901
 6399TIP3   OH240611   1.536   6.193   2.857 -0.5241  0.1049 -0.7960
 6399TIP3    H140612   1.561   6.236   2.938 -2.0438 -2.9207  1.4509
 6399TIP3    H240613   1.613   6.142   2.832 -0.6836 -0.4455 -0.1731
 6400TIP3   OH240614   6.601   0.841   2.913 -0.3783  0.5218 -0.1217
 6400TIP3    H140615   6.555   0.759   2.930  0.7372 -0.4665 -1.6003
 6400TIP3    H240616   6.535   0.899   2.875 -0.7034 -0.4435 -1.0482
 6401TIP3   OH240617   1.112   1.330  13.839 -0.7751  0.1573 -0.0909
 6401TIP3    H140618   1.035   1.317  13.785 -0.3128  0.7878 -0.9279
 6401TIP3    H240619   1.134   1.423  13.828  0.5030 -0.1570 -0.4409
 6402TIP3   OH240620   3.974   0.526  15.299 -0.4924  0.3386  0.5150
 6402TIP3    H140621   4.053   0.550  15.250  0.7359 -1.7149  1.3681
 6402TIP3    H240622   3.904   0.530  15.234  0.6776  0.0870 -0.8290
 6403TIP3   OH240623   5.522   3.585  11.868  0.3345  0.7384 -0.1288
 6403TIP3    H140624   5.494   3.529  11.795 -1.2087  0.6016  0.5463
 6403TIP3    H240625   5.601   3.543  11.901  1.5616  1.2432 -2.2010
 6404TIP3   OH240626   4.241   4.943  15.243  0.1408  0.1458 -0.6983
 6404TIP3    H140627   4.174   4.935  15.174  0.7049  0.9493 -1.3611
 6404TIP3    H240628   4.294   5.018  15.216  0.4730  0.3789  0.5449
 6405TIP3   OH240629   2.819   1.418   0.144 -0.2099 -0.2274 -0.4851
 6405TIP3    H140630   2.861   1.501   0.165 -0.5196  0.0008 -0.7685
 6405TIP3    H240631   2.863   1.354   0.201 -0.3512  0.2137  0.1232
 6406TIP3   OH240632   4.189   6.178   5.155 -0.2432  0.2403  0.6253
 6406TIP3    H140633   4.178   6.083   5.160  0.3092  0.2360  2.3705
 6406TIP3    H240634   4.164   6.210   5.241  2.7074  1.3123  1.1975
 6407TIP3   OH240635   5.180   4.090  15.306 -0.5854 -0.0344  0.2961
 6407TIP3    H140636   5.126   4.154  15.353 -1.1432 -1.2730  1.4298
 6407TIP3    H240637   5.254   4.074  15.364 -0.5412 -0.5265  0.1081
 6408TIP3   OH240638   3.741   4.622  14.930 -0.0001  0.3833 -0.1891
 6408TIP3    H140639   3.742   4.550  14.992 -1.0546 -0.2956 -0.9403
 6408TIP3    H240640   3.822   4.612  14.880 -0.2178 -0.3674 -0.3941
 6409TIP3   OH240641   6.778   2.115   1.547  0.1132  0.0942 -0.6859
 6409TIP3    H140642   6.747   2.087   1.461 -0.6143 -1.2812 -0.0056
 6409TIP3    H240643   6.833   2.043   1.577 -0.1066  0.2980  0.2385
 6410TIP3   OH240644   0.101   6.521  16.359 -0.2837  0.1651 -0.0883
 6410TIP3    H140645   0.140   6.438  16.333 -0.3371  0.3201 -0.6813
 6410TIP3    H240646   0.111   6.524  16.454 -2.5353 -1.6635  0.2930
 6411TIP3   OH240647   6.558   5.947  12.701 -0.0594  0.4916 -0.5594
 6411TIP3    H140648   6.582   5.962  12.793 -0.1588 -1.0277 -0.2587
 6411TIP3    H240649   6.518   6.029  12.674  0.3864  1.1338  0.6204
 6412TIP3   OH240650   0.708   4.618  12.206  0.2456 -0.5926 -0.7876
 6412TIP3    H140651   0.731   4.709  12.191 -1.0789 -0.2199 -0.6377
 6412TIP3    H240652   0.703   4.609  12.302 -4.7731  0.6230 -0.6767
 6413TIP3   OH240653   1.140   1.254  10.809 -0.0074  0.3193  0.4327
 6413TIP3    H140654   1.162   1.344  10.834 -2.0854  1.7879 -2.3117
 6413TIP3    H240655   1.059   1.264  10.758  0.7227 -2.8817 -1.6113
 6414TIP3   OH240656   1.488   1.907   2.028  0.3564 -0.1852  0.2773
 6414TIP3    H140657   1.479   1.977   2.093 -0.2560  0.2891 -0.3023
 6414TIP3    H240658   1.400   1.897   1.991  0.7395 -0.2806 -0.6350
 6415TIP3   OH240659   0.280   1.884  14.096  0.0165 -0.0766 -0.2395
 6415TIP3    H140660   0.331   1.812  14.057 -1.8947 -0.8203 -1.5570
 6415TIP3    H240661   0.334   1.961  14.084  1.3628 -1.0176 -0.4487
 6416TIP3   OH240662   4.256   1.239   0.147  0.1138  0.1816  0.0895
 6416TIP3    H140663   4.200   1.197   0.213  1.0505  3.0287  2.9900
 6416TIP3    H240664   4.220   1.327   0.138  0.1259 -0.0563 -3.2623
 6417TIP3   OH240665   4.980   6.216   1.119 -0.0810 -0.2428 -0.1869
 6417TIP3    H140666   4.931   6.197   1.039 -0.2420  1.7987 -0.6107
 6417TIP3    H240667   4.934   6.167   1.187 -0.6806 -1.0175 -1.1150
 6418TIP3   OH240668   5.375   4.266  10.651  0.1497 -0.0904 -0.1745
 6418TIP3    H140669   5.360   4.353  10.614 -1.0830 -0.9949 -1.9218
 6418TIP3    H240670   5.390   4.210  10.575 -1.0890 -1.7735  0.7616
 6419TIP3   OH240671   0.735   2.736   5.765 -0.5073 -0.2587  0.0883
 6419TIP3    H140672   0.728   2.691   5.850 -0.8083  0.1914  0.3047
 6419TIP3    H240673   0.711   2.826   5.784  2.1479  0.5293  0.1093
 6420TIP3   OH240674   4.927   2.251  13.088 -0.7749  0.5790 -0.1946
 6420TIP3    H140675   4.949   2.218  13.175 -0.5082 -0.6562 -0.7096
 6420TIP3    H240676   4.894   2.175  13.041 -1.3328  1.3255 -1.0479
 6421TIP3   OH240677   0.120   3.692  11.881 -0.6788  0.0883 -0.3136
 6421TIP3    H140678   0.085   3.634  11.949 -0.4151  1.5874  1.1809
 6421TIP3    H240679   0.043   3.733  11.842 -0.7719  1.4657  1.2069
 6422TIP3   OH240680   4.782   1.261   5.094 -0.9054  0.0208  0.3848
 6422TIP3    H140681   4.712   1.299   5.148 -2.2862 -0.5684 -0.9081
 6422TIP3    H240682   4.759   1.168   5.087 -2.0327  0.4118 -2.9242
 6423TIP3   OH240683   1.433   2.608  11.124  0.0673  0.6138 -0.0835
 6423TIP3    H140684   1.463   2.554  11.197  0.3344  0.0428 -0.6035
 6423TIP3    H240685   1.464   2.696  11.144 -1.5956  0.8899  1.4809
 6424TIP3   OH240686   2.027   4.136  15.277 -0.3284  0.0462 -0.1121
 6424TIP3    H140687   1.943   4.164  15.241  0.0605  1.2046 -0.1418
 6424TIP3    H240688   2.027   4.041  15.264 -2.0049 -0.1118  0.6677
 6425TIP3   OH240689   3.410   1.741   4.703 -0.0051  0.6170 -0.0730
 6425TIP3    H140690   3.462   1.758   4.781  0.4045  1.7525 -0.5662
 6425TIP3    H240691   3.472   1.746   4.631 -0.2565 -1.0704 -0.4494
 6426TIP3   OH240692   2.572   0.961  16.465 -1.0522 -0.3942 -0.1104
 6426TIP3    H140693   2.591   1.036  16.521 -2.5975  1.0214 -1.4118
 6426TIP3    H240694   2.598   0.885  16.518  2.2835  1.0429  0.5614
 6427TIP3   OH240695   5.819   2.742  11.421  0.2301  0.0598  0.0763
 6427TIP3    H140696   5.786   2.782  11.501  2.0320 -0.8193  1.3194
 6427TIP3    H240697   5.808   2.809  11.354  0.4977  1.5523  1.4850
 6428TIP3   OH240698   5.774   4.180  11.416 -0.2773 -0.0266 -0.5002
 6428TIP3    H140699   5.866   4.205  11.422 -0.5577  0.9219  0.1955
 6428TIP3    H240700   5.775   4.087  11.397  0.8267 -0.2047  0.3399
 6429TIP3   OH240701   0.521   2.190   2.648  0.0945 -0.2515 -0.2775
 6429TIP3    H140702   0.443   2.246   2.649  0.2406  0.0040 -1.4551
 6429TIP3    H240703   0.573   2.220   2.723 -0.2585  0.5739 -0.3493
 6430TIP3   OH240704   4.401   0.411  14.729 -0.3533  0.1570  0.1983
 6430TIP3    H140705   4.313   0.375  14.738 -0.0705 -0.3200  1.1827
 6430TIP3    H240706   4.417   0.458  14.811  1.1992 -1.8293  1.1141
 6431TIP3   OH240707   1.563   1.015  16.391  0.2917  0.0636  0.3286
 6431TIP3    H140708   1.612   0.987  16.314 -1.0888 -1.5764 -0.0139
 6431TIP3    H240709   1.536   1.105  16.371  2.6660  0.8579  0.3489
 6432TIP3   OH240710   6.088   1.581  14.348  0.2208  0.6883  0.1206
 6432TIP3    H140711   6.017   1.522  14.322  0.7443  0.0755  0.0652
 6432TIP3    H240712   6.093   1.644  14.277 -0.0016  0.4951 -0.0712
 6433TIP3   OH240713   0.277   0.959  10.316  0.2293  0.5134 -0.4959
 6433TIP3    H140714   0.335   0.971  10.240  1.8503  2.4236  0.9296
 6433TIP3    H240715   0.250   1.048  10.340  0.2204  0.0254  1.4891
 6434TIP3   OH240716   0.799   5.468  17.032 -0.3948  0.0386  0.1064
 6434TIP3    H140717   0.730   5.471  17.099 -0.3907 -2.0646  0.2608
 6434TIP3    H240718   0.879   5.492  17.079 -1.0203  3.1473 -0.2124
 6435TIP3   OH240719   2.419   0.702  11.422  0.7930 -0.2534 -0.3090
 6435TIP3    H140720   2.501   0.750  11.435  1.2569 -1.4956  2.1419
 6435TIP3    H240721   2.353   0.758  11.463  0.9771 -0.6762  0.5935
 6436TIP3   OH240722   1.677   5.713   2.289  0.0863 -0.2383  0.2987
 6436TIP3    H140723   1.598   5.748   2.246 -0.1898 -1.0173  0.1608
 6436TIP3    H240724   1.701   5.780   2.353 -0.4688  0.1789  0.0768
 6437TIP3   OH240725   3.546   4.235  14.441  0.4435  0.0439 -0.2571
 6437TIP3    H140726   3.545   4.171  14.512 -0.4725 -0.4734 -0.7200
 6437TIP3    H240727   3.456   4.267  14.436  0.4377 -0.0917 -1.3252
 6438TIP3   OH240728   5.096   2.390   3.640  0.2831  0.0475 -0.0529
 6438TIP3    H140729   5.149   2.330   3.693 -0.3620  0.6079  1.2582
 6438TIP3    H240730   5.128   2.477   3.663  0.2581  0.2938 -0.8985
 6439TIP3   OH240731   4.451   4.276  13.484 -0.0426  0.1252  0.0130
 6439TIP3    H140732   4.401   4.325  13.419 -0.7362  1.7057  1.6439
 6439TIP3    H240733   4.409   4.297  13.568  0.1916 -2.5877  0.9303
 6440TIP3   OH240734   4.771   1.863  12.448  0.2820  0.3371 -0.1917
 6440TIP3    H140735   4.803   1.922  12.381  0.0670  0.4236 -0.2192
 6440TIP3    H240736   4.831   1.789  12.445  2.7964  2.0736  2.2629
 6441TIP3   OH240737   2.095   0.751   0.707  0.0126  0.5347  0.4910
 6441TIP3    H140738   2.155   0.728   0.778 -1.1487  0.1065  1.3750
 6441TIP3    H240739   2.121   0.840   0.682  1.4671  0.0881  0.3455
 6442TIP3   OH240740   2.261   3.648   6.331 -0.2023  0.0528  0.8617
 6442TIP3    H140741   2.293   3.562   6.356  0.2309  0.2221  0.8931
 6442TIP3    H240742   2.174   3.654   6.371 -0.3239 -0.4514  0.6785
 6443TIP3   OH240743   0.053   3.333   5.704  0.1724 -0.5343 -0.0296
 6443TIP3    H140744  -0.034   3.309   5.734  0.2191 -1.1399 -0.3774
 6443TIP3    H240745   0.043   3.423   5.673 -0.5482 -0.8938 -0.9137
 6444TIP3   OH240746   2.301   0.247   2.185 -0.6124  0.1710  0.0986
 6444TIP3    H140747   2.253   0.173   2.223 -1.1789  0.7679  0.5707
 6444TIP3    H240748   2.391   0.216   2.179 -1.0394 -0.9967 -0.8586
 6445TIP3   OH240749   4.747   0.511  12.191 -0.1128 -0.4376  0.1164
 6445TIP3    H140750   4.778   0.502  12.101 -0.5617 -2.4694  0.1190
 6445TIP3    H240751   4.651   0.513  12.184 -0.1381  1.1381  0.4532
 6446TIP3   OH240752   2.228   3.574   2.587  0.5151  0.2706 -0.3540
 6446TIP3    H140753   2.176   3.571   2.668 -0.0608 -0.7542 -0.7460
 6446TIP3    H240754   2.199   3.653   2.542 -2.0673 -1.1694 -1.4258
 6447TIP3   OH240755   3.518   0.015   2.913  0.0009 -0.3357 -0.2332
 6447TIP3    H140756   3.475   0.100   2.921 -1.1848 -0.8786 -0.5884
 6447TIP3    H240757   3.608   0.030   2.942 -0.3603  0.8935  0.2945
 6448TIP3   OH240758   3.788   6.459   0.942 -0.2821 -0.5043  0.0538
 6448TIP3    H140759   3.828   6.493   1.022  1.8133 -0.8969 -0.7779
 6448TIP3    H240760   3.744   6.379   0.969  0.2803 -0.5580  0.8316
 6449TIP3   OH240761   5.781   2.392  12.893 -0.6053  0.0081 -0.7073
 6449TIP3    H140762   5.766   2.468  12.836 -2.4331 -0.0223 -0.3234
 6449TIP3    H240763   5.697   2.376  12.934  0.0527 -1.5249  0.1222
 6450TIP3   OH240764   3.885   3.183   3.832  0.4703 -0.3477  0.3020
 6450TIP3    H140765   3.808   3.238   3.846  0.2947 -0.4684 -0.1634
 6450TIP3    H240766   3.861   3.099   3.871  0.3378 -0.4048  0.1015
 6451TIP3   OH240767   2.884   5.549   2.128 -0.4407 -0.4003  0.2553
 6451TIP3    H140768   2.791   5.542   2.151 -0.5756  1.5059  0.4640
 6451TIP3    H240769   2.884   5.568   2.034 -0.4767  2.4122  0.7363
 6452TIP3   OH240770   2.305   2.175   0.251 -0.2149 -0.5221 -0.2862
 6452TIP3    H140771   2.326   2.254   0.200 -0.1734  2.2471  3.5506
 6452TIP3    H240772   2.210   2.169   0.245 -0.6239  1.9377  1.8815
 6453TIP3   OH240773   1.375   2.111   2.198 -0.8863  0.1669  0.0843
 6453TIP3    H140774   1.302   2.149   2.150  0.5990  1.4268 -1.2851
 6453TIP3    H240775   1.382   2.165   2.277 -0.7617  0.7696 -0.3276
 6454TIP3   OH240776   0.935   5.391  16.040  0.3464 -0.0676  0.3571
 6454TIP3    H140777   0.948   5.474  15.994 -0.6550  0.5936  1.2285
 6454TIP3    H240778   0.962   5.324  15.977 -2.2796  0.7209 -1.7785
 6455TIP3   OH240779   1.121   5.021   0.812 -0.7941 -0.2510  0.0378
 6455TIP3    H140780   1.042   4.968   0.820 -1.2110  0.6191  2.6503
 6455TIP3    H240781   1.090   5.111   0.810  0.0481  0.0331 -0.9548
 6456TIP3   OH240782   5.537   4.768   2.916 -0.2079  0.7048 -0.1447
 6456TIP3    H140783   5.631   4.751   2.914 -0.3703 -0.2380 -0.4174
 6456TIP3    H240784   5.501   4.712   2.846 -0.8769  1.6860 -0.6161
 6457TIP3   OH240785   0.050   3.830  11.639  0.3463 -0.2373  0.1627
 6457TIP3    H140786  -0.019   3.893  11.615  0.6726 -0.2586 -0.8929
 6457TIP3    H240787   0.116   3.883  11.683  0.9335  0.3163 -1.3214
 6458TIP3   OH240788   4.159   0.842   1.683  0.5393 -0.4748  0.2551
 6458TIP3    H140789   4.252   0.852   1.663  0.2473 -0.5452 -1.2795
 6458TIP3    H240790   4.141   0.749   1.669  0.0148 -0.2606 -0.6112
 6459TIP3   OH240791   3.083   4.893   3.483  0.2308  0.4038 -0.2984
 6459TIP3    H140792   3.020   4.863   3.549  0.4205  0.5413 -0.0504
 6459TIP3    H240793   3.113   4.978   3.516  1.6153 -0.2988  0.3292
 6460TIP3   OH240794   2.798   5.786   4.970 -1.1335  0.2660  0.5589
 6460TIP3    H140795   2.799   5.700   5.012  1.2001  0.0975  0.2882
 6460TIP3    H240796   2.862   5.837   5.020  1.8403  0.0416 -2.6556
 6461TIP3   OH240797   3.210   2.998  12.244 -0.1246  0.0528  0.6042
 6461TIP3    H140798   3.207   3.055  12.166  1.1743 -0.2435  0.3086
 6461TIP3    H240799   3.296   3.015  12.282 -0.2796 -0.6890  1.3063
 6462TIP3   OH240800   5.833   3.238   1.475  0.4140  0.1611 -0.3165
 6462TIP3    H140801   5.767   3.169   1.489 -0.0475  0.1372 -2.3117
 6462TIP3    H240802   5.864   3.223   1.385  4.0284 -0.5535  0.8923
 6463TIP3   OH240803   6.739   2.740  15.239  0.3359 -0.3406  0.8176
 6463TIP3    H140804   6.755   2.790  15.159  0.0123  0.8824  1.4908
 6463TIP3    H240805   6.699   2.658  15.210  1.1435 -0.3448 -0.3354
 6464TIP3   OH240806   1.158   4.515  10.893  0.0883  0.4679 -0.0059
 6464TIP3    H140807   1.196   4.590  10.938  1.0458  0.2049 -0.3436
 6464TIP3    H240808   1.071   4.503  10.932  0.1798  1.3646  0.4705
 6465TIP3   OH240809   0.915   4.026  14.238  0.2989  0.4047 -0.0127
 6465TIP3    H140810   1.001   4.029  14.196  0.8317  1.3326  1.0701
 6465TIP3    H240811   0.917   4.098  14.301 -0.7124 -0.5032  1.1094
 6466TIP3   OH240812   3.284   2.330   4.566  0.0426  0.2202  0.3595
 6466TIP3    H140813   3.285   2.366   4.654  0.6195 -0.4810  0.6459
 6466TIP3    H240814   3.247   2.242   4.576 -0.0488  0.1968 -0.1269
 6467TIP3   OH240815   4.810   0.888   3.691  0.5175  0.7174 -0.7219
 6467TIP3    H140816   4.863   0.827   3.641 -2.4823 -2.2371 -0.7279
 6467TIP3    H240817   4.775   0.950   3.627 -0.8765 -1.1754 -1.9007
 6468TIP3   OH240818   5.534   4.863  15.486 -0.7422 -0.1234  0.3038
 6468TIP3    H140819   5.440   4.850  15.500 -0.8809  0.7893  0.3069
 6468TIP3    H240820   5.539   4.923  15.411 -0.1470 -0.5703 -0.0183
 6469TIP3   OH240821   0.266   4.076  13.091  0.0952 -0.3136  0.5633
 6469TIP3    H140822   0.289   4.165  13.118 -1.4503  0.4059 -0.3618
 6469TIP3    H240823   0.345   4.043  13.047  0.6311  0.6459  0.7842
 6470TIP3   OH240824   1.988   6.725   1.232 -0.0271 -0.2470  0.6779
 6470TIP3    H140825   2.004   6.680   1.149  0.5738 -0.1125  0.7196
 6470TIP3    H240826   2.049   6.684   1.294  0.6595  0.7432  0.6762
 6471TIP3   OH240827   3.056   2.429  13.589  0.0428 -0.1593 -0.0376
 6471TIP3    H140828   3.051   2.341  13.552  0.4239 -0.8407  1.4583
 6471TIP3    H240829   2.973   2.470  13.564 -0.0876 -0.8933 -0.8575
 6472TIP3   OH240830   6.568   4.711  12.523 -0.3734  0.4128 -0.3202
 6472TIP3    H140831   6.563   4.628  12.570  0.9224  0.2807 -0.3732
 6472TIP3    H240832   6.480   4.746  12.527 -0.7966 -0.6651  0.2585
 6473TIP3   OH240833   4.939   3.533   5.193  0.2113 -0.3082 -1.0535
 6473TIP3    H140834   5.007   3.600   5.186 -0.4548  0.8195  1.8329
 6473TIP3    H240835   4.987   3.450   5.193  1.6017  0.4417  0.3515
 6474TIP3   OH240836   2.882   1.396  13.376 -0.4000 -0.0001  0.8521
 6474TIP3    H140837   2.975   1.391  13.350 -0.2701 -1.0268  1.4528
 6474TIP3    H240838   2.876   1.477  13.427  0.3569 -0.3329  1.4959
 6475TIP3   OH240839   4.980   2.015   5.866 -0.6869 -0.6180  0.6839
 6475TIP3    H140840   5.017   2.056   5.944 -2.7771  1.9372  0.4741
 6475TIP3    H240841   4.899   1.974   5.896 -1.2270 -0.0895 -0.0246
 6476TIP3   OH240842   0.873   5.730  14.263  0.3704 -0.0048  0.0759
 6476TIP3    H140843   0.829   5.736  14.178 -2.4034 -1.8215  1.2332
 6476TIP3    H240844   0.877   5.637  14.282 -0.4243  0.3806  2.5298
 6477TIP3   OH240845   5.540   4.030   4.294  0.1346  0.1864  0.3794
 6477TIP3    H140846   5.514   4.121   4.288 -0.2086  0.0891  0.4037
 6477TIP3    H240847   5.498   3.997   4.373 -0.2993 -0.1760  0.0013
 6478TIP3   OH240848   5.337   0.200  13.862 -0.1515 -0.1492 -0.0719
 6478TIP3    H140849   5.334   0.138  13.935 -2.4191  2.7269  2.5792
 6478TIP3    H240850   5.424   0.239  13.868  0.5807 -1.6124 -0.5596
 6479TIP3   OH240851   3.338   1.935   6.296  0.2681  0.6122 -0.1167
 6479TIP3    H140852   3.252   1.974   6.308  0.0544  0.1494 -0.1112
 6479TIP3    H240853   3.351   1.882   6.376 -0.4999 -1.2716 -1.1659
 6480TIP3   OH240854   4.515   4.199  11.954 -0.7967 -0.0448  0.3654
 6480TIP3    H140855   4.596   4.189  12.004 -1.3708 -2.7844  0.9195
 6480TIP3    H240856   4.533   4.270  11.893  0.8643  1.6065  2.6309
 6481TIP3   OH240857   3.846   0.651  16.849 -0.0763 -0.1093  0.1009
 6481TIP3    H140858   3.886   0.643  16.762 -1.2266 -1.2930 -0.3568
 6481TIP3    H240859   3.894   0.722  16.891  1.0664 -0.0761 -1.1893
 6482TIP3   OH240860   3.405   5.118  13.293  0.4177 -0.4233  0.5566
 6482TIP3    H140861   3.476   5.165  13.250  1.1003 -0.2021  1.8429
 6482TIP3    H240862   3.354   5.080  13.222  0.5319  1.2636 -0.4880
 6483TIP3   OH240863   4.640   6.028  11.894 -0.2739  0.2990  0.0622
 6483TIP3    H140864   4.710   6.032  11.959 -0.9732 -0.8249  0.9210
 6483TIP3    H240865   4.678   5.977  11.822  0.3063  1.0533 -0.1786
 6484TIP3   OH240866   4.726   4.452   4.532  0.2225 -0.1309 -0.2020
 6484TIP3    H140867   4.697   4.373   4.578  0.4896  0.3315  0.8012
 6484TIP3    H240868   4.731   4.426   4.440  0.0660 -1.2047  0.0770
 6485TIP3   OH240869   4.344   1.459  10.871 -0.4342  0.6386 -0.0266
 6485TIP3    H140870   4.361   1.502  10.787 -1.4657  0.3154 -0.4103
 6485TIP3    H240871   4.416   1.488  10.927 -0.2980  1.6934 -0.7091
 6486TIP3   OH240872   0.788   6.112   0.814 -0.1123 -0.1223  0.2043
 6486TIP3    H140873   0.734   6.153   0.882 -1.3352 -1.0569 -0.1763
 6486TIP3    H240874   0.853   6.179   0.793 -1.9838  1.6406 -0.3539
 6487TIP3   OH240875   6.682   5.917   5.759 -0.1556 -0.3360 -0.5415
 6487TIP3    H140876   6.711   5.998   5.800  0.2636 -0.2237 -1.0503
 6487TIP3    H240877   6.724   5.848   5.809  2.1669 -0.1527 -2.0898
 6488TIP3   OH240878   1.535   5.215   0.696 -0.0835 -0.8305  0.1912
 6488TIP3    H140879   1.523   5.261   0.779 -2.8232  0.8868 -1.0112
 6488TIP3    H240880   1.609   5.260   0.654  0.0868 -0.4532  0.8906
 6489TIP3   OH240881   6.716   5.168  16.200  0.9463 -0.7282  0.0671
 6489TIP3    H140882   6.720   5.136  16.290 -1.5531  0.4862  0.7096
 6489TIP3    H240883   6.768   5.249  16.201  1.1394 -0.8531  0.3355
 6490TIP3   OH240884   1.241   0.275   0.667  0.3746 -0.4121  0.0220
 6490TIP3    H140885   1.278   0.206   0.612 -1.4322  0.2467 -2.1709
 6490TIP3    H240886   1.208   0.340   0.605  0.9791  1.9102  1.9895
 6491TIP3   OH240887   1.054   6.668   0.321  0.3681 -0.2242  0.5949
 6491TIP3    H140888   1.067   6.763   0.327  1.0108 -0.2022 -0.7261
 6491TIP3    H240889   1.018   6.655   0.233  0.1238 -1.1987  0.8289
 6492TIP3   OH240890   0.150   2.618  17.012  0.6117  0.4307 -0.0132
 6492TIP3    H140891   0.112   2.625  17.100  2.2955  4.0976  0.6172
 6492TIP3    H240892   0.157   2.709  16.982  3.9103 -0.3777 -2.2144
 6493TIP3   OH240893   2.214   5.337  17.010  0.0318 -0.0714  0.1678
 6493TIP3    H140894   2.269   5.415  17.004 -0.6446  0.5359  1.4247
 6493TIP3    H240895   2.273   5.269  17.043  0.4373  0.1147 -0.1665
 6494TIP3   OH240896   2.600   6.651  15.855 -0.3002  0.1819  0.2317
 6494TIP3    H140897   2.633   6.625  15.769 -2.3670 -0.4218 -0.4305
 6494TIP3    H240898   2.566   6.740  15.841 -1.8800 -0.4260  0.0332
 6495TIP3   OH240899   0.882   3.306   5.932 -0.4291 -0.1591 -0.2489
 6495TIP3    H140900   0.890   3.335   6.023 -1.4771 -0.8901  0.0994
 6495TIP3    H240901   0.825   3.370   5.891 -0.2562 -0.0326 -0.2905
 6496TIP3   OH240902   4.462   0.641  14.876 -0.1986  0.0447  0.6456
 6496TIP3    H140903   4.419   0.677  14.954 -0.8940 -0.5258  0.5397
 6496TIP3    H240904   4.403   0.663  14.804  0.9612  1.5142  0.1003
 6497TIP3   OH240905   0.418   4.556  13.834 -0.5467 -0.4824 -0.1069
 6497TIP3    H140906   0.394   4.519  13.748  0.7028 -0.7027 -0.3793
 6497TIP3    H240907   0.447   4.480  13.885 -0.1005 -0.1838  0.0883
 6498TIP3   OH240908   0.972   4.112  11.655  0.2603 -0.3619  0.2564
 6498TIP3    H140909   1.013   4.131  11.570 -0.4316 -2.6379 -0.6858
 6498TIP3    H240910   1.017   4.033  11.685 -0.1639 -0.1251  1.5616
 6499TIP3   OH240911   6.398   5.187  11.303 -0.0863 -0.2745  0.6085
 6499TIP3    H140912   6.335   5.182  11.231  2.1095 -1.6492 -1.4151
 6499TIP3    H240913   6.435   5.275  11.297 -0.5312 -0.0882  0.6099
 6500TIP3   OH240914   1.563   4.678   6.435  0.3011  0.1173  0.2728
 6500TIP3    H140915   1.506   4.601   6.436  0.2760  0.0985 -0.8829
 6500TIP3    H240916   1.533   4.731   6.509 -0.2769 -0.5626  0.5365
 6501TIP3   OH240917   4.168   0.540   4.976  0.7015 -0.0427 -0.3821
 6501TIP3    H140918   4.147   0.453   5.011 -0.7496  0.2564 -0.4576
 6501TIP3    H240919   4.246   0.526   4.922  0.8449 -1.1773  0.0902
 6502TIP3   OH240920   0.564   2.221  13.394  0.3912  0.4423  0.2377
 6502TIP3    H140921   0.599   2.138  13.425  1.0549  1.0013  1.0282
 6502TIP3    H240922   0.620   2.245  13.321 -0.0098  0.0374 -0.2091
 6503TIP3   OH240923   6.647   6.177  11.526  0.5043  0.6884  0.3734
 6503TIP3    H140924   6.591   6.111  11.485  1.1076  1.0162 -1.0466
 6503TIP3    H240925   6.735   6.142  11.519  0.6817  1.0382  0.8368
 6504TIP3   OH240926   0.582   0.843   5.401 -0.2117 -0.2878 -0.1997
 6504TIP3    H140927   0.510   0.899   5.427 -0.0939 -0.3683  0.3151
 6504TIP3    H240928   0.615   0.881   5.320  0.2479  0.7425  0.4480
 6505TIP3   OH240929   5.272   0.269   3.781 -0.0630  0.4766  0.1141
 6505TIP3    H140930   5.276   0.228   3.694  1.2316 -1.1779  0.8901
 6505TIP3    H240931   5.331   0.344   3.775 -0.5089  0.7745 -0.6296
 6506TIP3   OH240932   1.201   2.044   1.440 -0.0259 -0.1227  0.2323
 6506TIP3    H140933   1.133   2.033   1.374 -0.4001 -0.4312  0.6654
 6506TIP3    H240934   1.179   1.981   1.509  0.4769  0.0442  0.5538
 6507TIP3   OH240935   4.584   3.216  16.390  0.1755 -0.3182  0.0014
 6507TIP3    H140936   4.664   3.263  16.415  0.4014 -0.5067 -0.3620
 6507TIP3    H240937   4.577   3.145  16.454 -0.1406  0.1724  0.5241
 6508TIP3   OH240938   6.567   0.666  12.804 -0.1403 -0.2904  0.2374
 6508TIP3    H140939   6.594   0.576  12.821 -2.9182 -0.9892  1.5062
 6508TIP3    H240940   6.479   0.672  12.839 -0.8877  2.3576 -1.7334
 6509TIP3   OH240941   4.121   2.944  15.290 -0.1706  0.4023 -0.3148
 6509TIP3    H140942   4.196   2.999  15.310  0.3930 -0.7006  0.7336
 6509TIP3    H240943   4.159   2.864  15.255 -0.8946  0.1271 -0.4854
 6510TIP3   OH240944   6.206   0.769  14.937  0.0674 -0.0439 -0.2194
 6510TIP3    H140945   6.145   0.782  14.865  0.1690  1.6992 -0.0414
 6510TIP3    H240946   6.180   0.686  14.977  0.2526 -1.2422 -2.4550
 6511TIP3   OH240947   0.690   2.867   0.053 -1.0723  0.3132 -0.3274
 6511TIP3    H140948   0.628   2.935   0.079  1.1550  2.7865 -1.0758
 6511TIP3    H240949   0.724   2.897  -0.031 -2.1201 -3.2982 -2.2788
 6512TIP3   OH240950   6.744   6.288   1.184 -0.4469  0.0755 -0.1271
 6512TIP3    H140951   6.665   6.340   1.187 -1.1700 -1.0010  0.1821
 6512TIP3    H240952   6.720   6.206   1.227  0.7103 -0.4294 -0.4050
 6513TIP3   OH240953   0.202   2.844  15.520  0.5436  0.0206  0.0777
 6513TIP3    H140954   0.222   2.751  15.529  0.5738  0.1629  1.8489
 6513TIP3    H240955   0.106   2.848  15.522  0.5473  0.0428  0.2243
 6514TIP3   OH240956   4.740   2.882   2.791  0.5691  0.6138  0.8862
 6514TIP3    H140957   4.729   2.975   2.770  0.4131  0.5375  0.6148
 6514TIP3    H240958   4.740   2.879   2.886  0.1256  0.8470  0.9007
 6515TIP3   OH240959   5.062   6.776   5.466  0.1704  0.1139 -0.0104
 6515TIP3    H140960   4.973   6.787   5.432 -0.2767  0.4997  1.2082
 6515TIP3    H240961   5.059   6.814   5.554  0.6593 -2.8589  1.4086
 6516TIP3   OH240962   0.947   5.831  16.326  0.6588 -0.5664 -0.9165
 6516TIP3    H140963   0.952   5.864  16.236 -2.7319 -1.0645 -1.4008
 6516TIP3    H240964   0.911   5.904  16.376  0.2835 -1.0577 -0.4564
 6517TIP3   OH240965   1.742   1.727   4.368  0.9154 -0.0405 -0.3475
 6517TIP3    H140966   1.817   1.770   4.409  1.3369 -0.7060 -0.4118
 6517TIP3    H240967   1.759   1.733   4.274  0.7601  0.0262 -0.3723
 6518TIP3   OH240968   4.016   1.608   6.035  0.0162  0.1419 -0.3479
 6518TIP3    H140969   4.081   1.540   6.016  0.9749  0.5130  1.3873
 6518TIP3    H240970   4.016   1.614   6.131 -0.4150  2.2411 -0.4466
 6519TIP3   OH240971   4.588   4.592   2.950  0.0009  0.0317 -0.7762
 6519TIP3    H140972   4.527   4.540   3.002  1.5650 -1.1925 -0.0695
 6519TIP3    H240973   4.653   4.623   3.013  0.6382  0.5063 -1.6412
 6520TIP3   OH240974   4.506   1.224   0.034 -0.2162 -0.2130  0.2916
 6520TIP3    H140975   4.508   1.182  -0.052  1.2915 -2.9689  1.5605
 6520TIP3    H240976   4.419   1.203   0.068 -0.0632 -0.9102  0.2607
 6521TIP3   OH240977   0.019   5.592  13.236 -0.1709 -0.3040 -0.1103
 6521TIP3    H140978   0.044   5.515  13.287  0.3289 -0.1100 -0.0519
 6521TIP3    H240979   0.016   5.663  13.301 -1.9233 -0.5150  0.0771
 6522TIP3   OH240980   1.826   2.975   5.965  0.4811  0.4459  0.2728
 6522TIP3    H140981   1.843   3.042   6.031  0.9420  2.8846 -2.1338
 6522TIP3    H240982   1.763   3.016   5.906  0.6993 -1.3074 -1.2572
 6523TIP3   OH240983   2.362   2.832  13.759  0.5576  0.1110 -0.1748
 6523TIP3    H140984   2.386   2.919  13.791  1.3839  0.4267 -1.5869
 6523TIP3    H240985   2.415   2.819  13.681  0.6138 -1.7712  0.1261
 6524TIP3   OH240986   2.188   0.377   6.444 -0.5981  0.1842  0.1018
 6524TIP3    H140987   2.158   0.286   6.446 -1.6791  0.3513 -2.8403
 6524TIP3    H240988   2.115   0.425   6.404  0.7424  1.9748 -0.3121
 6525TIP3   OH240989   4.381   2.606   4.825  0.0042  0.4514  0.7058
 6525TIP3    H140990   4.451   2.646   4.876 -0.1924  2.1698 -0.2760
 6525TIP3    H240991   4.421   2.587   4.740 -0.3553  0.1158  0.6043
 6526TIP3   OH240992   2.821   4.555  12.137 -0.0802  0.0713  0.2308
 6526TIP3    H140993   2.885   4.592  12.198 -1.7715  1.1572  1.4263
 6526TIP3    H240994   2.769   4.630  12.108  0.0307 -0.5878 -1.7819
 6527TIP3   OH240995   3.848   3.637  11.070 -0.5050  0.1023  0.1281
 6527TIP3    H140996   3.791   3.714  11.064  0.6246  0.9524  0.0551
 6527TIP3    H240997   3.912   3.650  11.000  2.7927  1.6980  3.1806
 6528TIP3   OH240998   0.248   0.558  15.976 -0.0620  0.3203  0.3698
 6528TIP3    H140999   0.308   0.511  15.919 -0.7733 -0.0342 -0.1100
 6528TIP3    H241000   0.161   0.528  15.949 -0.5041  1.4291  0.4705
 6529TIP3   OH241001   0.206   0.617  12.793 -0.1807 -0.2331  0.0456
 6529TIP3    H141002   0.237   0.533  12.826  1.1813 -0.1358 -0.9216
 6529TIP3    H241003   0.278   0.677  12.807 -0.6883  0.4973 -0.3888
 6530TIP3   OH241004   2.618   4.993   0.373  0.3431  0.1487  0.2646
 6530TIP3    H141005   2.624   4.914   0.319 -0.9299 -0.4998  1.0248
 6530TIP3    H241006   2.533   5.030   0.351  0.1426  0.2929  1.2551
 6531TIP3   OH241007   1.312   1.548  14.859 -0.1236 -0.7103 -0.3390
 6531TIP3    H141008   1.314   1.480  14.792  1.6161 -1.2470  0.2108
 6531TIP3    H241009   1.251   1.515  14.925 -1.7120 -0.2575 -1.5190
 6532TIP3   OH241010   4.254   2.573   0.402  0.1212 -0.6790 -0.2297
 6532TIP3    H141011   4.210   2.654   0.376 -1.0222 -0.8940  0.9196
 6532TIP3    H241012   4.186   2.506   0.397  0.2836 -1.0329  1.5288
 6533TIP3   OH241013   1.834   5.744  14.423  0.1560 -0.5461 -0.8231
 6533TIP3    H141014   1.862   5.668  14.474 -1.2079 -0.0438  0.7657
 6533TIP3    H241015   1.874   5.732  14.337  3.0667 -1.1537  0.4848
 6534TIP3   OH241016   1.762   2.729  15.109  0.1302  0.4403 -0.3041
 6534TIP3    H141017   1.776   2.805  15.052 -0.4548  1.6081  1.0307
 6534TIP3    H241018   1.828   2.739  15.178  0.5407 -0.7087 -0.5000
 6535TIP3   OH241019   4.711   5.243   5.162  0.6841  0.4446 -0.1434
 6535TIP3    H141020   4.691   5.162   5.210  0.3954 -0.1308 -1.1839
 6535TIP3    H241021   4.678   5.226   5.073  0.9750  1.5651 -0.4807
 6536TIP3   OH241022   3.088   0.778  13.472 -0.7360  0.0481  0.3235
 6536TIP3    H141023   3.066   0.805  13.383 -0.3720 -0.8914 -0.0654
 6536TIP3    H241024   3.004   0.758  13.512 -0.8104 -1.2298 -0.3963
 6537TIP3   OH241025   4.363   4.571  12.684 -0.5745  0.0514 -0.8868
 6537TIP3    H141026   4.426   4.560  12.755  0.5472 -0.0903 -1.8580
 6537TIP3    H241027   4.402   4.638  12.628 -2.7247  2.1458 -0.0163
 6538TIP3   OH241028   3.192   0.678   1.425  0.0331 -0.2150 -0.1502
 6538TIP3    H141029   3.234   0.755   1.463  0.0112  0.1633 -0.8741
 6538TIP3    H241030   3.135   0.713   1.356  0.6800 -0.9259 -1.0865
 6539TIP3   OH241031   5.408   3.151   2.660  0.5024 -0.3082  0.1380
 6539TIP3    H141032   5.368   3.066   2.679 -2.4563  0.1248 -3.0247
 6539TIP3    H241033   5.466   3.134   2.586 -1.5149  0.5056 -1.7771
 6540TIP3   OH241034   4.414   5.404   1.024  0.2582  0.6444  0.3760
 6540TIP3    H141035   4.328   5.446   1.027 -0.3862 -0.6571  0.9711
 6540TIP3    H241036   4.407   5.330   1.085  0.5376 -1.7790 -2.3038
 6541TIP3   OH241037   6.717   2.473   0.045 -0.2709  0.3739 -0.4090
 6541TIP3    H141038   6.642   2.435   0.092  2.3615 -1.0721  3.0217
 6541TIP3    H241039   6.701   2.450  -0.046 -3.0744 -1.5616  0.4090
 6542TIP3   OH241040   0.719   5.608   1.061  0.7374  0.0279 -0.2574
 6542TIP3    H141041   0.748   5.677   1.000  1.7975 -0.3697 -0.2294
 6542TIP3    H241042   0.625   5.621   1.069  0.9109  1.4634 -0.2823
 6543TIP3   OH241043   1.109   2.628  12.605  0.0027 -0.3104  0.2544
 6543TIP3    H141044   1.079   2.592  12.522 -1.3712 -0.0620  0.6246
 6543TIP3    H241045   1.130   2.719  12.586  0.5089 -0.4693  0.0122
 6544TIP3   OH241046   5.432   4.488   1.101  0.2430  0.0400 -0.3183
 6544TIP3    H141047   5.489   4.510   1.175  1.1916  1.2083 -1.3602
 6544TIP3    H241048   5.483   4.424   1.051 -0.8982 -1.6995  0.6251
 6545TIP3   OH241049   1.181   0.197  14.875  0.6196 -0.9255 -0.9244
 6545TIP3    H141050   1.184   0.279  14.925  0.6306 -0.2354 -2.0227
 6545TIP3    H241051   1.268   0.159  14.887  0.0634 -1.6849  1.0268
 6546TIP3   OH241052   3.173   4.221  15.276  0.0144 -0.1913  0.0828
 6546TIP3    H141053   3.142   4.222  15.367 -0.9449  0.7380 -0.2326
 6546TIP3    H241054   3.153   4.133  15.245  2.4635 -1.3294  1.4322
 6547TIP3   OH241055   4.926   2.121  13.743 -0.5372  0.5274  0.7186
 6547TIP3    H141056   5.021   2.122  13.761 -0.3484 -1.0112 -0.0652
 6547TIP3    H241057   4.886   2.115  13.830  0.1084  0.4623  1.0207
 6548TIP3   OH241058   6.097   4.693  11.424  0.5487  1.0307  0.1864
 6548TIP3    H141059   6.014   4.739  11.419  0.6348  1.1277 -0.3411
 6548TIP3    H241060   6.081   4.608  11.382  0.7499  1.1014 -0.0368
 6549TIP3   OH241061   6.294   3.776  12.104 -0.5272  0.6151  0.6816
 6549TIP3    H141062   6.269   3.685  12.088 -1.1707  0.9159 -0.0806
 6549TIP3    H241063   6.357   3.796  12.034  0.2182  0.5273  1.3105
 6550TIP3   OH241064   1.770   6.501   2.981 -0.0300 -0.0318 -0.3393
 6550TIP3    H141065   1.792   6.478   2.890 -0.1125  0.0918 -0.3905
 6550TIP3    H241066   1.675   6.505   2.982 -0.0498 -0.4410 -0.1476
 6551TIP3   OH241067   0.603   2.652   0.577  0.4425  0.2748 -0.1932
 6551TIP3    H141068   0.690   2.675   0.544  0.5595  0.4373  0.2158
 6551TIP3    H241069   0.542   2.699   0.521  0.6177  0.1868 -0.4619
 6552TIP3   OH241070   0.227   2.122   0.868  0.2612 -0.6694  0.1378
 6552TIP3    H141071   0.286   2.049   0.886  0.4405 -0.8333 -1.0400
 6552TIP3    H241072   0.151   2.082   0.826  0.8699 -0.0612 -1.5978
 6553TIP3   OH241073   1.892   5.866   6.568 -0.4313  0.6531 -0.5455
 6553TIP3    H141074   1.985   5.840   6.569 -0.1112  1.6446  2.0076
 6553TIP3    H241075   1.847   5.789   6.535  1.2251 -0.0820 -1.2520
 6554TIP3   OH241076   5.361   6.270  12.243 -0.4200  0.1532 -0.2606
 6554TIP3    H141077   5.321   6.247  12.327  1.8080 -0.5683  0.7060
 6554TIP3    H241078   5.358   6.189  12.192  1.1552 -0.3869  0.4404
 6555TIP3   OH241079   3.444   3.390   2.656  0.1507 -0.1891  0.3277
 6555TIP3    H141080   3.474   3.455   2.719  1.8260  0.2533 -0.8830
 6555TIP3    H241081   3.361   3.425   2.623  0.5812  0.8679  0.3491
 6556TIP3   OH241082   3.893   1.375  14.408  0.1223  0.5314  0.5474
 6556TIP3    H141083   3.919   1.319  14.335  0.6153 -0.5098  1.4959
 6556TIP3    H241084   3.976   1.403  14.447 -0.1301  1.3387  0.5247
 6557TIP3   OH241085   4.010   1.490   4.440  0.4510 -1.2242 -0.6844
 6557TIP3    H141086   3.947   1.514   4.508  0.8809 -1.7007 -0.0913
 6557TIP3    H241087   4.049   1.573   4.412  0.2032 -1.0132 -0.4061
 6558TIP3   OH241088   3.590   3.135   0.586 -0.0388  0.4194 -0.0114
 6558TIP3    H141089   3.629   3.220   0.567  2.4223 -0.4956  0.5053
 6558TIP3    H241090   3.631   3.076   0.523  0.3953 -0.8180  1.3776
 6559TIP3   OH241091   5.314   6.312   3.467  0.4535  0.6344  0.9762
 6559TIP3    H141092   5.225   6.343   3.455  0.5702  0.8865  0.7464
 6559TIP3    H241093   5.357   6.382   3.516  1.5612  2.3126 -2.1484
 6560TIP3   OH241094   1.796   3.141  15.287 -0.5694  0.1138  0.1877
 6560TIP3    H141095   1.875   3.147  15.340 -0.5910  0.5501  0.1801
 6560TIP3    H241096   1.823   3.093  15.209 -0.0904  0.9553 -0.1901
 6561TIP3   OH241097   0.302   1.263  11.519  0.0517 -0.1579  0.5988
 6561TIP3    H141098   0.314   1.298  11.607 -0.8226 -0.0776  0.6974
 6561TIP3    H241099   0.242   1.189  11.531 -0.4365  0.1305  0.0235
 6562TIP3   OH241100   4.268   0.604   4.509 -0.0481  0.7978  0.6914
 6562TIP3    H141101   4.199   0.593   4.574 -1.8524 -0.4612 -1.2862
 6562TIP3    H241102   4.242   0.546   4.438  1.7588  2.1730 -1.1984
 6563TIP3   OH241103   1.554   4.281  15.427 -0.5501  0.5009 -0.1906
 6563TIP3    H141104   1.578   4.351  15.488  0.6171  1.3966 -1.6142
 6563TIP3    H241105   1.491   4.228  15.476  1.2171  0.4472  2.2428
 6564TIP3   OH241106   6.800   3.779   1.327 -0.3575 -0.4457  0.2257
 6564TIP3    H141107   6.738   3.853   1.329 -2.3406 -1.9970 -0.7668
 6564TIP3    H241108   6.882   3.819   1.298 -1.2848  1.4190 -0.0423
 6565TIP3   OH241109   3.629   3.299  14.973 -0.6921  0.0244 -0.1940
 6565TIP3    H141110   3.662   3.358  15.041  0.3352  0.3268 -0.9366
 6565TIP3    H241111   3.705   3.248  14.946 -1.3822 -1.0524 -0.1847
 6566TIP3   OH241112   2.073   1.391  13.632 -0.0256 -0.0922  0.3228
 6566TIP3    H141113   1.994   1.420  13.678 -1.8829 -1.0406 -2.0477
 6566TIP3    H241114   2.061   1.297  13.621 -0.1212  0.1888 -2.7080
 6567TIP3   OH241115   0.737   1.161  11.469  0.3342  0.3874  0.6439
 6567TIP3    H141116   0.688   1.080  11.486  0.1471  0.3500 -0.0275
 6567TIP3    H241117   0.733   1.210  11.551 -0.0055 -0.0484  0.8899
 6568TIP3   OH241118   0.564   2.782  10.831 -0.3245 -0.4073  0.0029
 6568TIP3    H141119   0.634   2.728  10.794 -0.4697 -0.9216  0.4701
 6568TIP3    H241120   0.503   2.795  10.759  0.2308  0.0156 -0.4013
 6569TIP3   OH241121   0.197   2.397   0.271 -0.3504 -0.0023 -0.0263
 6569TIP3    H141122   0.284   2.417   0.304 -0.5445 -0.9611  1.1080
 6569TIP3    H241123   0.162   2.482   0.243  0.1630  0.7135  1.4356
 6570TIP3   OH241124   0.687   1.217  11.712  0.5803 -0.5049 -0.0950
 6570TIP3    H141125   0.593   1.221  11.733  0.5837 -3.0700  0.7834
 6570TIP3    H241126   0.729   1.191  11.794  1.9198 -0.6606 -0.7995
 6571TIP3   OH241127   5.668   0.073  16.595  0.4888  0.0310 -0.0225
 6571TIP3    H141128   5.644   0.148  16.651  2.3654 -0.0699  1.0110
 6571TIP3    H241129   5.745   0.035  16.638  0.5745 -1.5052 -1.4355
 6572TIP3   OH241130   0.519   1.002  14.319 -0.6586 -0.5931 -0.3698
 6572TIP3    H141131   0.431   1.017  14.284 -0.3224 -1.6494 -1.7728
 6572TIP3    H241132   0.505   0.981  14.411 -1.9504 -1.3966 -0.7237
 6573TIP3   OH241133   3.329   5.634  16.766 -0.0244  0.9425 -0.1105
 6573TIP3    H141134   3.409   5.648  16.715 -0.7762  1.2865 -1.2523
 6573TIP3    H241135   3.271   5.705  16.738 -0.7650  0.6351  0.6140
 6574TIP3   OH241136   6.166   3.807   6.326  0.1249 -0.5302 -0.0378
 6574TIP3    H141137   6.216   3.888   6.336  0.2413 -0.3471 -1.8576
 6574TIP3    H241138   6.074   3.836   6.323  0.2277 -0.2657 -2.0452
 6575TIP3   OH241139   5.385   5.531   4.906 -0.3745  0.3921 -0.1892
 6575TIP3    H141140   5.468   5.577   4.897  0.6166  0.2304  4.9678
 6575TIP3    H241141   5.409   5.441   4.927 -1.9981 -0.3611 -1.3677
 6576TIP3   OH241142   0.741   3.609   2.766  0.3603 -0.3249  0.1746
 6576TIP3    H141143   0.830   3.627   2.733 -0.1855 -0.7095 -1.5782
 6576TIP3    H241144   0.684   3.660   2.708 -0.6009 -0.3147  1.1100
 6577TIP3   OH241145   1.734   5.569  14.917  0.1064 -0.3559  0.6102
 6577TIP3    H141146   1.640   5.556  14.904 -0.0376 -0.5235  1.7668
 6577TIP3    H241147   1.741   5.651  14.965  0.5603 -0.3226  0.4938
 6578TIP3   OH241148   4.673   2.946   4.771 -0.2149  0.0472 -0.0330
 6578TIP3    H141149   4.744   2.883   4.782  0.2895  0.6725  0.4030
 6578TIP3    H241150   4.653   2.944   4.678 -0.3559 -0.9073  0.0069
 6579TIP3   OH241151   2.133   5.461  12.939  0.3388 -0.3277 -0.0054
 6579TIP3    H141152   2.111   5.515  12.863 -0.0667  0.2466  0.5150
 6579TIP3    H241153   2.096   5.375  12.918  0.3310 -0.2047 -0.5106
 6580TIP3   OH241154   2.431   2.625  15.831  0.0549 -0.4845  0.4439
 6580TIP3    H141155   2.347   2.668  15.817  0.0061 -0.7731 -0.2074
 6580TIP3    H241156   2.420   2.538  15.793  0.7257 -0.4339  0.1207
 6581TIP3   OH241157   2.605   0.042   5.523  0.1035  0.7092  0.5521
 6581TIP3    H141158   2.655  -0.015   5.465 -0.5796 -1.4034  1.9151
 6581TIP3    H241159   2.670   0.083   5.579  0.5356  0.5081  0.2027
 6582TIP3   OH241160   1.736   6.396   4.043 -0.6269 -0.5766  0.0532
 6582TIP3    H141161   1.674   6.420   4.112 -0.2359  0.6937 -0.0071
 6582TIP3    H241162   1.779   6.479   4.020  0.8323 -1.3556 -0.1475
 6583TIP3   OH241163   6.068   5.156  17.085 -0.0252 -0.0160 -0.9012
 6583TIP3    H141164   6.110   5.239  17.105  1.0600 -0.5563 -0.8654
 6583TIP3    H241165   5.999   5.178  17.022 -0.8597  1.1241  0.3818
 6584TIP3   OH241166   5.097   4.770   3.111  0.2136  0.1417 -0.2514
 6584TIP3    H141167   5.182   4.733   3.133  0.0891 -0.2058 -0.3546
 6584TIP3    H241168   5.108   4.802   3.021  0.2361  0.1037 -0.2621
 6585TIP3   OH241169   5.872   3.763  11.572 -0.5435  0.1326 -0.5602
 6585TIP3    H141170   5.778   3.767  11.588 -0.7868 -2.2648 -1.0564
 6585TIP3    H241171   5.883   3.800  11.485 -0.6271  2.7335  0.4235
 6586TIP3   OH241172   3.243   2.190   5.318 -0.7072  0.2579  0.0027
 6586TIP3    H141173   3.288   2.247   5.256 -0.1795  0.1972  0.3198
 6586TIP3    H241174   3.255   2.102   5.283 -1.1337  0.2946 -0.2479
 6587TIP3   OH241175   2.257   0.689   1.533 -0.1775  0.2511 -0.2929
 6587TIP3    H141176   2.309   0.618   1.572  0.4079  0.3663 -0.8526
 6587TIP3    H241177   2.171   0.649   1.517 -0.1243 -0.0777  0.1989
 6588TIP3   OH241178   3.463   0.281  12.160  0.3794 -0.8208  0.1109
 6588TIP3    H141179   3.424   0.317  12.240  1.5748 -1.3001  0.9423
 6588TIP3    H241180   3.427   0.334  12.089  1.2882  1.3445  1.1814
 6589TIP3   OH241181   3.365   4.294  15.878  0.4028  0.2157 -0.9358
 6589TIP3    H141182   3.272   4.271  15.872  0.2225  0.5655  0.2728
 6589TIP3    H241183   3.408   4.238  15.813 -0.6051 -0.2042 -1.2563
 6590TIP3   OH241184   2.715   2.675  17.066 -0.4396 -0.3442  0.2956
 6590TIP3    H141185   2.640   2.625  17.096  0.3015 -0.5716  1.8675
 6590TIP3    H241186   2.782   2.609  17.046  0.1318 -0.0561  1.2066
 6591TIP3   OH241187   6.073   2.250  15.986  0.1846 -0.3076  0.1668
 6591TIP3    H141188   6.074   2.165  15.943  1.1607 -1.1342  1.7333
 6591TIP3    H241189   5.982   2.264  16.010 -0.0074 -0.8341 -0.2452
 6592TIP3   OH241190   0.858   2.859  11.139  0.8484 -0.0957  0.2488
 6592TIP3    H141191   0.854   2.952  11.162 -2.0975  0.3516 -1.5215
 6592TIP3    H241192   0.796   2.817  11.199  0.1263 -0.4123 -0.6828
 6593TIP3   OH241193   1.500   1.871  12.278 -0.5006  0.1987  0.0683
 6593TIP3    H141194   1.589   1.851  12.307 -0.9927 -0.5330  1.1286
 6593TIP3    H241195   1.499   1.966  12.266  1.0639  0.0163 -2.2256
 6594TIP3   OH241196   3.251   5.682   0.849  0.4280 -0.2604  0.2612
 6594TIP3    H141197   3.322   5.711   0.906  0.0688  0.4177  0.3830
 6594TIP3    H241198   3.223   5.598   0.886 -1.3422  1.2089  2.5549
 6595TIP3   OH241199   1.647   0.811   4.489 -0.0090  0.5266  0.8246
 6595TIP3    H141200   1.596   0.738   4.454  2.4431 -1.6536  1.4829
 6595TIP3    H241201   1.659   0.870   4.414  0.7112 -1.4180 -0.6797
 6596TIP3   OH241202   5.269   6.501  14.778 -0.2571 -0.0664 -0.2392
 6596TIP3    H141203   5.236   6.560  14.711  1.1708  0.7426 -0.2754
 6596TIP3    H241204   5.238   6.537  14.861 -0.4672 -0.0066 -0.3454
 6597TIP3   OH241205   1.832   2.757   1.602 -0.3013 -0.1335  0.1507
 6597TIP3    H141206   1.860   2.782   1.514  0.6251  0.3441  0.5708
 6597TIP3    H241207   1.824   2.840   1.650 -0.0220 -0.4381  0.7403
 6598TIP3   OH241208   1.162   6.279  12.616 -0.3445 -0.2145  0.0838
 6598TIP3    H141209   1.213   6.310  12.541 -0.9598  0.8608  0.0757
 6598TIP3    H241210   1.103   6.352  12.636  0.0402 -0.3488  1.8418
 6599TIP3   OH241211   2.431   3.465  16.203  0.0104 -0.3523  0.0677
 6599TIP3    H141212   2.382   3.425  16.130 -1.7238 -0.3512  1.1696
 6599TIP3    H241213   2.466   3.390  16.251 -2.3724 -0.6389  1.5431
 6600TIP3   OH241214   3.799   5.271   0.862 -0.1604  0.0890 -0.2827
 6600TIP3    H141215   3.815   5.184   0.900 -0.3134 -0.3969 -1.3102
 6600TIP3    H241216   3.727   5.307   0.914  1.0693  0.3713  1.3347
 6601TIP3   OH241217   6.055   2.457   4.244 -0.6081 -0.9547  0.3918
 6601TIP3    H141218   6.097   2.376   4.217  0.1090 -0.4911  0.0907
 6601TIP3    H241219   6.028   2.499   4.162 -1.5951 -1.2075  0.5780
 6602TIP3   OH241220   1.474   5.321   2.208  0.3544 -0.5819  0.0817
 6602TIP3    H141221   1.554   5.270   2.204  1.4162  0.9690  0.6245
 6602TIP3    H241222   1.448   5.318   2.300 -0.5004 -1.4729 -0.1743
 6603TIP3   OH241223   5.544   3.358  10.321 -0.3835  0.2402  0.0054
 6603TIP3    H141224   5.609   3.426  10.303 -0.8264  0.3665 -1.2138
 6603TIP3    H241225   5.498   3.347  10.238  0.3816 -2.3173 -0.1589
 6604TIP3   OH241226   2.489   4.442   6.503  0.3929 -0.0957 -0.2351
 6604TIP3    H141227   2.546   4.488   6.565  0.4202 -0.7169  0.2087
 6604TIP3    H241228   2.486   4.352   6.535 -2.4521  0.3180  0.9217
 6605TIP3   OH241229   2.651   2.913   4.360  0.0573  0.5109 -0.1047
 6605TIP3    H141230   2.650   2.962   4.277 -0.3291  2.3188  0.9093
 6605TIP3    H241231   2.560   2.887   4.372  0.2634 -0.4929 -0.6441
 6606TIP3   OH241232   5.821   0.606   4.514 -0.2347  0.0649  0.4069
 6606TIP3    H141233   5.890   0.668   4.539 -0.6748  0.6196  0.2521
 6606TIP3    H241234   5.869   0.527   4.491  0.2837  0.0473  1.4612
 6607TIP3   OH241235   4.500   5.680  11.947 -0.4788  0.4098 -0.1679
 6607TIP3    H141236   4.440   5.616  11.985 -1.1805  1.2640  0.2052
 6607TIP3    H241237   4.583   5.633  11.939 -0.1318  0.3206  2.9036
 6608TIP3   OH241238   6.202   5.949   5.781 -0.0623 -0.6771  0.0654
 6608TIP3    H141239   6.256   5.877   5.814 -1.4813 -1.9162 -0.1846
 6608TIP3    H241240   6.265   6.012   5.745  1.2646 -1.4020  1.0201
 6609TIP3   OH241241   2.572   0.391   6.001 -0.3346  0.3636 -0.4668
 6609TIP3    H141242   2.520   0.314   5.980 -0.4284 -0.0021  1.0147
 6609TIP3    H241243   2.640   0.360   6.061 -1.0402  1.5921  1.0543
 6610TIP3   OH241244   1.540   3.496   3.835 -0.3698  0.4256  0.2960
 6610TIP3    H141245   1.472   3.512   3.901 -2.3641 -1.4704 -1.1599
 6610TIP3    H241246   1.516   3.551   3.761  0.8223  1.1698  0.4261
 6611TIP3   OH241247   2.833   1.196  14.626 -0.1756  0.4014 -0.0494
 6611TIP3    H141248   2.817   1.121  14.568 -1.4653 -0.9156  1.8832
 6611TIP3    H241249   2.756   1.252  14.615  0.0121  0.6258 -0.2555
 6612TIP3   OH241250   0.180   4.816  12.520 -0.6027 -0.4115  0.0943
 6612TIP3    H141251   0.245   4.833  12.588  0.4048 -0.5875 -0.8053
 6612TIP3    H241252   0.139   4.733  12.545 -0.0827 -0.5848  0.3736
 6613TIP3   OH241253   1.498   3.362  14.962  0.0097 -0.4110 -0.0474
 6613TIP3    H141254   1.583   3.345  14.922 -0.1520 -2.4182  0.3418
 6613TIP3    H241255   1.516   3.425  15.032  1.2711 -1.1313  0.3004
 6614TIP3   OH241256   0.774   4.175   5.357 -0.1180 -0.2876  0.0777
 6614TIP3    H141257   0.772   4.109   5.288 -0.2324  0.9119 -1.1068
 6614TIP3    H241258   0.760   4.126   5.438 -1.2837 -1.5670 -0.8581
 6615TIP3   OH241259   1.040   5.384  13.604  0.4325 -0.1709  1.2364
 6615TIP3    H141260   1.073   5.295  13.597 -2.4245 -1.3441  1.2329
 6615TIP3    H241261   1.065   5.425  13.521  0.3483 -1.5146  0.5161
 6616TIP3   OH241262   3.513   5.554  12.885  0.0787  0.3417 -0.0239
 6616TIP3    H141263   3.451   5.567  12.813  0.8864  1.5632 -0.5115
 6616TIP3    H241264   3.470   5.595  12.960 -0.8099 -1.0193  0.2633
 6617TIP3   OH241265   0.801   0.772   5.595 -0.6656  0.1799 -0.3686
 6617TIP3    H141266   0.737   0.776   5.524 -1.2518 -0.0981  0.1344
 6617TIP3    H241267   0.754   0.805   5.672  0.2164  1.2588 -0.2741
 6618TIP3   OH241268   3.601   1.200  10.443  0.1174  0.4139  0.4396
 6618TIP3    H141269   3.555   1.235  10.367  1.8605  0.8555 -0.4575
 6618TIP3    H241270   3.586   1.264  10.512  2.7585  2.8318 -1.0120
 6619TIP3   OH241271   4.049   1.839   1.032 -0.7084  0.1699 -0.0648
 6619TIP3    H141272   4.022   1.897   0.961 -1.1368 -0.2187 -0.2223
 6619TIP3    H241273   4.040   1.893   1.111 -3.1266 -0.2636  0.0421
 6620TIP3   OH241274   4.289   1.007  12.943  0.7169 -0.3753 -0.7347
 6620TIP3    H141275   4.262   0.945  13.011 -1.6532  2.9660  1.7314
 6620TIP3    H241276   4.212   1.016  12.887  1.7208 -1.0296 -2.2813
 6621TIP3   OH241277   2.135   0.665   2.811 -0.0903 -0.1910  0.6257
 6621TIP3    H141278   2.172   0.578   2.797 -0.0372 -0.1334  0.4122
 6621TIP3    H241279   2.065   0.672   2.745  0.1931  0.0990  0.3563
 6622TIP3   OH241280   2.237   4.808  13.426  0.3064 -0.3318 -0.6913
 6622TIP3    H141281   2.205   4.806  13.517 -0.1465  0.8053 -0.8135
 6622TIP3    H241282   2.199   4.730  13.386  1.0286 -1.2042  0.2500
 6623TIP3   OH241283   2.462   0.100  12.276  0.0759 -0.0789  0.2280
 6623TIP3    H141284   2.385   0.072  12.227  1.2743  0.2847 -2.0285
 6623TIP3    H241285   2.440   0.186  12.310 -0.8826 -0.4435  0.5465
 6624TIP3   OH241286   0.841   3.322  13.690 -0.2568 -0.3939 -0.2561
 6624TIP3    H141287   0.924   3.362  13.716  0.5185 -1.0152 -1.6255
 6624TIP3    H241288   0.847   3.232  13.722 -0.0720 -0.6463 -0.9759
 6625TIP3   OH241289   1.336   0.503  16.288  0.0694  0.1193 -0.2051
 6625TIP3    H141290   1.347   0.434  16.353  1.6147  1.2772  0.8525
 6625TIP3    H241291   1.244   0.499  16.263 -0.0330 -1.8403  0.3468
 6626TIP3   OH241292   2.429   3.240  12.770 -0.4003  0.5395  0.3162
 6626TIP3    H141293   2.409   3.192  12.850 -0.0095  2.2022  1.4463
 6626TIP3    H241294   2.359   3.304  12.762 -0.9835 -0.2426 -1.2430
 6627TIP3   OH241295   0.080   2.051  11.206 -0.1626  0.0060 -0.2712
 6627TIP3    H141296   0.032   2.032  11.286  0.2865  1.2215  0.3225
 6627TIP3    H241297   0.059   2.142  11.186  1.5220  0.4518 -0.2176
 6628TIP3   OH241298   5.066   1.796   1.189 -0.4877  0.2120 -0.1906
 6628TIP3    H141299   5.157   1.767   1.198 -0.2913  0.5294 -1.0340
 6628TIP3    H241300   5.018   1.717   1.166 -0.2313  0.2384 -0.8404
 6629TIP3   OH241301   6.760   6.678   3.207 -0.1867 -0.4966  0.2431
 6629TIP3    H141302   6.724   6.632   3.283 -2.5261  1.6394  0.5889
 6629TIP3    H241303   6.837   6.724   3.241 -0.3245 -0.7765  0.9503
 6630TIP3   OH241304   1.851   5.672  15.455 -0.0273 -0.2551  0.0273
 6630TIP3    H141305   1.899   5.619  15.520  1.4283  1.1548  0.1556
 6630TIP3    H241306   1.840   5.613  15.381  1.1058 -0.9210  0.3541
 6631TIP3   OH241307   5.823   4.515   4.706  0.1582 -0.0179  0.2033
 6631TIP3    H141308   5.866   4.431   4.723 -0.6304 -0.9115 -1.8367
 6631TIP3    H241309   5.809   4.553   4.793  1.1875 -1.6502  1.1410
 6632TIP3   OH241310   1.047   4.669  12.011 -0.0728  0.4007  0.3965
 6632TIP3    H141311   1.004   4.584  11.997 -1.8318  1.1252  1.0576
 6632TIP3    H241312   1.114   4.674  11.943 -1.0439 -0.8217 -0.6976
 6633TIP3   OH241313   6.106   4.577   5.097 -0.1378  0.4022  0.0191
 6633TIP3    H141314   6.121   4.670   5.080 -1.2450  0.8896  1.5234
 6633TIP3    H241315   6.181   4.551   5.152  0.6107  0.1729 -1.0830
 6634TIP3   OH241316   0.535   1.615   5.395 -0.7389 -0.0535  0.3956
 6634TIP3    H141317   0.596   1.559   5.348 -0.7751  0.3964 -0.1975
 6634TIP3    H241318   0.457   1.617   5.340 -0.3621  1.4178 -0.1471
 6635TIP3   OH241319   6.147   1.236   2.345  0.3665  0.3847  0.5886
 6635TIP3    H141320   6.133   1.274   2.259 -0.2872  0.4801  0.7258
 6635TIP3    H241321   6.194   1.154   2.329  1.0210  0.8266  0.2232
 6636TIP3   OH241322   3.520   5.977  14.412  0.5101  0.4758  0.0070
 6636TIP3    H141323   3.613   5.964  14.433  0.6375  1.7233  0.2708
 6636TIP3    H241324   3.521   6.026  14.330  0.0810  0.4620 -0.0074
 6637TIP3   OH241325   1.129   3.797   1.434 -0.4953  0.3224  0.0636
 6637TIP3    H141326   1.104   3.724   1.491  1.0072  0.5340  1.0421
 6637TIP3    H241327   1.221   3.813   1.454 -0.0944  0.8486 -1.9852
 6638TIP3   OH241328   1.655   0.440  12.855  0.1989 -0.5507  0.1538
 6638TIP3    H141329   1.660   0.355  12.899 -0.6574 -1.7169 -1.8771
 6638TIP3    H241330   1.719   0.434  12.784  0.4760  0.7163  0.2668
 6639TIP3   OH241331   0.323   1.555   4.346 -0.0481 -0.0165  0.6119
 6639TIP3    H141332   0.287   1.598   4.424  2.3763  1.1636  1.2077
 6639TIP3    H241333   0.396   1.503   4.380  0.0529 -0.7648 -0.7057
 6640TIP3   OH241334   1.932   3.715   3.650  0.1038 -0.0545  0.7055
 6640TIP3    H141335   2.010   3.767   3.632  0.6774 -1.1236  0.0029
 6640TIP3    H241336   1.866   3.748   3.589  0.2949  0.2094  0.6417
 6641TIP3   OH241337   0.866   3.669   3.069 -0.0865  0.0317 -0.2516
 6641TIP3    H141338   0.909   3.626   2.995 -1.3718 -0.9014 -0.5057
 6641TIP3    H241339   0.783   3.622   3.078 -1.7265  2.6693 -0.7131
 6642TIP3   OH241340   4.047   1.823   5.804  0.3883  0.1681  0.5471
 6642TIP3    H141341   4.069   1.748   5.859  0.4011  0.0069  0.3246
 6642TIP3    H241342   4.130   1.869   5.792  0.5247 -0.1960  0.0705
 6643TIP3   OH241343   2.192   3.030  12.033  0.1921  0.5833 -0.1170
 6643TIP3    H141344   2.242   3.107  12.061  0.9681  0.6183 -1.5235
 6643TIP3    H241345   2.238   2.956  12.072  0.9511  0.6674 -0.8231
 6644TIP3   OH241346   5.526   5.553  15.489 -0.3025  0.0633 -0.0585
 6644TIP3    H141347   5.587   5.619  15.455 -1.2884  0.6596 -0.6963
 6644TIP3    H241348   5.544   5.551  15.583 -1.2830  2.3883  0.2614
 6645TIP3   OH241349   0.670   3.485   0.938  0.3304 -0.0612 -0.3750
 6645TIP3    H141350   0.722   3.411   0.968  0.4509 -0.5800 -1.7565
 6645TIP3    H241351   0.606   3.499   1.007  0.3233 -1.4422 -0.0658
 6646TIP3   OH241352   6.432   2.451  16.296  0.0965 -0.1057  0.1439
 6646TIP3    H141353   6.349   2.442  16.249 -0.2899 -1.0068  0.9689
 6646TIP3    H241354   6.447   2.366  16.336 -0.2481  0.9342  2.7117
 6647TIP3   OH241355   6.332   2.846   3.161 -0.0713  0.0505  0.1791
 6647TIP3    H141356   6.337   2.931   3.119  1.1511  0.4128  0.9905
 6647TIP3    H241357   6.384   2.788   3.106  2.8432  0.8724  1.8833
 6648TIP3   OH241358   2.593   2.209  14.454  0.2091  0.1334  0.1022
 6648TIP3    H141359   2.687   2.191  14.455  0.1696 -0.1438 -0.6329
 6648TIP3    H241360   2.568   2.213  14.547  0.5974 -1.6034  0.3185
 6649TIP3   OH241361   6.072   4.257  11.095  0.2051 -0.0321 -0.4785
 6649TIP3    H141362   6.053   4.247  11.188  0.0027 -0.3800 -0.5569
 6649TIP3    H241363   5.993   4.299  11.059  1.1330  2.1698 -0.1039
 6650TIP3   OH241364   3.577   5.897  13.748 -0.2930  0.1702  0.4019
 6650TIP3    H141365   3.594   5.811  13.787  3.1792 -0.0857 -1.2908
 6650TIP3    H241366   3.507   5.934  13.802 -0.9097 -3.0684  2.1187
 6651TIP3   OH241367   1.360   1.507   2.914 -0.4854  0.0962 -0.0842
 6651TIP3    H141368   1.356   1.435   2.977  1.2429 -0.8230 -0.9478
 6651TIP3    H241369   1.368   1.463   2.829  2.9858  1.1827 -0.4771
 6652TIP3   OH241370   6.230   4.265  13.936  0.3758  0.4732  0.0427
 6652TIP3    H141371   6.271   4.344  13.900  0.1666  0.5213 -0.0939
 6652TIP3    H241372   6.265   4.258  14.024  2.4730 -0.7887 -0.8326
 6653TIP3   OH241373   5.847   4.265  16.688  0.0976 -0.7767 -0.3691
 6653TIP3    H141374   5.772   4.265  16.629 -0.5690  0.5656  0.4140
 6653TIP3    H241375   5.923   4.250  16.632 -0.5996 -0.3943 -1.4414
 6654TIP3   OH241376   5.292   1.058   0.196 -1.1093  0.4724  0.2740
 6654TIP3    H141377   5.213   1.076   0.145 -0.2078  1.3380 -0.8602
 6654TIP3    H241378   5.311   1.140   0.241  0.0517  0.7998 -0.7641
 6655TIP3   OH241379   5.686   2.751  15.336 -0.0619 -0.0079 -0.0836
 6655TIP3    H141380   5.706   2.671  15.286 -1.5958  0.6611 -1.8655
 6655TIP3    H241381   5.661   2.815  15.269 -2.4767  0.8652  1.5449
 6656TIP3   OH241382   4.944   1.492   5.016  0.2193  0.0977 -0.3696
 6656TIP3    H141383   4.886   1.532   4.952  1.0895  2.2816  0.1234
 6656TIP3    H241384   4.895   1.416   5.049 -1.3349  0.4951 -1.6536
 6657TIP3   OH241385   6.136   0.213   5.714 -0.0959  0.4182 -0.7214
 6657TIP3    H141386   6.186   0.135   5.691 -0.3671 -0.0221  0.1431
 6657TIP3    H241387   6.083   0.186   5.789  0.3512  1.6469  0.0639
 6658TIP3   OH241388   2.947   5.594  16.158 -0.0041 -0.7440  0.5502
 6658TIP3    H141389   2.943   5.674  16.210 -0.5649 -0.7037  0.4490
 6658TIP3    H241390   2.881   5.536  16.198  0.2848 -1.0962  0.5238
 6659TIP3   OH241391   2.088   3.910   3.591 -0.0448 -0.2459  0.3409
 6659TIP3    H141392   2.028   3.985   3.595  1.7491  1.3450 -0.7109
 6659TIP3    H241393   2.145   3.921   3.668  1.4941  0.6919 -0.8667
 6660TIP3   OH241394   2.689   6.453   0.306 -0.4893  0.1501  0.0391
 6660TIP3    H141395   2.679   6.548   0.297 -3.3227 -0.0054  0.5547
 6660TIP3    H241396   2.634   6.430   0.381  0.9807 -1.8018  0.5965
 6661TIP3   OH241397   1.967   2.799  16.847 -0.4655  0.2254 -0.1173
 6661TIP3    H141398   1.961   2.876  16.904  0.2296  1.3619 -1.5187
 6661TIP3    H241399   1.997   2.833  16.763 -3.3098 -1.1308 -1.8049
 6662TIP3   OH241400   3.618   5.611   2.822  0.0183  0.4112 -0.4180
 6662TIP3    H141401   3.674   5.534   2.819  0.3027  0.6081 -0.2513
 6662TIP3    H241402   3.678   5.684   2.841 -0.3753  0.5355  0.3744
 6663TIP3   OH241403   0.075   1.554   1.300  0.3900  0.1670  0.6124
 6663TIP3    H141404   0.142   1.590   1.357  2.4984  2.8653 -3.1100
 6663TIP3    H241405   0.123   1.505   1.234 -1.5640 -0.1061 -0.7090
 6664TIP3   OH241406   2.123   2.138  12.971  0.8787 -0.4430 -0.1760
 6664TIP3    H141407   2.207   2.154  13.014  1.0569 -0.9885 -0.3024
 6664TIP3    H241408   2.082   2.069  13.023 -0.6515  1.5217  1.4060
 6665TIP3   OH241409   6.397   4.042  13.042  0.0404  0.3933  0.0484
 6665TIP3    H141410   6.313   4.045  12.996  1.3098  0.9326 -2.3865
 6665TIP3    H241411   6.453   3.987  12.987  0.9096 -1.3013  2.4238
 6666TIP3   OH241412   3.744   0.460   4.182 -0.3342  0.0161 -0.3921
 6666TIP3    H141413   3.733   0.496   4.270  3.3802  2.0661 -0.5856
 6666TIP3    H241414   3.674   0.395   4.175 -0.0117 -1.3226  4.5851
 6667TIP3   OH241415   3.515   3.848   0.175 -0.1051 -0.0788 -0.5812
 6667TIP3    H141416   3.554   3.865   0.261 -0.6058  0.9986 -0.5519
 6667TIP3    H241417   3.551   3.763   0.149  0.5135 -0.1452  0.4264
 6668TIP3   OH241418   6.023   2.670  13.062  0.0062 -0.1147  0.4925
 6668TIP3    H141419   5.937   2.672  13.020 -0.9104  2.0709  2.2556
 6668TIP3    H241420   6.058   2.758  13.049  2.9622 -1.4891 -1.9111
 6669TIP3   OH241421   3.273   5.520  14.515  0.2120  0.1083  0.3794
 6669TIP3    H141422   3.262   5.492  14.424  0.7003 -1.7462  0.8446
 6669TIP3    H241423   3.331   5.596  14.510  0.7812 -0.3714 -0.8073
 6670TIP3   OH241424   2.661   6.561   0.585 -0.4931  0.3372  0.0505
 6670TIP3    H141425   2.690   6.471   0.598 -0.4907  0.4696  1.0123
 6670TIP3    H241426   2.569   6.560   0.611  0.0482  1.0563  2.1747
 6671TIP3   OH241427   6.586   2.637  14.947  0.4524 -0.8556  0.4493
 6671TIP3    H141428   6.520   2.673  15.006  0.4526 -1.9183  1.1222
 6671TIP3    H241429   6.625   2.713  14.904  0.3651 -0.0641  1.7336
 6672TIP3   OH241430   6.413   2.006   4.820 -0.1889  0.1248  0.5276
 6672TIP3    H141431   6.466   1.956   4.757 -1.5214 -3.0889  1.7211
 6672TIP3    H241432   6.464   2.004   4.901 -0.6406 -0.1158  0.8117
 6673TIP3   OH241433   2.917   4.697   2.862  0.1237  0.1406 -0.0559
 6673TIP3    H141434   2.947   4.611   2.833  0.8226  1.1426 -2.5220
 6673TIP3    H241435   2.821   4.691   2.861  0.1729 -0.7007  0.0920
 6674TIP3   OH241436   0.339   0.688   4.611 -0.6601 -0.4186  0.8655
 6674TIP3    H141437   0.252   0.656   4.587 -0.5130 -0.4332  0.3491
 6674TIP3    H241438   0.349   0.662   4.703 -0.8088 -1.2751  0.6498
 6675TIP3   OH241439   1.721   6.060   2.661 -0.5071  0.4253 -0.1548
 6675TIP3    H141440   1.710   5.988   2.598  1.4026  1.3744 -1.6847
 6675TIP3    H241441   1.785   6.027   2.724  0.2266  0.6649 -0.7508
 6676TIP3   OH241442   3.012   0.004  17.042  0.7722 -0.0418 -0.4800
 6676TIP3    H141443   3.087   0.056  17.071 -1.5268  2.6931  1.0794
 6676TIP3    H241444   2.997  -0.059  17.113 -0.4305  1.7936  1.0000
 6677TIP3   OH241445   5.807   4.656  12.394  0.3461  0.7818 -0.4765
 6677TIP3    H141446   5.794   4.668  12.300 -0.8771  0.4316 -0.3796
 6677TIP3    H241447   5.817   4.561  12.405 -0.9328  0.6574 -0.1375
 6678TIP3   OH241448   1.338   6.314   2.312  0.7596  0.9630  0.1389
 6678TIP3    H141449   1.375   6.376   2.375 -0.6718  2.3297 -0.2967
 6678TIP3    H241450   1.300   6.245   2.365 -0.6646  2.2285  0.8533
 6679TIP3   OH241451   4.009   0.315  13.576  0.1234  0.2541 -0.6377
 6679TIP3    H141452   4.033   0.387  13.518 -0.4422  1.0851  0.1295
 6679TIP3    H241453   3.953   0.259  13.523  1.0015  0.0857 -1.4035
 6680TIP3   OH241454   0.233   2.657  13.774 -0.0468  0.1159  0.5428
 6680TIP3    H141455   0.265   2.639  13.862  1.8702 -1.9234 -0.4578
 6680TIP3    H241456   0.213   2.571  13.738  1.8112  0.5974 -1.8799
 6681TIP3   OH241457   1.295   4.150  13.426 -0.1406 -0.2714  0.5076
 6681TIP3    H141458   1.282   4.162  13.332 -0.8299 -0.4861  0.5752
 6681TIP3    H241459   1.345   4.228  13.453 -0.2375 -0.0390  0.0322
 6682TIP3   OH241460   3.371   3.429  13.940 -0.1323 -0.3810  0.5269
 6682TIP3    H141461   3.360   3.438  14.034  0.4508 -0.2584  0.5804
 6682TIP3    H241462   3.311   3.357  13.916 -0.6780 -0.0610  0.9012
 6683TIP3   OH241463   6.718   4.919  11.381  0.4154  0.5827 -0.3386
 6683TIP3    H141464   6.781   4.969  11.329  0.7543  0.6952  0.1584
 6683TIP3    H241465   6.772   4.851  11.423  0.2238  0.7391  0.1658
 6684TIP3   OH241466   2.429   0.762  12.509  0.0123 -0.2451  0.2193
 6684TIP3    H141467   2.500   0.797  12.563  0.0592 -1.1003  0.7268
 6684TIP3    H241468   2.463   0.765  12.420  0.2554  0.3897  0.3272
 6685TIP3   OH241469   1.740   0.744   4.103 -0.6946 -0.0005  0.4533
 6685TIP3    H141470   1.783   0.800   4.169  2.3521 -1.9579  0.3341
 6685TIP3    H241471   1.749   0.656   4.137 -0.2095 -0.9524 -1.9438
 6686TIP3   OH241472   4.147   1.516  14.446 -0.3935  0.4045 -0.2418
 6686TIP3    H141473   4.207   1.531  14.374  1.7785 -0.0931  1.3377
 6686TIP3    H241474   4.183   1.567  14.519 -2.2682  0.5942  0.6214
 6687TIP3   OH241475   4.729   4.755   0.040  0.9301  0.1546 -0.0855
 6687TIP3    H141476   4.739   4.706  -0.042  0.5057 -0.6065  0.3093
 6687TIP3    H241477   4.819   4.774   0.067  1.1213 -0.7938 -0.0215
 6688TIP3   OH241478   5.619   4.774   0.018  0.4833 -0.0776 -0.7313
 6688TIP3    H141479   5.681   4.720  -0.032  0.0267 -0.7314 -0.5913
 6688TIP3    H241480   5.569   4.712   0.071  0.4434  0.5451 -0.0184
 6689TIP3   OH241481   1.689   2.459   2.018  0.6808 -0.2539 -0.5913
 6689TIP3    H141482   1.704   2.381   2.072 -0.1527 -0.6305 -0.8809
 6689TIP3    H241483   1.716   2.532   2.073  0.6659 -0.6910  0.0126
 6690TIP3   OH241484   2.957   4.085  13.574 -0.0801  0.0022  0.2856
 6690TIP3    H141485   2.942   4.001  13.530 -1.3661 -0.0273  0.7322
 6690TIP3    H241486   2.869   4.115  13.598  0.0890  2.6385 -1.9346
 6691TIP3   OH241487   6.572   0.244  16.051 -0.2531  0.0355 -0.3921
 6691TIP3    H141488   6.530   0.318  16.006  0.9403  0.6477 -0.5571
 6691TIP3    H241489   6.575   0.175  15.984  0.0624  0.3945 -0.7596
 6692TIP3   OH241490   6.296   1.051  12.145 -0.1708  0.1120  0.3333
 6692TIP3    H141491   6.223   1.112  12.155 -1.5008 -1.4631  0.6185
 6692TIP3    H241492   6.362   1.081  12.207 -1.0628  0.8731  0.9340
 6693TIP3   OH241493   3.698   4.899  14.273  0.1751 -0.2751  0.0720
 6693TIP3    H141494   3.755   4.857  14.209  0.3386 -3.1803  1.9676
 6693TIP3    H241495   3.638   4.830  14.301  0.3760  0.7111  3.3244
 6694TIP3   OH241496   4.777   4.456  14.994 -0.3065 -0.0543  0.1688
 6694TIP3    H141497   4.773   4.456  14.898  3.0410  1.6832 -0.1058
 6694TIP3    H241498   4.685   4.457  15.021 -1.4257 -1.9487 -2.9268
 6695TIP3   OH241499   2.922   6.335   4.222  0.1032 -0.5083  0.1809
 6695TIP3    H141500   3.015   6.325   4.205  0.0029  0.6560 -1.3195
 6695TIP3    H241501   2.880   6.292   4.148 -0.4081  3.0273 -1.8399
 6696TIP3   OH241502   4.478   3.418   0.628  0.1423  0.1549 -0.2753
 6696TIP3    H141503   4.527   3.350   0.582  1.8303  0.5117  0.9125
 6696TIP3    H241504   4.500   3.406   0.720  0.6608  2.3799 -0.0391
 6697TIP3   OH241505   6.293   5.671   5.879 -0.3740 -0.3480 -0.1756
 6697TIP3    H141506   6.327   5.607   5.941  2.1621  0.9506 -0.0866
 6697TIP3    H241507   6.271   5.620   5.801  1.6932 -1.3639 -0.1530
 6698TIP3   OH241508   6.554   1.960  15.435  0.5317  0.4122  0.0387
 6698TIP3    H141509   6.618   1.966  15.364  0.5905  0.8037  0.1235
 6698TIP3    H241510   6.492   2.032  15.419  0.1778  0.1073  0.0222
 6699TIP3   OH241511   0.009   3.124   2.171 -0.0174 -0.6060 -0.1942
 6699TIP3    H141512   0.062   3.202   2.185 -0.9775 -0.4376  3.2166
 6699TIP3    H241513  -0.049   3.148   2.098 -0.9747  2.3034  1.3790
 6700TIP3   OH241514   2.738   5.387   2.732 -0.0708  0.6635  0.0166
 6700TIP3    H141515   2.714   5.459   2.673  0.3299 -0.5701 -1.7159
 6700TIP3    H241516   2.828   5.406   2.757  0.0295  0.7743 -0.4187
 6701TIP3   OH241517   4.005   3.818   2.205 -0.0954  0.2175  0.0889
 6701TIP3    H141518   4.093   3.780   2.199 -0.7363 -1.3387  0.1034
 6701TIP3    H241519   3.986   3.848   2.116  0.8340  1.5519  0.2988
 6702TIP3   OH241520   6.564   3.968   1.364 -0.1926  0.2467  0.2694
 6702TIP3    H141521   6.597   4.017   1.440  1.3181  1.5518 -1.1363
 6702TIP3    H241522   6.471   3.955   1.381 -0.1894  1.7906  1.6745
 6703TIP3   OH241523   0.983   3.642  13.461  0.2685  0.1387 -0.4585
 6703TIP3    H141524   0.926   3.565  13.463  1.5152 -0.9063 -2.5872
 6703TIP3    H241525   1.018   3.648  13.550 -0.9613 -0.8695  0.1228
 6704TIP3   OH241526   2.685   6.608   2.078  0.2238 -0.9293 -0.1493
 6704TIP3    H141527   2.746   6.681   2.086  0.3678 -1.0287 -0.3441
 6704TIP3    H241528   2.657   6.590   2.168 -0.6329  0.0561 -0.1964
 6705TIP3   OH241529   3.903   2.767  13.263 -0.1173 -0.1361  0.2119
 6705TIP3    H141530   3.844   2.794  13.333  0.9688 -0.4752  1.2828
 6705TIP3    H241531   3.948   2.690  13.298  0.0485 -0.6525 -1.0820
 6706TIP3   OH241532   6.590   6.004  16.235  0.1115 -0.1680  0.1671
 6706TIP3    H141533   6.549   5.920  16.256 -1.4633  0.3438 -0.6832
 6706TIP3    H241534   6.679   5.981  16.208  0.1639 -1.4060  1.3150
 6707TIP3   OH241535   5.114   3.697  16.728  0.0734 -0.4746  0.2833
 6707TIP3    H141536   5.146   3.624  16.781  0.6971  0.5215  1.3443
 6707TIP3    H241537   5.096   3.767  16.792 -0.7531  0.2123 -0.6704
 6708TIP3   OH241538   6.168   1.270   0.438  0.1597 -0.1514  0.1967
 6708TIP3    H141539   6.157   1.266   0.343 -0.9962  0.8025  0.2651
 6708TIP3    H241540   6.084   1.240   0.474  0.3104  0.2277  0.9000
 6709TIP3   OH241541   4.583   2.138  13.103  0.5777  0.9196 -0.2445
 6709TIP3    H141542   4.575   2.226  13.066  0.3932  1.2047  0.4516
 6709TIP3    H241543   4.493   2.105  13.105  0.2239  1.8027  2.0410
 6710TIP3   OH241544   5.199   3.241   5.744  0.0465 -0.4037 -0.7462
 6710TIP3    H141545   5.258   3.251   5.820 -1.6097  1.8234  0.3538
 6710TIP3    H241546   5.218   3.317   5.689  0.2401 -1.2645 -1.8913
 6711TIP3   OH241547   5.052   2.362  12.869 -0.6137  0.2496 -0.1509
 6711TIP3    H141548   5.002   2.326  12.942 -1.1208 -3.5188 -2.0957
 6711TIP3    H241549   4.990   2.368  12.797  0.1986  2.4837 -0.7603
 6712TIP3   OH241550   5.043   0.162   1.266 -0.4378 -0.4292  0.0109
 6712TIP3    H141551   5.106   0.124   1.327  0.0667  0.5785  0.1403
 6712TIP3    H241552   5.012   0.241   1.309 -0.3729  0.0875 -0.8565
 6713TIP3   OH241553   1.483   4.449   1.980 -0.0255 -0.1707 -0.3309
 6713TIP3    H141554   1.573   4.429   2.004  0.1183  0.4290 -0.3597
 6713TIP3    H241555   1.479   4.431   1.886  0.0355 -0.3144 -0.3051
 6714TIP3   OH241556   0.765   0.311  14.164 -0.2119 -0.4436  0.2967
 6714TIP3    H141557   0.824   0.274  14.230  0.1739 -0.0820  0.1583
 6714TIP3    H241558   0.804   0.396  14.142 -0.4971 -0.4339 -0.1818
 6715TIP3   OH241559   4.899   0.322  14.881 -0.1032 -0.2999 -0.5542
 6715TIP3    H141560   4.880   0.232  14.907  0.5291 -0.2109  0.2809
 6715TIP3    H241561   4.949   0.313  14.800  0.6808 -0.7593 -0.0404
 6716TIP3   OH241562   2.869   1.710   3.296 -0.3418  0.7961  0.1262
 6716TIP3    H141563   2.883   1.796   3.256 -0.8075  1.0946  0.5978
 6716TIP3    H241564   2.944   1.658   3.267  1.2179  2.0466  1.6969
 6717TIP3   OH241565   5.321   4.118  12.374  0.2543 -0.5537 -0.3698
 6717TIP3    H141566   5.387   4.051  12.353  0.5075 -0.1673 -0.8025
 6717TIP3    H241567   5.364   4.201  12.356 -0.6162 -0.3094 -1.4492
 6718TIP3   OH241568   3.054   3.273  13.532  0.0899  0.2093 -0.1897
 6718TIP3    H141569   2.965   3.309  13.541 -0.5527 -1.1637 -0.8822
 6718TIP3    H241570   3.068   3.267  13.438  0.7239 -0.0658 -0.0782
 6719TIP3   OH241571   0.097   4.157   4.994 -0.1616 -0.1118 -0.2665
 6719TIP3    H141572   0.028   4.152   4.928 -1.1424  0.8213  0.6447
 6719TIP3    H241573   0.083   4.080   5.049 -1.0441  0.5117  0.4177
 6720TIP3   OH241574   1.854   2.698   2.573 -0.4686  0.2725  0.2549
 6720TIP3    H141575   1.893   2.654   2.497  0.5602 -0.8595  1.3918
 6720TIP3    H241576   1.849   2.790   2.547 -1.1723 -0.2412 -1.5858
 6721TIP3   OH241577   4.195   4.579   1.231  0.0802  0.8765  0.3695
 6721TIP3    H141578   4.264   4.602   1.293 -0.5271  2.8701  0.4002
 6721TIP3    H241579   4.235   4.593   1.145  0.5397 -0.6881  0.3017
 6722TIP3   OH241580   6.216   4.733  14.189  0.0607 -0.3849 -0.2700
 6722TIP3    H141581   6.140   4.682  14.217 -0.3736 -0.3304 -1.3076
 6722TIP3    H241582   6.288   4.670  14.186  0.1644 -0.3616  1.0820
 6723TIP3   OH241583   6.647   2.050  13.170  0.2653 -0.3546  0.5837
 6723TIP3    H141584   6.714   1.995  13.129 -2.5119 -4.5772  1.0850
 6723TIP3    H241585   6.677   2.062  13.260  0.3698 -2.2934  0.8376
 6724TIP3   OH241586   6.818   0.738  12.894 -0.5752 -0.2297  0.0791
 6724TIP3    H141587   6.744   0.689  12.859 -1.6470 -1.2517  3.4176
 6724TIP3    H241588   6.895   0.695  12.858 -1.5567 -1.1968 -0.9276
 6725TIP3   OH241589   2.253   4.721  14.448  0.3461  0.0041 -0.0737
 6725TIP3    H141590   2.173   4.689  14.406 -0.2238  1.5971 -0.2646
 6725TIP3    H241591   2.266   4.663  14.523 -1.2015 -0.0244  0.1878
 6726TIP3   OH241592   5.508   6.406   4.132  0.0968  0.4390 -0.2918
 6726TIP3    H141593   5.588   6.459   4.135  1.2929 -1.3383  2.2669
 6726TIP3    H241594   5.438   6.470   4.119  1.5953  2.5586  1.3092
 6727TIP3   OH241595   3.278   1.792   6.528 -0.3515 -0.5145  0.0028
 6727TIP3    H141596   3.295   1.705   6.563  0.6694 -1.4831 -2.6314
 6727TIP3    H241597   3.321   1.852   6.590  1.8351 -2.1164  0.1546
 6728TIP3   OH241598   1.333   1.540  15.927 -0.5494 -0.4272  0.3984
 6728TIP3    H141599   1.278   1.493  15.991 -0.6516  0.7659  1.2193
 6728TIP3    H241600   1.283   1.619  15.907  0.4055  0.1811  0.3881
 6729TIP3   OH241601   2.923   2.014   4.033  0.1517  0.2738 -0.7721
 6729TIP3    H141602   2.863   1.952   4.074  1.2287 -0.8360 -0.8264
 6729TIP3    H241603   2.973   1.962   3.970  1.2296  1.1382 -0.6750
 6730TIP3   OH241604   1.101   5.169   2.668 -0.6118 -0.1863  0.3551
 6730TIP3    H141605   1.119   5.262   2.661  0.9243 -0.5406 -1.1286
 6730TIP3    H241606   1.149   5.141   2.746 -1.2329  0.2640  0.9159
 6731TIP3   OH241607   3.069   4.318  11.830  0.3211 -0.3578 -0.0122
 6731TIP3    H141608   3.098   4.409  11.819 -0.6922 -0.0891 -0.6328
 6731TIP3    H241609   2.974   4.322  11.820  0.3315 -1.5898 -0.8268
 6732TIP3   OH241610   3.835   4.210  13.635  0.1669  0.0221  0.0868
 6732TIP3    H141611   3.836   4.243  13.546  0.0055  3.1111  1.1223
 6732TIP3    H241612   3.746   4.176  13.646 -0.2267  0.8068 -0.5494
 6733TIP3   OH241613   4.427   0.520  11.992  0.0256 -0.0511 -0.3698
 6733TIP3    H141614   4.479   0.583  11.941 -0.4728  1.7239  1.1666
 6733TIP3    H241615   4.359   0.491  11.932  0.1655  1.0560 -1.1012
 6734TIP3   OH241616   0.232   2.092  16.091 -0.2265 -0.0267 -0.1914
 6734TIP3    H141617   0.270   2.146  16.159 -0.2530  0.6852 -0.7296
 6734TIP3    H241618   0.275   2.007  16.100  1.2632  0.6663 -0.5888
 6735TIP3   OH241619   4.422   2.996   2.253 -0.0663 -0.6653  0.1756
 6735TIP3    H141620   4.453   3.004   2.162 -0.0714 -0.1944  0.2132
 6735TIP3    H241621   4.363   2.921   2.252  0.1977 -0.8713 -0.1398
 6736TIP3   OH241622   5.837   0.848   5.225  0.5982 -0.3406  0.4282
 6736TIP3    H141623   5.858   0.769   5.275  0.7735 -0.4784  0.1329
 6736TIP3    H241624   5.916   0.867   5.175  1.0112  0.7493  1.4569
 6737TIP3   OH241625   2.098   5.381   4.012 -0.1163 -0.0759  0.5539
 6737TIP3    H141626   2.139   5.330   4.081  0.8792  0.6020  0.4881
 6737TIP3    H241627   2.050   5.450   4.058 -1.4184 -1.0052  0.6407
 6738TIP3   OH241628   4.452   5.846  14.086  0.1093 -0.3980 -0.0766
 6738TIP3    H141629   4.490   5.831  13.999  1.1701  0.2254  0.2571
 6738TIP3    H241630   4.520   5.816  14.146  0.6959  1.9766  0.5599
 6739TIP3   OH241631   2.454   0.166   2.750  0.1139  0.3404  0.9712
 6739TIP3    H141632   2.525   0.108   2.722 -1.0308 -1.7385  2.1840
 6739TIP3    H241633   2.497   0.249   2.770  1.6595  0.3562 -1.9124
 6740TIP3   OH241634   3.408   5.510   0.298  0.0817 -0.1146  0.0068
 6740TIP3    H141635   3.389   5.600   0.324 -1.7819 -1.0422  2.2712
 6740TIP3    H241636   3.336   5.486   0.239  0.0893 -0.3745  0.0989
 6741TIP3   OH241637   5.427   4.477  13.782  0.2144  0.5078  0.4965
 6741TIP3    H141638   5.408   4.526  13.702 -2.3692 -0.9564  0.0917
 6741TIP3    H241639   5.465   4.541  13.842 -0.3405  2.2751 -0.9736
 6742TIP3   OH241640   3.405   2.433   1.696 -0.0045  0.2106 -0.5069
 6742TIP3    H141641   3.430   2.524   1.680 -1.0634  0.8879  1.3989
 6742TIP3    H241642   3.479   2.381   1.665  0.6404  1.7160 -1.5710
 6743TIP3   OH241643   3.325   1.676   3.659 -0.4036 -0.5262 -0.1633
 6743TIP3    H141644   3.341   1.741   3.591 -2.6746  0.4449  0.1535
 6743TIP3    H241645   3.290   1.600   3.612 -2.4573  0.3263 -0.1076
 6744TIP3   OH241646   1.317   5.805   0.028 -0.1096 -0.6683 -0.5724
 6744TIP3    H141647   1.379   5.735   0.005  0.1057 -0.0555 -1.9625
 6744TIP3    H241648   1.283   5.835  -0.056 -0.7199  0.4433  0.0488
 6745TIP3   OH241649   4.047   0.016  12.747  0.1507 -0.0967 -0.4370
 6745TIP3    H141650   4.088   0.061  12.673 -1.5971 -0.7740 -1.8718
 6745TIP3    H241651   4.111  -0.050  12.773  1.6700  1.4718  0.0549
 6746TIP3   OH241652   2.023   3.507   3.117 -0.4659  0.5754  0.4463
 6746TIP3    H141653   2.000   3.563   3.191  0.6243  1.2979  0.2744
 6746TIP3    H241654   2.078   3.438   3.154 -1.6575 -0.2943  0.6289
 6747TIP3   OH241655   0.904   1.065   0.375  0.1878  0.2865  0.4420
 6747TIP3    H141656   0.993   1.056   0.409  0.3274  2.1981  0.6949
 6747TIP3    H241657   0.874   1.150   0.408 -1.3068  0.2067 -0.5899
 6748TIP3   OH241658   4.152   3.524   1.525 -0.1796 -0.0369  0.7557
 6748TIP3    H141659   4.189   3.538   1.612 -1.6505 -1.8584  1.7503
 6748TIP3    H241660   4.081   3.588   1.518 -1.0973 -0.9141  1.6078
 6749TIP3   OH241661   4.130   2.269   5.787 -0.1049  0.1145  0.2912
 6749TIP3    H141662   4.218   2.301   5.807 -0.5209  0.4394  1.7417
 6749TIP3    H241663   4.077   2.347   5.780 -0.5728 -0.1351  0.9810
 6750TIP3   OH241664   2.039   0.560   5.202 -0.2049  0.1500  0.5161
 6750TIP3    H141665   2.071   0.472   5.181 -0.4931  0.3876 -1.0538
 6750TIP3    H241666   1.958   0.544   5.252  0.3639 -0.4579  1.2651
 6751TIP3   OH241667   6.815   0.953   5.997 -0.0005 -0.4012 -0.0624
 6751TIP3    H141668   6.853   0.874   5.959 -1.3960 -0.5841 -1.1273
 6751TIP3    H241669   6.756   0.921   6.065 -0.1808 -0.2383 -0.1439
 6752TIP3   OH241670   5.991   6.470   5.203  0.0643 -0.7143  0.0998
 6752TIP3    H141671   5.949   6.395   5.161  0.0493 -0.2030 -0.8200
 6752TIP3    H241672   5.928   6.541   5.193  0.3362 -0.4227  0.4268
 6753TIP3   OH241673   3.104   2.392   1.433  0.1513 -1.1001  0.1988
 6753TIP3    H141674   3.044   2.343   1.489  0.6903 -0.8327  1.0263
 6753TIP3    H241675   3.187   2.344   1.440  0.9407  0.3774  1.7313
 6754TIP3   OH241676   1.877   2.303  12.851  0.0556  0.2073 -0.1732
 6754TIP3    H141677   1.907   2.283  12.940  0.0828 -0.9395 -0.4223
 6754TIP3    H241678   1.875   2.399  12.848  3.5712  0.4133 -0.1091
 6755TIP3   OH241679   6.381   2.890   3.639 -0.6445 -0.3738 -0.0691
 6755TIP3    H141680   6.302   2.878   3.693 -0.3113  0.5213  0.6622
 6755TIP3    H241681   6.452   2.896   3.703  0.0531 -1.3983 -0.7366
 6756TIP3   OH241682   0.094   6.627  13.961 -0.0791 -0.2204  0.3187
 6756TIP3    H141683   0.046   6.649  13.881  0.9720  2.1575  0.2293
 6756TIP3    H241684   0.169   6.576  13.930 -0.3607 -0.4262 -0.0382
 6757TIP3   OH241685   0.738   6.252   5.012  0.0737  0.2593  0.1237
 6757TIP3    H141686   0.763   6.203   4.933 -1.1960  0.8668 -0.6864
 6757TIP3    H241687   0.643   6.250   5.013 -0.0249  2.4405  0.2131
 6758TIP3   OH241688   0.839   1.813   3.679  0.6149  0.3668 -0.0355
 6758TIP3    H141689   0.755   1.856   3.692  1.8322  2.7160  0.5660
 6758TIP3    H241690   0.863   1.834   3.588  0.5859 -0.3103 -0.2115
 6759TIP3   OH241691   3.503   6.389  16.610 -0.2674 -0.7201  0.3849
 6759TIP3    H141692   3.543   6.367  16.526 -2.1878 -0.3167 -0.6897
 6759TIP3    H241693   3.562   6.454  16.649 -0.4664  0.8022 -1.6964
 6760TIP3   OH241694   0.495   1.795   1.388  0.1126 -0.0075  0.6538
 6760TIP3    H141695   0.534   1.768   1.471  1.6174 -3.8372 -1.0378
 6760TIP3    H241696   0.477   1.713   1.342 -1.7692  1.8824 -2.3714
 6761TIP3   OH241697   1.948   0.498   4.698  0.5325 -0.0399 -1.2222
 6761TIP3    H141698   1.976   0.532   4.782  2.4649 -1.8825 -1.0480
 6761TIP3    H241699   2.013   0.530   4.635  0.6809 -0.9200 -1.5338
 6762TIP3   OH241700   3.551   0.631   1.420 -0.3899 -0.0672  0.2547
 6762TIP3    H141701   3.530   0.689   1.493  0.5257  0.5698  0.0303
 6762TIP3    H241702   3.599   0.686   1.359 -0.4204 -0.8058 -0.4543
 6763TIP3   OH241703   4.419   0.955   5.542  0.1605 -0.1921  0.5123
 6763TIP3    H141704   4.480   0.926   5.609  0.5364 -0.4949  0.0453
 6763TIP3    H241705   4.473   1.000   5.477  0.4127 -2.9995 -1.4018
 6764TIP3   OH241706   5.226   4.942   2.580 -0.4178  0.2506 -0.5465
 6764TIP3    H141707   5.193   4.972   2.496 -0.9935  0.1042 -0.3746
 6764TIP3    H241708   5.321   4.934   2.567 -0.4016  1.0197 -0.9331
 6765TIP3   OH241709   5.866   5.381   1.043  0.3059  0.3991 -0.1308
 6765TIP3    H141710   5.959   5.400   1.031  0.4379 -0.4265 -0.5174
 6765TIP3    H241711   5.852   5.386   1.138  1.1270 -1.0422  0.1094
 6766TIP3   OH241712   0.490   3.857  16.275  0.5518  0.6259  0.2117
 6766TIP3    H141713   0.560   3.903  16.228  0.1770  2.1350  1.0798
 6766TIP3    H241714   0.532   3.825  16.355  0.4150  0.9944  0.4367
 6767TIP3   OH241715   1.961   5.521   1.330  0.1076  0.0762  0.5655
 6767TIP3    H141716   1.927   5.563   1.251 -0.3191  0.2946  0.8589
 6767TIP3    H241717   2.018   5.452   1.297 -0.4211 -0.1318  0.0564
 6768TIP3   OH241718   0.836   6.056  13.372  0.1217 -0.4070 -0.3961
 6768TIP3    H141719   0.844   6.042  13.466 -0.6689 -0.8576 -0.3949
 6768TIP3    H241720   0.900   6.124  13.353  1.4257 -1.4150  0.2056
 6769TIP3   OH241721   3.313   6.426   0.376  0.9645 -0.2326 -0.0987
 6769TIP3    H141722   3.318   6.501   0.435  0.4261  0.2490 -0.6496
 6769TIP3    H241723   3.391   6.432   0.322 -0.1472  1.2754 -1.6762
 6770TIP3   OH241724   2.984   2.545   4.318 -0.0979 -0.0387 -0.2867
 6770TIP3    H141725   2.900   2.584   4.294 -0.8869 -1.9580 -0.8784
 6770TIP3    H241726   3.002   2.482   4.248  2.9345  1.7368 -1.3346
 6771TIP3   OH241727   1.645   2.197   4.836  0.0583 -0.3777 -0.3518
 6771TIP3    H141728   1.718   2.192   4.774 -0.2751  0.5371 -0.8419
 6771TIP3    H241729   1.639   2.290   4.857 -0.8844 -0.4657 -0.2057
 6772TIP3   OH241730   2.198   6.549  15.478 -0.2966  0.0273 -0.0094
 6772TIP3    H141731   2.167   6.488  15.545 -1.2128  1.0531  0.5492
 6772TIP3    H241732   2.163   6.516  15.396  1.0655 -1.3994 -0.0478
 6773TIP3   OH241733   5.863   4.066   0.657 -0.0561  0.1005  0.2977
 6773TIP3    H141734   5.956   4.085   0.674 -0.2654 -0.8380  2.9232
 6773TIP3    H241735   5.838   4.130   0.591  3.2253 -1.6782 -3.0555
 6774TIP3   OH241736   0.939   3.054  15.585 -0.3098 -0.2831  0.2050
 6774TIP3    H141737   0.853   3.022  15.559 -0.4219 -0.4128  0.7295
 6774TIP3    H241738   1.000   2.986  15.557 -0.3299 -0.0118 -0.5214
 6775TIP3   OH241739   3.033   1.979  10.380 -0.0923 -0.4033 -0.0706
 6775TIP3    H141740   2.997   2.010  10.297 -0.6724  0.3197  0.4397
 6775TIP3    H241741   2.957   1.957  10.433  0.1573  1.4194  1.1306
 6776TIP3   OH241742   1.797   5.474  12.689 -0.8194  0.4118 -0.3460
 6776TIP3    H141743   1.747   5.498  12.767 -0.6864 -0.7150  0.0929
 6776TIP3    H241744   1.734   5.428  12.633 -0.9007  1.1648 -0.8924
 6777TIP3   OH241745   1.013   2.799   0.690  0.0679  0.0543  0.2233
 6777TIP3    H141746   1.017   2.872   0.752 -0.8963 -1.1473  1.8020
 6777TIP3    H241747   0.920   2.777   0.686  0.3863 -1.3611  0.1357
 6778TIP3   OH241748   3.730   3.732   4.291  0.9931  0.6284 -1.1954
 6778TIP3    H141749   3.760   3.669   4.225 -0.7817  0.1671 -1.6029
 6778TIP3    H241750   3.762   3.817   4.259  2.3234  0.1252 -1.2872
 6779TIP3   OH241751   0.826   1.185   5.030 -0.1094  0.0619  0.5228
 6779TIP3    H141752   0.746   1.137   5.010  0.6912 -0.9441 -0.3720
 6779TIP3    H241753   0.841   1.170   5.123  0.0545 -1.3420  0.2882
 6780TIP3   OH241754   2.928   5.402  15.893 -0.0411  0.5345  0.2207
 6780TIP3    H141755   2.875   5.449  15.958  1.1928  0.4774  1.3231
 6780TIP3    H241756   2.935   5.313  15.929 -0.5252  0.0994 -0.7349
 6781TIP3   OH241757   5.391   0.715  11.382  0.6255 -0.0134 -0.9270
 6781TIP3    H141758   5.371   0.801  11.418 -1.2169 -0.8463  0.2172
 6781TIP3    H241759   5.453   0.676  11.444  1.3432  0.4109 -1.3672
 6782TIP3   OH241760   5.761   2.727  13.954  0.3924  0.9059  0.1753
 6782TIP3    H141761   5.743   2.772  14.036  0.1312 -1.7407  1.6883
 6782TIP3    H241762   5.856   2.732  13.944  1.0811 -2.3441  3.0773
 6783TIP3   OH241763   4.667   3.855  11.218 -0.0265  0.8195  0.1341
 6783TIP3    H141764   4.658   3.768  11.258 -2.6654  0.2221 -1.5104
 6783TIP3    H241765   4.612   3.912  11.272  1.7426  1.5708  1.2433
 6784TIP3   OH241766   0.687   1.290  14.587  0.1688  0.2822 -0.9066
 6784TIP3    H141767   0.766   1.311  14.537  1.5791  2.4961  1.9753
 6784TIP3    H241768   0.712   1.216  14.642 -0.3199 -0.0559 -1.1267
 6785TIP3   OH241769   4.692   2.855   3.075  0.3465  0.6648  0.0414
 6785TIP3    H141770   4.765   2.819   3.125  1.1352 -0.2604 -1.6836
 6785TIP3    H241771   4.636   2.895   3.141  1.0927 -0.8688  1.7112
 6786TIP3   OH241772   0.740   6.797  15.405  0.5550  0.1165  0.0987
 6786TIP3    H141773   0.683   6.721  15.419 -0.1588  0.8882  1.6287
 6786TIP3    H241774   0.694   6.849  15.339  0.2473 -0.0034  0.2162
 6787TIP3   OH241775   2.226   1.668  12.133 -0.1755  0.1673  0.1170
 6787TIP3    H141776   2.229   1.582  12.177 -1.2320 -0.8081 -1.6096
 6787TIP3    H241777   2.278   1.656  12.054 -0.3857  1.1275 -0.1746
 6788TIP3   OH241778   2.793   4.876   1.538 -1.0290 -0.1974  0.3477
 6788TIP3    H141779   2.789   4.797   1.484  0.8287  1.3735 -2.3978
 6788TIP3    H241780   2.874   4.867   1.588 -0.6516  0.0555 -0.2027
 6789TIP3   OH241781   6.007   6.493   0.102  0.3372 -0.1274 -0.0915
 6789TIP3    H141782   5.994   6.479   0.008  0.1501  2.0539 -0.4404
 6789TIP3    H241783   6.067   6.568   0.107  1.7951 -1.3307  1.5492
 6790TIP3   OH241784   2.686   3.003   0.489 -0.3640 -0.2066  0.3084
 6790TIP3    H141785   2.768   3.030   0.529  0.6261 -0.0125 -1.7697
 6790TIP3    H241786   2.705   2.918   0.449 -0.4124  0.9439 -2.3054
 6791TIP3   OH241787   3.049   0.207   5.006  0.2541 -0.4157  0.5677
 6791TIP3    H141788   3.027   0.179   4.917  0.0610 -1.3906  0.9109
 6791TIP3    H241789   3.029   0.300   5.006  0.0725 -0.4356 -0.3576
 6792TIP3   OH241790   4.943   6.460  15.100 -0.1728  0.1239 -0.3287
 6792TIP3    H141791   5.017   6.401  15.088  1.3851  1.2401  2.6822
 6792TIP3    H241792   4.940   6.512  15.020  0.1512 -2.0926 -1.8811
 6793TIP3   OH241793   3.200   0.725   3.002 -0.6931  0.6443  0.5701
 6793TIP3    H141794   3.172   0.756   3.088 -2.6426 -0.0566  0.2469
 6793TIP3    H241795   3.119   0.696   2.960  0.4129 -0.4437 -0.9196
 6794TIP3   OH241796   3.954   3.381  12.499  0.2313 -0.0741  0.0451
 6794TIP3    H141797   3.932   3.438  12.573  2.3368  2.7904 -1.3506
 6794TIP3    H241798   3.876   3.384  12.443 -0.8686 -1.2015  1.4216
 6795TIP3   OH241799   1.081   3.967  11.050 -0.4632  0.4649  0.3894
 6795TIP3    H141800   1.059   4.059  11.065 -1.8480 -0.0737  2.0014
 6795TIP3    H241801   1.140   3.945  11.123  1.7394  0.6285 -1.2528
 6796TIP3   OH241802   0.379   5.504   3.455 -0.3094  0.0105 -0.0473
 6796TIP3    H141803   0.435   5.427   3.466 -0.5374 -0.0835  0.4753
 6796TIP3    H241804   0.312   5.495   3.523 -1.2923 -0.1643 -1.0022
 6797TIP3   OH241805   4.955   1.272   3.281  0.4022 -0.2700  0.0242
 6797TIP3    H141806   4.899   1.256   3.205 -1.4150 -3.7369  1.8431
 6797TIP3    H241807   5.012   1.195   3.285  0.5474 -0.1064  2.0414
 6798TIP3   OH241808   0.808   0.969  14.629 -0.2893 -0.0962 -0.3716
 6798TIP3    H141809   0.859   0.889  14.639  1.6580  0.8514 -1.9647
 6798TIP3    H241810   0.808   1.008  14.717 -1.4783 -1.8946  0.4827
 6799TIP3   OH241811   5.552   2.168   4.545  0.3259 -0.1466 -0.2544
 6799TIP3    H141812   5.603   2.109   4.490  1.1648  0.4467 -0.1422
 6799TIP3    H241813   5.583   2.256   4.521 -2.0260  0.3977 -1.5756
 6800TIP3   OH241814   3.908   4.246   0.790 -0.7198 -0.6757 -0.3250
 6800TIP3    H141815   3.861   4.178   0.839  0.3787 -0.3932  1.2147
 6800TIP3    H241816   3.976   4.276   0.851 -1.1781  1.8353 -0.9395
 6801TIP3   OH241817   1.605   0.882  13.579 -0.2483 -0.2980 -0.1222
 6801TIP3    H141818   1.558   0.820  13.524 -0.1549 -0.6113  0.1397
 6801TIP3    H241819   1.553   0.886  13.660 -0.7252  0.6427 -0.4712
 6802TIP3   OH241820   6.022   0.620  13.192  1.1160 -0.0678 -1.0037
 6802TIP3    H141821   6.019   0.578  13.106  1.3163 -0.8639 -0.6347
 6802TIP3    H241822   6.093   0.683  13.186  1.6403 -0.6679 -1.1832
 6803TIP3   OH241823   0.995   3.616   2.414 -0.3663 -0.1120 -0.7816
 6803TIP3    H141824   1.079   3.582   2.382 -0.3341  0.6269 -1.5337
 6803TIP3    H241825   0.972   3.685   2.351 -0.1625  1.6288  0.9614
 6804TIP3   OH241826   5.772   2.696  11.886  0.4520 -0.1183  0.1928
 6804TIP3    H141827   5.798   2.645  11.963 -1.3376 -1.4980 -0.0609
 6804TIP3    H241828   5.714   2.639  11.837 -0.7299  1.7613 -0.7312
 6805TIP3   OH241829   6.757   5.285   3.223  0.1696 -0.1863 -0.3614
 6805TIP3    H141830   6.710   5.203   3.204 -0.0164  0.2830 -2.1423
 6805TIP3    H241831   6.832   5.258   3.275 -1.7455 -1.0319  2.2227
 6806TIP3   OH241832   0.317   4.456  11.123  0.0274  0.0256  0.0940
 6806TIP3    H141833   0.298   4.507  11.044 -0.1773 -0.3800 -0.1238
 6806TIP3    H241834   0.248   4.390  11.126  0.9609 -0.9917 -0.2747
 6807TIP3   OH241835   0.484   1.120  15.114  0.8023 -0.0973  0.3559
 6807TIP3    H141836   0.495   1.204  15.158 -0.7251 -1.0572  2.8206
 6807TIP3    H241837   0.548   1.062  15.155  0.2404 -0.7040  0.4068
 6808TIP3   OH241838   1.536   1.730  13.243  0.1038 -0.3525 -0.2540
 6808TIP3    H141839   1.626   1.700  13.240  0.6400  1.1127  0.3011
 6808TIP3    H241840   1.528   1.775  13.327 -0.2435  2.1173 -1.5013
 6809TIP3   OH241841   0.486   4.066   2.531 -0.1831  0.2724 -0.7662
 6809TIP3    H141842   0.576   4.092   2.510 -0.4322  1.3076 -0.6463
 6809TIP3    H241843   0.449   4.144   2.573 -1.0980 -0.1864 -0.7097
 6810TIP3   OH241844   5.965   3.479   1.496  0.0365  0.6674 -0.3442
 6810TIP3    H141845   5.909   3.406   1.522  0.9014  0.5539  1.3060
 6810TIP3    H241846   5.905   3.552   1.484 -0.3597  1.1903  3.7095
 6811TIP3   OH241847   1.028   0.356  15.189 -0.1602 -0.7828 -0.6971
 6811TIP3    H141848   1.110   0.390  15.153 -1.0950  1.1450 -1.1159
 6811TIP3    H241849   0.960   0.413  15.153 -1.3603 -0.0726  2.4238
 6812TIP3   OH241850   0.657   6.768   3.304 -0.3954 -0.6109  0.2648
 6812TIP3    H141851   0.616   6.853   3.285  0.1145 -0.1775  1.0594
 6812TIP3    H241852   0.750   6.789   3.316 -0.4121 -1.1464  1.3819
 6813TIP3   OH241853   3.735   1.199   4.642 -0.0335  0.2862  0.3433
 6813TIP3    H141854   3.653   1.156   4.667  0.2460  0.5029  1.7225
 6813TIP3    H241855   3.707   1.277   4.594 -0.5621 -0.8548 -1.3207
 6814TIP3   OH241856   0.343   2.423  17.074 -0.2669  0.4866  0.1429
 6814TIP3    H141857   0.428   2.465  17.065  0.6468 -1.4010 -0.5501
 6814TIP3    H241858   0.281   2.488  17.040  1.0955  1.1785 -1.1841
 6815TIP3   OH241859   0.069   1.592   2.186 -0.3412 -0.3754 -0.0095
 6815TIP3    H141860  -0.023   1.580   2.206 -0.4469 -2.4682 -1.4648
 6815TIP3    H241861   0.076   1.682   2.156 -1.5282  0.4094  1.9199
 6816TIP3   OH241862   4.754   6.207   2.416  0.3521  0.2930 -0.2688
 6816TIP3    H141863   4.782   6.170   2.499  0.8827 -0.5835 -0.8242
 6816TIP3    H241864   4.822   6.272   2.395 -0.6396  1.7331  0.7608
 6817TIP3   OH241865   3.879   5.035   5.800  0.0207 -0.3646  0.2078
 6817TIP3    H141866   3.879   4.947   5.840 -0.2074 -0.0841  0.8396
 6817TIP3    H241867   3.920   5.091   5.866  2.5019 -0.4208 -1.1753
 6818TIP3   OH241868   4.094   5.183  12.935 -0.2863  0.5649  0.0309
 6818TIP3    H141869   4.178   5.180  12.980 -0.8854  2.1918  1.4068
 6818TIP3    H241870   4.066   5.092  12.928  0.4627  0.1611  1.7954
 6819TIP3   OH241871   2.473   1.824   5.232  0.0606  0.0654 -0.3783
 6819TIP3    H141872   2.496   1.907   5.191 -1.8606  1.3874  1.0221
 6819TIP3    H241873   2.546   1.805   5.291  0.1413  1.2648 -0.0608
 6820TIP3   OH241874   2.071   1.007   0.064  0.3458 -0.3780  0.1328
 6820TIP3    H141875   2.135   1.065   0.106 -0.3262  0.2296  0.3399
 6820TIP3    H241876   2.000   1.000   0.127  0.1205 -0.8921 -0.1781
 6821TIP3   OH241877   2.560   1.034   2.415  0.3197  0.7695 -0.2081
 6821TIP3    H141878   2.562   1.098   2.344  0.1899  0.3403 -0.5983
 6821TIP3    H241879   2.533   0.952   2.374 -1.6372  0.9174  0.6283
 6822TIP3   OH241880   1.594   3.754  12.192 -0.3666  0.0955  0.2945
 6822TIP3    H141881   1.554   3.678  12.150 -0.6497  0.8079 -0.7505
 6822TIP3    H241882   1.533   3.825  12.177  1.2467  1.2079 -1.3354
 6823TIP3   OH241883   4.068   0.872  14.718  0.1506  0.1621 -0.0978
 6823TIP3    H141884   4.055   0.903  14.628  0.4304  0.3781 -0.0656
 6823TIP3    H241885   4.144   0.814  14.712 -0.2509 -0.3598 -0.1206
 6824TIP3   OH241886   0.540   6.320   2.098  0.1573 -0.0125  0.0259
 6824TIP3    H141887   0.620   6.365   2.125  1.7822 -1.5455 -1.8983
 6824TIP3    H241888   0.534   6.245   2.156  2.6391 -2.2974 -2.4083
 6825TIP3   OH241889   1.232   1.910   4.451 -0.2713  0.1237  0.1999
 6825TIP3    H141890   1.320   1.888   4.420 -0.9949  2.0110 -3.7758
 6825TIP3    H241891   1.187   1.825   4.458  1.2536 -0.7066  0.3113
 6826TIP3   OH241892   5.208   2.678  10.468  0.3945 -0.5867  0.1523
 6826TIP3    H141893   5.220   2.703  10.377  1.5190 -1.7416 -0.0449
 6826TIP3    H241894   5.290   2.703  10.511  0.9018 -2.3658  0.2785
 6827TIP3   OH241895   1.973   2.861  16.265 -0.1103  0.4165  0.0849
 6827TIP3    H141896   2.025   2.897  16.192  0.8530 -0.5210  0.2862
 6827TIP3    H241897   1.934   2.782  16.229  1.2376 -0.6410  0.8684
 6828TIP3   OH241898   6.093   0.510   1.918 -0.6131 -0.0216  0.1767
 6828TIP3    H141899   6.069   0.583   1.976 -1.3027 -1.5702  1.9383
 6828TIP3    H241900   6.167   0.469   1.961 -0.4866 -0.6081 -0.5820
 6829TIP3   OH241901   2.761   0.314   5.340  0.1118  0.5298  0.4434
 6829TIP3    H141902   2.764   0.408   5.360  0.6558  0.0317  3.0491
 6829TIP3    H241903   2.853   0.288   5.335 -0.0048 -0.1737  1.5796
 6830TIP3   OH241904   0.611   0.528   5.069 -0.2797 -0.3438 -0.6246
 6830TIP3    H141905   0.689   0.525   5.124 -0.3201 -1.1666 -0.5983
 6830TIP3    H241906   0.593   0.621   5.058 -1.5148 -0.0909  2.5267
 6831TIP3   OH241907   4.437   3.792  13.165  0.6538 -0.6294 -0.6168
 6831TIP3    H141908   4.512   3.849  13.146  1.3482 -1.7636 -1.4416
 6831TIP3    H241909   4.377   3.806  13.092 -1.1922  2.1516  1.2597
 6832TIP3   OH241910   6.461   5.460   1.087  0.8586 -0.1071 -0.1434
 6832TIP3    H141911   6.534   5.495   1.137  0.9628  0.6117 -0.7732
 6832TIP3    H241912   6.449   5.371   1.120  2.3667 -0.4383 -0.4152
 6833TIP3   OH241913   5.146   3.595   2.552  0.5584  0.0394  0.2713
 6833TIP3    H141914   5.131   3.683   2.516 -0.2599  0.5530  1.7397
 6833TIP3    H241915   5.071   3.544   2.522 -0.0646  0.4346  1.1145
 6834TIP3   OH241916   5.939   4.359   1.079 -0.3953 -0.3908  0.2112
 6834TIP3    H141917   5.898   4.430   1.029  1.4656 -0.3945 -1.4390
 6834TIP3    H241918   5.996   4.315   1.016 -2.1602 -4.0310  0.8961
 6835TIP3   OH241919   5.262   0.381  16.204  0.7535 -0.3523 -0.2903
 6835TIP3    H141920   5.338   0.337  16.243  2.0280 -1.3659 -3.5495
 6835TIP3    H241921   5.276   0.474  16.225  1.7762 -0.7279  0.8655
 6836TIP3   OH241922   5.625   6.241  16.669  0.4960 -0.3693 -0.5202
 6836TIP3    H141923   5.650   6.198  16.750  1.3712  2.1564  0.6539
 6836TIP3    H241924   5.676   6.196  16.601  0.6574 -1.7410  0.4725
 6837TIP3   OH241925   5.313   2.745  13.822  0.2860 -0.1539  0.2233
 6837TIP3    H141926   5.386   2.685  13.835  1.5642  1.7066  2.3874
 6837TIP3    H241927   5.327   2.782  13.735  1.3759 -0.5477  0.2263
 6838TIP3   OH241928   0.228   1.566   3.889 -0.1658  0.1610 -0.0608
 6838TIP3    H141929   0.244   1.529   3.802 -0.0980  0.6513 -0.2633
 6838TIP3    H241930   0.218   1.490   3.946 -0.1641 -0.1662 -0.4891
 6839TIP3   OH241931   3.158   3.039  14.204  1.0474  0.5860 -0.5911
 6839TIP3    H141932   3.063   3.029  14.201  1.1465 -0.9212  0.0668
 6839TIP3    H241933   3.178   3.050  14.297  1.7066 -2.1185 -0.3322
 6840TIP3   OH241934   3.853   0.404  16.276 -0.0771  0.5308 -0.4507
 6840TIP3    H141935   3.918   0.409  16.346 -1.4921 -1.0147  1.0663
 6840TIP3    H241936   3.827   0.312  16.274  1.2770  0.0392 -4.3965
 6841TIP3   OH241937   0.174   0.801   5.775  0.2795  0.3050  0.1582
 6841TIP3    H141938   0.155   0.736   5.843  1.9087 -0.8184 -0.3953
 6841TIP3    H241939   0.269   0.810   5.778  0.1169  2.4346 -0.0260
 6842TIP3   OH241940   0.392   5.719  13.407 -0.1382 -0.0553 -0.2892
 6842TIP3    H141941   0.368   5.727  13.315  0.8190 -0.0185 -0.5414
 6842TIP3    H241942   0.469   5.662  13.407  2.2262  2.8969  0.0904
 6843TIP3   OH241943   2.949   1.773   5.789 -0.3927  0.1467  0.7161
 6843TIP3    H141944   2.956   1.678   5.792  0.1766  0.1911  1.0589
 6843TIP3    H241945   2.940   1.800   5.880 -2.1270  0.3371  0.5221
 6844TIP3   OH241946   0.661   6.356   1.680 -0.1859  0.0892 -0.6129
 6844TIP3    H141947   0.737   6.410   1.657 -1.0129  1.0644 -1.1858
 6844TIP3    H241948   0.689   6.305   1.755  0.9454  0.6460 -0.6360
 6845TIP3   OH241949   6.255   5.681  12.751 -1.0387  0.0837  0.0555
 6845TIP3    H141950   6.292   5.724  12.827  2.3836 -0.6689 -1.0164
 6845TIP3    H241951   6.228   5.595  12.782 -0.8825  0.2526  0.6617
 6846TIP3   OH241952   4.289   0.820   2.265 -0.0084 -0.4868  0.4050
 6846TIP3    H141953   4.302   0.733   2.228 -0.5813 -1.1184  1.6323
 6846TIP3    H241954   4.195   0.827   2.277  0.1033 -0.0291  1.0663
 6847TIP3   OH241955   5.587   1.034  13.101  0.6522 -0.0456 -0.3337
 6847TIP3    H141956   5.645   1.109  13.088 -0.1024  0.4418 -1.0014
 6847TIP3    H241957   5.639   0.973  13.154  1.6394  0.5156 -0.6166
 6848TIP3   OH241958   3.370   6.021  11.547 -0.4636  0.0983  0.1084
 6848TIP3    H141959   3.399   6.109  11.568 -0.6705  0.2626 -0.2768
 6848TIP3    H241960   3.431   5.990  11.479 -1.2368  0.4945 -0.7945
 6849TIP3   OH241961   5.688   5.173   6.217 -0.0510 -0.0517 -0.1622
 6849TIP3    H141962   5.672   5.201   6.307  0.6189  1.1472 -0.4012
 6849TIP3    H241963   5.758   5.109   6.224 -0.4795 -0.4834  0.2362
 6850TIP3   OH241964   1.477   3.104  11.256  0.0650  0.1640 -0.1237
 6850TIP3    H141965   1.443   3.178  11.205 -1.7643 -0.1894  0.4829
 6850TIP3    H241966   1.545   3.142  11.312  0.0245  1.1363 -0.7192
 6851TIP3   OH241967   5.017   6.122  16.712  0.0463  0.2709  0.2283
 6851TIP3    H141968   5.113   6.124  16.712  0.1484  1.8967  3.5079
 6851TIP3    H241969   4.994   6.060  16.781 -1.3118 -0.3250 -0.7172
 6852TIP3   OH241970   4.544   2.420  14.914 -0.0315 -0.2743 -0.5624
 6852TIP3    H141971   4.489   2.363  14.969  0.6560 -0.0818  0.3582
 6852TIP3    H241972   4.628   2.374  14.910  1.0793  1.3810  1.5623
 6853TIP3   OH241973   0.284   0.716   0.059  0.6921  0.0294 -0.0262
 6853TIP3    H141974   0.252   0.706   0.149 -0.3492  1.3235 -0.2197
 6853TIP3    H241975   0.287   0.627   0.025  0.6537 -0.4410  1.1379
 6854TIP3   OH241976   6.065   1.678   3.030  1.1796 -0.0292 -0.1261
 6854TIP3    H141977   6.107   1.630   3.101  0.0691 -0.9432 -0.0711
 6854TIP3    H241978   5.972   1.660   3.040  1.0202 -0.3620 -1.9479
 6855TIP3   OH241979   4.119   2.363  13.380  0.2905 -0.2893  0.3877
 6855TIP3    H141980   4.121   2.344  13.286 -0.0682  2.3352 -0.2321
 6855TIP3    H241981   4.199   2.413  13.397  0.3103 -0.6584  1.4827
 6856TIP3   OH241982   4.365   3.874  17.032  0.1351  0.7397  0.2328
 6856TIP3    H141983   4.320   3.840  17.109 -0.2760  0.9299  0.0799
 6856TIP3    H241984   4.347   3.968  17.033 -1.1854  0.5338 -0.9281
 6857TIP3   OH241985   2.192   6.516  11.494 -0.2094 -0.2746 -0.0106
 6857TIP3    H141986   2.255   6.457  11.451  0.3570  0.3015  0.0190
 6857TIP3    H241987   2.244   6.563  11.559 -0.4655  0.9041 -0.6446
 6858TIP3   OH241988   1.775   1.888   2.016 -0.4319  0.3827  0.0981
 6858TIP3    H141989   1.762   1.982   2.030  0.5074  0.6416 -0.6587
 6858TIP3    H241990   1.687   1.851   2.015 -0.8358  1.3259 -0.0438
 6859TIP3   OH241991   4.904   2.563   4.502 -0.2587  0.6191 -0.3298
 6859TIP3    H141992   4.849   2.525   4.571 -0.7567  3.1105  0.7351
 6859TIP3    H241993   4.911   2.493   4.437  0.8527 -2.1212  2.4990
 6860TIP3   OH241994   0.075   4.189  13.979 -0.0685  0.1373  0.0983
 6860TIP3    H141995  -0.021   4.193  13.978 -0.0985 -0.4206 -0.0153
 6860TIP3    H241996   0.096   4.143  14.060  0.1552  1.1434  0.6269
 6861TIP3   OH241997   2.204   4.489   6.476 -0.2589 -0.2012 -0.2013
 6861TIP3    H141998   2.290   4.447   6.474 -0.5403 -0.9076  1.0918
 6861TIP3    H241999   2.144   4.421   6.445 -0.5557 -0.3354  0.6335
 6862TIP3   OH242000   4.567   0.356  15.836 -0.6410 -0.0950 -0.0502
 6862TIP3    H142001   4.498   0.361  15.901  0.4260  0.0327  1.1042
 6862TIP3    H242002   4.577   0.445  15.804 -1.7785 -0.3081 -1.0867
 6863TIP3   OH242003   2.872   4.743  13.419 -0.0426  0.3322 -0.4908
 6863TIP3    H142004   2.796   4.772  13.468  0.9236 -0.4137  1.5579
 6863TIP3    H242005   2.844   4.663  13.374 -0.2617 -0.3964  0.9077
 6864TIP3   OH242006   4.015   4.613  11.592 -0.3289 -0.1680  0.1971
 6864TIP3    H142007   3.964   4.648  11.520  0.2361  1.5863  0.6005
 6864TIP3    H242008   4.054   4.690  11.634  0.3137 -1.2260  1.6468
 6865TIP3   OH242009   3.640   4.561  13.379  0.5425  0.1988  0.3330
 6865TIP3    H142010   3.631   4.606  13.295 -0.3078 -0.6251 -0.0207
 6865TIP3    H242011   3.551   4.542  13.406  0.6063  2.5982  2.6275
 6866TIP3   OH242012   5.492   2.772   1.813  0.0572  0.6038  0.5904
 6866TIP3    H142013   5.477   2.855   1.768 -0.3620 -0.7960 -2.0393
 6866TIP3    H242014   5.564   2.731   1.765 -0.3585 -0.9522  1.2320
 6867TIP3   OH242015   3.415   4.422  14.128 -0.1516 -0.6056  0.0245
 6867TIP3    H142016   3.407   4.501  14.075 -0.7272  0.6665  1.9082
 6867TIP3    H242017   3.510   4.408  14.134  0.0114  0.5447  0.4727
 6868TIP3   OH242018   4.613   5.185  14.436 -0.7186  0.0756  0.3840
 6868TIP3    H142019   4.671   5.112  14.413  0.2041  0.5266  1.2185
 6868TIP3    H242020   4.671   5.259  14.451 -1.6099  0.8812  0.0334
 6869TIP3   OH242021   0.304   6.593  11.550  0.6478  0.1533 -0.7326
 6869TIP3    H142022   0.263   6.648  11.483 -2.4817 -1.5560 -0.3931
 6869TIP3    H242023   0.294   6.643  11.631  1.6595  0.8675 -1.0257
 6870TIP3   OH242024   2.654   6.677   3.411 -0.1374  0.2837 -0.2409
 6870TIP3    H142025   2.643   6.772   3.419 -0.0997  0.3071 -0.4746
 6870TIP3    H242026   2.611   6.655   3.329 -1.1845 -0.0726  0.3810
 6871TIP3   OH242027   3.556   0.939   2.552  0.1073  0.5461 -0.5298
 6871TIP3    H142028   3.577   0.847   2.537 -1.2747  0.3622 -1.5136
 6871TIP3    H242029   3.461   0.941   2.562  0.3553  1.4952  2.5573
 6872TIP3   OH242030   2.440   5.592   4.234 -0.1087 -0.8075  0.1809
 6872TIP3    H142031   2.367   5.546   4.276 -2.6648  1.2744 -1.5962
 6872TIP3    H242032   2.441   5.559   4.144  2.1495 -1.7862  0.5029
 6873TIP3   OH242033   1.187   5.082   4.116  0.7278 -0.2803 -0.0811
 6873TIP3    H142034   1.152   5.169   4.136  2.1063  0.5354 -1.1335
 6873TIP3    H242035   1.241   5.061   4.192 -0.7057 -0.8809  0.8339
 6874TIP3   OH242036   5.107   3.260  14.176 -0.1297  0.3466 -0.1672
 6874TIP3    H142037   5.053   3.183  14.158  1.3235 -0.4827 -1.1693
 6874TIP3    H242038   5.197   3.226  14.180  0.6821  2.1284 -1.7611
 6875TIP3   OH242039   1.000   2.768   1.050  0.3977  0.4754  0.1731
 6875TIP3    H142040   1.064   2.743   0.984  1.8796 -0.3018  1.8206
 6875TIP3    H242041   1.025   2.858   1.075  2.4011 -0.5875  2.4134
 6876TIP3   OH242042   2.029   3.343   5.262 -0.2064  0.1807 -0.1698
 6876TIP3    H142043   2.061   3.348   5.352  1.2713 -3.3870 -0.3362
 6876TIP3    H242044   1.960   3.409   5.258  1.6546  2.5561  2.6332
 6877TIP3   OH242045   0.010   3.222  12.770 -0.3849 -0.7149  0.2573
 6877TIP3    H142046   0.084   3.185  12.722 -0.7729 -1.9629  0.5817
 6877TIP3    H242047   0.043   3.305  12.804  1.6992 -2.2544  2.3654
 6878TIP3   OH242048   3.668   3.609  11.647 -0.0421 -0.0766  0.1143
 6878TIP3    H142049   3.586   3.580  11.607 -0.0934  0.1248  0.0696
 6878TIP3    H242050   3.672   3.563  11.730 -0.2810  0.0341  0.1893
 6879TIP3   OH242051   2.482   3.042  11.481  0.1501  0.2894 -0.1079
 6879TIP3    H142052   2.427   3.102  11.531 -0.3669  1.4631 -1.9678
 6879TIP3    H242053   2.567   3.084  11.478  0.2443  0.1069  0.0003
 6880TIP3   OH242054   0.218   3.404  12.520  0.1844 -0.1424 -0.4519
 6880TIP3    H142055   0.276   3.441  12.453 -1.5243 -0.5310 -2.2483
 6880TIP3    H242056   0.131   3.405  12.480 -1.2316  1.0649  2.3865
 6881TIP3   OH242057   0.057   1.878  12.450  0.0713 -0.3554 -0.1986
 6881TIP3    H142058   0.048   1.968  12.482  2.5706  0.1933 -0.8537
 6881TIP3    H242059   0.078   1.826  12.528 -0.5586 -0.2407  0.0531
 6882TIP3   OH242060   5.825   2.615  12.749 -0.3902 -0.2127 -0.0210
 6882TIP3    H142061   5.823   2.660  12.665 -2.7818 -1.1866 -0.5702
 6882TIP3    H242062   5.785   2.677  12.810 -1.8198 -0.7639 -0.3588
 6883TIP3   OH242063   0.425   5.899   4.675  0.0534  0.1008 -0.7266
 6883TIP3    H142064   0.495   5.834   4.681  0.0576  0.0700 -1.0679
 6883TIP3    H242065   0.406   5.922   4.766  1.1301  0.7791 -0.6492
 6884TIP3   OH242066   1.043   2.024  12.239 -0.7861  0.7381  0.3181
 6884TIP3    H142067   1.077   2.092  12.181  1.0094  0.1276  0.5932
 6884TIP3    H242068   1.047   1.943  12.188 -0.3115  0.3927  0.8782
 6885TIP3   OH242069   4.936   5.468   5.649  0.2164  0.5167  0.5929
 6885TIP3    H142070   4.955   5.539   5.711  0.3139  0.9671  0.0565
 6885TIP3    H242071   4.887   5.404   5.700 -0.0893  1.0860  1.0301
 6886TIP3   OH242072   6.719   4.592   5.486  0.3002 -0.3931  0.0435
 6886TIP3    H142073   6.707   4.675   5.532  1.5754 -0.3405  0.3099
 6886TIP3    H242074   6.756   4.617   5.401  0.5912 -0.6912  0.0833
 6887TIP3   OH242075   6.684   5.309   0.737 -0.2491 -0.1983 -0.7748
 6887TIP3    H142076   6.706   5.221   0.707 -1.4950 -0.9420  0.3545
 6887TIP3    H242077   6.593   5.303   0.764  0.0764  1.0363  0.7656
 6888TIP3   OH242078   0.214   2.831   5.018  0.4026  0.0081 -0.0976
 6888TIP3    H142079   0.236   2.923   5.002 -0.6216  0.2381 -0.2828
 6888TIP3    H242080   0.122   2.825   4.993  0.2140 -0.8589  0.7783
 6889TIP3   OH242081   4.371   5.373   2.223  0.4324  0.0422 -0.0069
 6889TIP3    H142082   4.403   5.461   2.240 -1.3649  0.5982  0.8236
 6889TIP3    H242083   4.328   5.379   2.138 -2.4530  0.8934  1.3767
 6890TIP3   OH242084   1.996   6.539   1.526 -0.0721 -0.7211 -0.2419
 6890TIP3    H142085   2.022   6.610   1.585 -0.8591 -0.6651  0.0489
 6890TIP3    H242086   1.913   6.508   1.561 -0.6376 -0.5814 -1.4183
 6891TIP3   OH242087   3.761   0.636  12.145 -0.3106  0.0503  0.4560
 6891TIP3    H142088   3.852   0.608  12.132  0.2132  1.2356  1.3304
 6891TIP3    H242089   3.715   0.606  12.067  1.2832  1.2531 -1.0291
 6892TIP3   OH242090   3.960   4.018  16.498  0.4104 -0.2847 -0.1860
 6892TIP3    H142091   3.878   4.061  16.522  0.9120  1.8227 -1.9625
 6892TIP3    H242092   3.938   3.966  16.421  0.4776 -0.7503  0.1063
 6893TIP3   OH242093   2.681   0.872  12.334 -0.0989 -0.2931 -0.0716
 6893TIP3    H142094   2.607   0.846  12.280  0.4460  0.1278 -1.0367
 6893TIP3    H242095   2.758   0.837  12.290  0.7982  3.4983 -1.9527
 6894TIP3   OH242096   5.389   0.658   0.625  0.3454  0.0823  0.5788
 6894TIP3    H142097   5.395   0.642   0.719  0.7571  1.0640  0.7402
 6894TIP3    H242098   5.295   0.663   0.608  0.1885 -2.1048  0.5418
 6895TIP3   OH242099   0.881   2.813   2.604 -0.2130 -0.1554 -0.0811
 6895TIP3    H142100   0.788   2.834   2.595  0.0454  0.0658 -3.6837
 6895TIP3    H242101   0.884   2.717   2.601 -0.3024 -0.1428 -1.5980
 6896TIP3   OH242102   5.823   1.436   4.228 -0.0992 -0.0776  0.1147
 6896TIP3    H142103   5.806   1.514   4.175 -0.0842 -0.1112  0.0604
 6896TIP3    H242104   5.764   1.370   4.193  1.3372 -0.7210 -1.2339
 6897TIP3   OH242105   5.248   0.260   2.705 -0.0229  0.2660 -0.0164
 6897TIP3    H142106   5.158   0.261   2.739  0.3516 -0.0069  1.0220
 6897TIP3    H242107   5.250   0.185   2.646  0.2793 -1.5650  2.1871
 6898TIP3   OH242108   5.320   0.125  13.603  0.4144  0.4223  0.2829
 6898TIP3    H142109   5.325   0.156  13.693 -0.9859 -0.5885  0.7405
 6898TIP3    H242110   5.308   0.030  13.610 -0.8096  0.4536 -0.9155
 6899TIP3   OH242111   2.318   0.623   2.055  0.5405  0.3852 -0.6563
 6899TIP3    H142112   2.303   0.661   1.969 -0.5245 -1.9701 -1.6118
 6899TIP3    H242113   2.411   0.600   2.056  0.6310  0.7376 -1.0212
 6900TIP3   OH242114   2.363   3.395   6.439  0.3533  0.3821  0.0639
 6900TIP3    H142115   2.346   3.350   6.521  0.4471 -1.4376 -0.8735
 6900TIP3    H242116   2.458   3.406   6.437  0.2880  1.1413  0.5264
 6901TIP3   OH242117   4.613   0.230  11.258 -0.2881  0.6154 -0.5120
 6901TIP3    H142118   4.604   0.194  11.347  0.8203  0.5235 -0.4308
 6901TIP3    H242119   4.523   0.249  11.231 -0.5260  3.5155  1.8173
 6902TIP3   OH242120   6.686   1.713  16.667  0.2916 -0.2511  0.4076
 6902TIP3    H142121   6.728   1.725  16.752  0.8583  0.8650 -0.0151
 6902TIP3    H242122   6.745   1.757  16.605  0.0211 -1.2775 -0.5972
 6903TIP3   OH242123   5.120   1.696   3.590 -0.0869  0.0513  0.1918
 6903TIP3    H142124   5.094   1.685   3.681 -0.4206  0.1718  0.1126
 6903TIP3    H242125   5.195   1.755   3.593  0.8466 -1.1202  0.5071
 6904TIP3   OH242126   5.870   3.851   0.077 -0.0572 -0.2262  0.1583
 6904TIP3    H142127   5.873   3.805  -0.007 -1.4903  0.9198 -0.5503
 6904TIP3    H242128   5.896   3.785   0.141  1.8941 -0.9112 -1.2434
 6905TIP3   OH242129   4.714   5.294   5.455 -0.0559 -0.0438 -0.6087
 6905TIP3    H142130   4.672   5.224   5.406 -0.1376 -0.2318 -0.2704
 6905TIP3    H242131   4.700   5.271   5.547  0.3619  0.1472 -0.4957
 6906TIP3   OH242132   6.188   2.250   1.690  0.3688 -0.4979 -0.5278
 6906TIP3    H142133   6.256   2.183   1.693 -0.7762 -1.6753  1.3839
 6906TIP3    H242134   6.224   2.324   1.738 -0.1582 -1.6632  1.8072
 6907TIP3   OH242135   3.310   5.169   1.036 -0.3700  0.4457  0.2886
 6907TIP3    H142136   3.306   5.114   1.114 -1.1558  0.9724  0.6309
 6907TIP3    H242137   3.327   5.108   0.964 -1.0275 -0.2176  0.6831
 6908TIP3   OH242138   3.475   2.120   5.503 -0.3172 -0.9157  0.2047
 6908TIP3    H142139   3.560   2.076   5.510 -0.8988 -1.9497  1.2413
 6908TIP3    H242140   3.494   2.205   5.464  1.2461 -0.9671  0.8083
 6909TIP3   OH242141   1.644   6.742  14.245  0.8805  0.2288  0.5194
 6909TIP3    H142142   1.738   6.754  14.230  0.8846 -1.9528 -2.1358
 6909TIP3    H242143   1.631   6.647  14.239 -1.2788  0.2819  2.7916
 6910TIP3   OH242144   5.573   0.074  12.262  0.4855  0.1584 -0.4701
 6910TIP3    H142145   5.650   0.120  12.228  0.6755 -0.1748 -0.5027
 6910TIP3    H242146   5.577   0.087  12.357  1.0272 -0.5166 -0.3909
 6911TIP3   OH242147   3.557   4.577  12.395  0.5989 -0.1388 -0.0459
 6911TIP3    H142148   3.518   4.489  12.390 -0.4548  0.2204  1.3142
 6911TIP3    H242149   3.630   4.568  12.456  0.7025 -0.1302 -0.1676
 6912TIP3   OH242150   1.087   1.092  16.323  0.3166 -0.2616 -0.2980
 6912TIP3    H142151   1.067   1.175  16.279  0.1756  1.5861  2.9415
 6912TIP3    H242152   1.174   1.069  16.292  0.1331  0.7571 -1.6935
 6913TIP3   OH242153   2.932   5.345   2.449  0.2354  0.1724 -0.0648
 6913TIP3    H142154   3.001   5.360   2.384  1.0386 -1.0951  0.4426
 6913TIP3    H242155   2.980   5.328   2.530 -0.6932 -0.1884  0.4178
 6914TIP3   OH242156   2.648   6.481  15.308 -0.3785  1.0072 -0.0493
 6914TIP3    H142157   2.634   6.571  15.339 -1.4915  0.4300  1.2292
 6914TIP3    H242158   2.581   6.430  15.352 -0.1769 -0.3698 -1.2585
 6915TIP3   OH242159   5.300   5.421   2.273 -0.2383  0.1766  0.0158
 6915TIP3    H142160   5.346   5.470   2.341  1.5553 -0.1536 -0.8905
 6915TIP3    H242161   5.302   5.479   2.196 -0.2478 -0.3301 -0.3759
 6916TIP3   OH242162   1.601   3.889  11.882  0.3961  0.3388  0.3330
 6916TIP3    H142163   1.565   3.955  11.941  0.8822  0.5279  0.4300
 6916TIP3    H242164   1.555   3.808  11.904  0.1724  0.5325  0.5795
 6917TIP3   OH242165   2.949   2.813   4.860  0.1432  0.2971  0.4048
 6917TIP3    H142166   2.863   2.815   4.817  0.2210  0.1648  0.2425
 6917TIP3    H242167   2.956   2.898   4.903 -0.2472  0.1524  0.7644
 6918TIP3   OH242168   6.413   4.281  15.070  0.2992 -0.4102  0.0428
 6918TIP3    H142169   6.495   4.316  15.037  0.6028 -1.2869 -0.1533
 6918TIP3    H242170   6.395   4.332  15.149  1.0932 -0.2969  0.1570
 6919TIP3   OH242171   2.732   2.432  11.302  0.0232 -0.5229 -0.4616
 6919TIP3    H142172   2.640   2.436  11.276  0.0677  0.1066 -0.5279
 6919TIP3    H242173   2.744   2.342  11.334 -0.3232 -0.9677 -1.5276
 6920TIP3   OH242174   3.853   1.578  16.781  0.3722 -0.4152  0.6784
 6920TIP3    H142175   3.802   1.501  16.756 -0.9888  1.1114 -1.6960
 6920TIP3    H242176   3.790   1.635  16.826  0.5269  0.4907 -0.1932
 6921TIP3   OH242177   1.119   1.760  14.645  0.3340  0.0019  0.0655
 6921TIP3    H142178   1.122   1.699  14.571 -1.9659  0.5560 -0.5862
 6921TIP3    H242179   1.205   1.800  14.647  1.7347 -2.7866  0.1495
 6922TIP3   OH242180   3.718   0.754   2.988  0.1588  0.0531 -0.1198
 6922TIP3    H142181   3.775   0.829   3.002  0.9721 -0.3381 -1.2636
 6922TIP3    H242182   3.630   0.787   3.008  0.5493  1.1807 -0.2088
 6923TIP3   OH242183   1.339   1.785   5.288 -0.4207  0.2423  0.6788
 6923TIP3    H142184   1.339   1.805   5.194 -1.3660 -0.7796  0.4403
 6923TIP3    H242185   1.267   1.836   5.324  0.4288  1.2400  1.0079
 6924TIP3   OH242186   1.278   6.688  16.149  0.3536  0.1004  0.1740
 6924TIP3    H142187   1.295   6.745  16.224  2.4133 -1.2674  0.8166
 6924TIP3    H242188   1.363   6.649  16.128 -1.0533 -3.4437  0.3505
 6925TIP3   OH242189   5.763   5.013  14.065  0.3870  0.4858  0.1708
 6925TIP3    H142190   5.738   4.938  14.011  2.1780 -0.7527  0.9376
 6925TIP3    H242191   5.816   5.068  14.007 -0.5262  0.9382 -0.2554
 6926TIP3   OH242192   4.610   2.650  13.256 -0.2880  0.6429  0.6090
 6926TIP3    H142193   4.640   2.674  13.169 -1.1460  0.7763  0.3462
 6926TIP3    H242194   4.665   2.576  13.281 -0.4591  0.2036 -0.2993
 6927TIP3   OH242195   4.235   0.717   5.726  0.1964 -0.0032  0.1836
 6927TIP3    H142196   4.224   0.692   5.818 -0.1454 -1.5743 -0.2424
 6927TIP3    H242197   4.303   0.785   5.727 -0.0676  0.2688  1.6222
 6928TIP3   OH242198   1.250   5.042  12.325  0.1484  0.2202 -0.0440
 6928TIP3    H142199   1.239   4.996  12.408  1.8975 -0.7230 -0.3020
 6928TIP3    H242200   1.169   5.023  12.277  0.2701 -1.5450  0.3657
 6929TIP3   OH242201   5.359   1.885   3.315 -0.8330 -0.6394  0.2593
 6929TIP3    H142202   5.350   1.974   3.283 -0.4310 -0.6604  0.0894
 6929TIP3    H242203   5.422   1.844   3.256 -0.8239 -0.9599  0.4895
 6930TIP3   OH242204   2.281   6.499  14.404  0.6757 -0.2188 -0.5950
 6930TIP3    H142205   2.376   6.504  14.393  0.8363 -0.2378  0.6847
 6930TIP3    H242206   2.246   6.524  14.318  1.8199  0.6300 -0.8368
 6931TIP3   OH242207   3.601   5.680  15.225 -0.0783 -0.0962 -0.1348
 6931TIP3    H142208   3.643   5.701  15.141 -0.6304 -0.3328 -0.4714
 6931TIP3    H242209   3.670   5.696  15.290  0.4360 -0.1691 -0.6513
 6932TIP3   OH242210   1.293   1.383  17.021  0.0538 -0.3961 -0.1302
 6932TIP3    H142211   1.375   1.351  17.059  0.2131  1.3179  1.0437
 6932TIP3    H242212   1.229   1.314  17.039  1.1951 -1.7479 -1.0456
 6933TIP3   OH242213   2.730   4.330  14.051  0.3784  0.0167 -0.2239
 6933TIP3    H142214   2.772   4.304  13.969  0.0634 -0.2155 -0.3149
 6933TIP3    H242215   2.745   4.257  14.110  1.0229  0.3891  0.0850
 6934TIP3   OH242216   0.817   4.459   2.497  0.3569  0.2898 -0.6878
 6934TIP3    H142217   0.741   4.450   2.440 -0.7623 -1.0454  0.9426
 6934TIP3    H242218   0.857   4.372   2.498  1.8512  0.9293 -1.3824
 6935TIP3   OH242219   2.721   0.784  10.686 -0.3084 -0.3362  0.2712
 6935TIP3    H142220   2.731   0.840  10.763  1.4824 -0.6487  0.3007
 6935TIP3    H242221   2.642   0.817  10.643  0.0295  1.4549  0.9222
 6936TIP3   OH242222   4.024   5.575  12.053 -0.1580  0.1692 -0.6712
 6936TIP3    H142223   3.956   5.531  12.104  0.8014  0.2161  0.6877
 6936TIP3    H242224   4.099   5.515  12.055 -0.1903  0.0089 -2.3587
 6937TIP3   OH242225   1.935   6.077   5.844 -0.0924 -0.0728 -0.1493
 6937TIP3    H142226   1.855   6.033   5.875  0.2384  0.1800  1.1385
 6937TIP3    H242227   2.005   6.013   5.860  0.2760  0.5814  0.9539
 6938TIP3   OH242228   4.165   4.784   5.728  0.0024  0.2409 -0.1524
 6938TIP3    H142229   4.151   4.749   5.640 -1.0512 -1.1057  0.5040
 6938TIP3    H242230   4.151   4.709   5.786  0.1080  1.2212  1.1940
 6939TIP3   OH242231   0.239   2.666   2.786  1.0299  0.1002 -0.2144
 6939TIP3    H142232   0.209   2.631   2.870 -1.3558  2.1556 -0.0999
 6939TIP3    H242233   0.277   2.590   2.741 -0.7999 -1.8517  1.3247
 6940TIP3   OH242234   2.892   2.455   0.752  0.0797 -0.5069 -0.1219
 6940TIP3    H142235   2.952   2.492   0.816 -0.8862 -0.5807  0.8548
 6940TIP3    H242236   2.925   2.486   0.667  2.0704 -1.3812  0.2765
 6941TIP3   OH242237   5.815   3.883  13.209  0.6714 -0.4610 -0.1484
 6941TIP3    H142238   5.766   3.963  13.187  2.4200  0.6752 -0.1144
 6941TIP3    H242239   5.793   3.866  13.300 -2.4907 -2.1525 -1.0886
 6942TIP3   OH242240   1.305   4.829  17.086  0.2282  0.5724 -0.7647
 6942TIP3    H142241   1.400   4.834  17.098  0.1147  1.2304 -0.1168
 6942TIP3    H242242   1.274   4.918  17.099 -0.6639  0.0806  0.6947
 6943TIP3   OH242243   3.252   3.145   3.558 -1.1435 -0.1314 -0.2768
 6943TIP3    H142244   3.168   3.108   3.532 -0.5716 -1.2670 -0.6067
 6943TIP3    H242245   3.233   3.197   3.636 -2.5185  1.4763 -1.6124
 6944TIP3   OH242246   5.566   2.694   3.936  0.6320 -0.1419  0.2012
 6944TIP3    H142247   5.488   2.648   3.970  0.6695 -0.5487 -0.2471
 6944TIP3    H242248   5.552   2.785   3.961  0.3733 -0.3340  0.7849
 6945TIP3   OH242249   4.209   5.803   3.010 -0.3641  0.4017  0.6238
 6945TIP3    H142250   4.232   5.865   2.941  0.6888  0.1260  0.7088
 6945TIP3    H242251   4.213   5.717   2.968  0.8379  0.1866  1.1441
 6946TIP3   OH242252   5.787   4.411  14.178 -0.1274 -0.0818  0.1372
 6946TIP3    H142253   5.696   4.423  14.149 -0.6550 -1.4367  1.1021
 6946TIP3    H242254   5.791   4.456  14.263 -0.4275 -1.4601  0.9215
 6947TIP3   OH242255   1.884   6.269  14.979  0.1616 -0.1011 -0.1380
 6947TIP3    H142256   1.816   6.276  15.046  0.0861  0.2024 -0.2439
 6947TIP3    H242257   1.961   6.238  15.025  0.0796  0.0006  0.0697
 6948TIP3   OH242258   0.961   1.623   2.943 -0.1689 -0.5541 -0.1909
 6948TIP3    H142259   0.922   1.563   2.880 -1.0944 -1.1591  0.9200
 6948TIP3    H242260   0.983   1.567   3.019 -1.2419  0.5144  0.9518
 6949TIP3   OH242261   6.211   4.950  13.718 -0.0239 -0.0783  0.4873
 6949TIP3    H142262   6.123   4.913  13.727 -1.0866  2.1563 -0.0281
 6949TIP3    H242263   6.256   4.926  13.799 -1.9571  0.8292  1.9074
 6950TIP3   OH242264   0.591   3.020   4.167  0.1787  1.1508 -0.3656
 6950TIP3    H142265   0.670   3.058   4.205  2.3796 -2.3452 -0.9511
 6950TIP3    H242266   0.554   2.966   4.238 -0.6168  1.2930 -0.6636
 6951TIP3   OH242267   6.506   4.104  16.241 -0.2267  0.1358  0.3610
 6951TIP3    H142268   6.543   4.161  16.174 -0.1358 -1.6152 -1.1490
 6951TIP3    H242269   6.560   4.025  16.238 -1.2018 -0.6065  1.3943
 6952TIP3   OH242270   3.590   1.002   3.361  0.2846 -0.3304  0.4755
 6952TIP3    H142271   3.503   0.989   3.322 -0.7513 -0.4646  2.6712
 6952TIP3    H242272   3.649   0.952   3.304 -1.0391 -0.1842 -1.1127
 6953TIP3   OH242273   5.389   0.499  16.992 -0.1770  0.2637  0.1923
 6953TIP3    H142274   5.439   0.577  17.015 -1.9068  1.0291  1.5916
 6953TIP3    H242275   5.441   0.426  17.027 -0.2080  1.0603  1.9993
 6954TIP3   OH242276   6.071   4.559   5.924 -0.1271 -0.5052 -0.0391
 6954TIP3    H142277   6.094   4.606   6.004 -1.1782 -1.1645  0.6845
 6954TIP3    H242278   6.154   4.545   5.879  0.1465  3.5387 -1.1993
 6955TIP3   OH242279   0.920   4.162   5.792 -0.4481 -0.2212  0.6442
 6955TIP3    H142280   0.835   4.206   5.791 -0.4206 -0.1701  0.6090
 6955TIP3    H242281   0.941   4.153   5.885 -0.7557 -0.7348  0.6699
 6956TIP3   OH242282   4.189   0.128   0.079  0.0753  0.0917 -0.1428
 6956TIP3    H142283   4.116   0.187   0.061 -1.9028 -2.2955 -0.6622
 6956TIP3    H242284   4.186   0.114   0.173 -1.7664 -1.7461 -0.3850
 6957TIP3   OH242285   3.331   3.999  12.622 -0.0346  0.7318 -0.4977
 6957TIP3    H142286   3.281   3.987  12.542 -2.7909  0.1396  1.1856
 6957TIP3    H242287   3.405   3.939  12.613 -0.5662  0.2894 -2.3305
 6958TIP3   OH242288   6.135   0.575  16.173 -0.4435  0.3229 -0.0605
 6958TIP3    H142289   6.068   0.547  16.111  0.6566  1.8607 -2.0500
 6958TIP3    H242290   6.110   0.664  16.198 -0.5187 -0.0414  1.2159
 6959TIP3   OH242291   0.980   5.644   6.436 -0.2651  0.1203  0.5305
 6959TIP3    H142292   0.931   5.653   6.517  0.4682  1.3996  0.8588
 6959TIP3    H242293   0.969   5.552   6.411 -0.3282 -0.3539  2.1769
 6960TIP3   OH242294   5.031   5.703   0.212  0.0009 -0.3344 -0.1785
 6960TIP3    H142295   5.102   5.645   0.238 -0.7231 -1.4623 -0.6300
 6960TIP3    H242296   5.069   5.790   0.214  0.6828 -0.6362  2.0983
 6961TIP3   OH242297   0.384   4.279   5.860 -0.1434  0.0373 -0.0472
 6961TIP3    H142298   0.400   4.254   5.769  2.2749  1.1397  0.0079
 6961TIP3    H242299   0.294   4.249   5.877  0.7016 -3.9537 -1.4776
 6962TIP3   OH242300   1.475   6.329   5.526  0.4747 -0.0101  0.5833
 6962TIP3    H142301   1.560   6.288   5.509 -0.6855 -1.7180 -1.4005
 6962TIP3    H242302   1.492   6.423   5.517  2.4843 -0.1662  2.0032
 6963TIP3   OH242303   0.200   0.553  14.019 -0.7184  0.0022 -0.0860
 6963TIP3    H142304   0.249   0.556  14.101 -1.1867 -1.3567  0.2778
 6963TIP3    H242305   0.158   0.639  14.012  0.9655  0.8576  0.0481
 6964TIP3   OH242306   4.396   5.239   4.806 -0.0639  0.3617 -0.3168
 6964TIP3    H142307   4.360   5.151   4.795  0.2127  0.2691 -0.4861
 6964TIP3    H242308   4.409   5.270   4.717 -0.7856  0.8336 -0.2659
 6965TIP3   OH242309   0.381   3.384   2.610 -0.2121  0.0378  0.4899
 6965TIP3    H142310   0.403   3.307   2.662  0.4639  0.2974  0.5932
 6965TIP3    H242311   0.289   3.401   2.630 -0.3521 -0.7082  0.5060
 6966TIP3   OH242312   3.122   2.276  15.781 -0.0089 -0.7124  0.4101
 6966TIP3    H142313   3.043   2.326  15.802  0.1086 -0.6487  0.7061
 6966TIP3    H242314   3.184   2.299  15.850  1.4114  1.7304 -1.5456
 6967TIP3   OH242315   3.761   1.000   1.984  0.1633 -0.4762 -0.3904
 6967TIP3    H142316   3.822   0.946   1.933  0.0801 -1.3086  0.3791
 6967TIP3    H242317   3.692   1.023   1.921 -0.7911 -2.8353 -0.3223
 6968TIP3   OH242318   3.443   6.177   1.302 -0.1237 -0.5791 -0.2193
 6968TIP3    H142319   3.490   6.259   1.316  0.6091 -0.9040 -0.7283
 6968TIP3    H242320   3.501   6.126   1.245 -0.8302 -1.2209 -0.3685
 6969TIP3   OH242321   0.572   2.045  12.520 -0.5374 -0.0247 -0.4322
 6969TIP3    H142322   0.644   2.036  12.458 -1.3429 -1.5545 -1.2060
 6969TIP3    H242323   0.603   2.001  12.599  0.3697  1.6536  0.1795
 6970TIP3   OH242324   0.935   6.038   5.862 -0.4317 -0.0647  0.1458
 6970TIP3    H142325   1.016   5.990   5.879 -0.7147 -0.7134 -0.3082
 6970TIP3    H242326   0.904   6.006   5.777 -0.1619  1.5758 -0.6204
 6971TIP3   OH242327   4.695   4.876   6.370 -0.1169  0.0393 -0.2349
 6971TIP3    H142328   4.622   4.868   6.432  0.1080 -1.3948 -0.1223
 6971TIP3    H242329   4.741   4.792   6.376 -0.5717 -0.4909 -2.9294
 6972TIP3   OH242330   6.512   3.631  13.379  0.1269  0.4436  0.1007
 6972TIP3    H142331   6.541   3.697  13.317  0.9355  0.0250  0.0235
 6972TIP3    H242332   6.506   3.550  13.329 -1.7324  0.6045 -0.0163
 6973TIP3   OH242333   3.040   2.747   3.327  0.0536 -0.2729  0.6373
 6973TIP3    H142334   2.946   2.764   3.330 -0.3583 -2.1202 -0.2133
 6973TIP3    H242335   3.052   2.671   3.383  0.9053 -0.5461  0.0994
 6974TIP3   OH242336   2.720   0.461  11.926  0.6953 -0.4560 -0.1441
 6974TIP3    H142337   2.716   0.365  11.925 -0.2901 -0.4293  0.0194
 6974TIP3    H242338   2.750   0.484  11.838 -0.8321 -0.8803 -0.8180
 6975TIP3   OH242339   1.364   3.252   4.493  0.2065 -0.2928 -0.0654
 6975TIP3    H142340   1.349   3.171   4.541 -0.3514 -1.5649 -2.2319
 6975TIP3    H242341   1.427   3.300   4.546 -1.5095 -0.8388  2.6831
 6976TIP3   OH242342   3.534   2.916  15.496  0.6693  0.2339  0.1109
 6976TIP3    H142343   3.472   2.942  15.428  3.1403 -0.2447 -2.5303
 6976TIP3    H242344   3.576   2.997  15.523  0.5101  0.2966  0.1673
 6977TIP3   OH242345   6.757   2.808  15.513 -0.4738 -0.5570 -0.3055
 6977TIP3    H142346   6.747   2.776  15.424  1.2924 -0.5171 -0.5651
 6977TIP3    H242347   6.714   2.742  15.568 -1.6977 -0.5039 -1.1788
 6978TIP3   OH242348   5.331   0.530   1.423 -0.8751 -0.2671  0.1352
 6978TIP3    H142349   5.310   0.564   1.336 -1.5480  0.1454  0.4499
 6978TIP3    H242350   5.364   0.606   1.471 -1.1327 -0.3434  0.4381
 6979TIP3   OH242351   6.526   5.507  16.466 -0.1486 -0.1438 -0.2832
 6979TIP3    H142352   6.463   5.506  16.538  0.9684 -1.2119  0.7296
 6979TIP3    H242353   6.598   5.562  16.498 -0.0108  0.0590 -0.9345
 6980TIP3   OH242354   5.479   3.518   0.205  0.7279 -0.7496  0.1982
 6980TIP3    H142355   5.395   3.563   0.201  1.6255  1.0911  0.8393
 6980TIP3    H242356   5.471   3.457   0.278  0.0824 -0.2704  0.5362
 6981TIP3   OH242357   0.968   4.495   1.761  0.1909  0.2062  0.4899
 6981TIP3    H142358   0.947   4.533   1.675 -0.4988 -0.7275  0.2306
 6981TIP3    H242359   0.894   4.438   1.780  0.9357 -0.5483  1.1370
 6982TIP3   OH242360   5.992   5.702  11.512 -0.5944 -0.0497 -0.2317
 6982TIP3    H142361   6.022   5.783  11.470  0.6375 -1.1150 -1.4601
 6982TIP3    H242362   6.060   5.682  11.576 -1.2541  0.2435  0.5828
 6983TIP3   OH242363   5.094   0.255   1.008  0.6707 -0.3164  0.4466
 6983TIP3    H142364   5.067   0.206   1.085 -0.0706 -1.0949 -0.2826
 6983TIP3    H242365   5.108   0.344   1.040 -2.1443  0.0158  1.0684
 6984TIP3   OH242366   0.639   3.841  12.129 -0.7708  0.6108 -0.0809
 6984TIP3    H142367   0.661   3.883  12.212 -0.5546  1.3997 -0.5325
 6984TIP3    H242368   0.567   3.892  12.094  0.5737  1.6784 -1.4350
 6985TIP3   OH242369   2.314   5.422   5.140  1.0740 -0.2796  0.0143
 6985TIP3    H142370   2.305   5.366   5.217  0.7433  2.2058  1.9182
 6985TIP3    H242371   2.404   5.455   5.144  1.0730 -0.1812 -0.6961
 6986TIP3   OH242372   1.307   4.105   1.940  0.3391 -0.3221 -0.1671
 6986TIP3    H142373   1.245   4.084   1.870  0.4216  1.0005 -0.6651
 6986TIP3    H242374   1.253   4.145   2.008  0.4713 -0.2547 -0.1012
 6987TIP3   OH242375   5.043   5.991   6.728 -0.4282  0.0709  0.1445
 6987TIP3    H142376   5.138   5.985   6.738 -0.5067 -0.0583  0.9177
 6987TIP3    H242377   5.017   5.908   6.688 -0.3028 -0.2658  0.7427
 6988TIP3   OH242378   3.632   4.912   6.046 -0.0021  0.1520 -0.3467
 6988TIP3    H142379   3.659   4.820   6.042 -1.0203 -0.1428 -0.8719
 6988TIP3    H242380   3.580   4.925   5.967  2.3795  1.9605 -1.7355
 6989TIP3   OH242381   4.636   2.800  12.357 -0.0311 -0.4430  0.3036
 6989TIP3    H142382   4.567   2.765  12.413 -0.8747 -0.1221 -0.5265
 6989TIP3    H242383   4.687   2.724  12.330  0.8334 -0.5423  2.0586
 6990TIP3   OH242384   1.790   4.821  14.794 -0.0189 -0.1728  0.2982
 6990TIP3    H142385   1.874   4.785  14.764  0.0623 -0.9232  1.3748
 6990TIP3    H242386   1.799   4.827  14.889  0.0029  2.8348  0.1940
 6991TIP3   OH242387   0.739   5.197   3.873  0.3646 -0.3808  0.4476
 6991TIP3    H142388   0.688   5.195   3.792  0.6411 -1.2291  0.2846
 6991TIP3    H242389   0.677   5.172   3.942  0.2493 -0.1437  0.4304
 6992TIP3   OH242390   4.086   5.511   5.791 -0.3925 -0.0950  0.4574
 6992TIP3    H142391   4.181   5.514   5.790 -0.4099  1.9407 -0.6563
 6992TIP3    H242392   4.064   5.418   5.792  1.5819 -0.5984  1.7570
 6993TIP3   OH242393   2.215   2.616   1.009  0.3309 -0.2696  0.0440
 6993TIP3    H142394   2.263   2.589   0.931  2.0226 -1.0548  1.3058
 6993TIP3    H242395   2.139   2.557   1.012  1.0714 -1.2593 -0.1946
 6994TIP3   OH242396   1.983   5.873   4.790  0.1264 -0.2863 -0.4005
 6994TIP3    H142397   1.908   5.907   4.838  0.2745  0.6929 -0.8166
 6994TIP3    H242398   2.054   5.869   4.854  0.4154  1.3324 -0.5485
 6995TIP3   OH242399   3.695   6.810   0.522 -0.1978 -0.0261 -0.4602
 6995TIP3    H142400   3.787   6.790   0.508  0.2636  0.6828  1.3425
 6995TIP3    H242401   3.654   6.794   0.437  1.3443 -1.6063 -0.9599
 6996TIP3   OH242402   5.755   0.625   0.372  0.1199  0.3904 -0.0713
 6996TIP3    H142403   5.715   0.574   0.302  0.7023 -0.1294 -0.0365
 6996TIP3    H242404   5.691   0.693   0.393 -0.7525 -0.4313 -0.0078
 6997TIP3   OH242405   4.673   1.608   0.462 -0.3694 -0.1608 -0.5738
 6997TIP3    H142406   4.649   1.531   0.513  0.1574 -0.2635 -0.4755
 6997TIP3    H242407   4.591   1.638   0.423 -0.9549  0.4035  0.9863
 6998TIP3   OH242408   1.479   4.972  12.711  0.4599 -0.5861 -0.1209
 6998TIP3    H142409   1.447   5.062  12.720 -1.5615 -1.1647 -0.8538
 6998TIP3    H242410   1.504   4.964  12.619  0.4773 -0.8108 -0.0975
 6999TIP3   OH242411   3.335   0.158   6.358  0.2188  0.3308 -0.2041
 6999TIP3    H142412   3.328   0.249   6.386 -0.2349  0.1532  0.2648
 6999TIP3    H242413   3.289   0.108   6.426 -2.7985  0.0609 -2.2540
 7000TIP3   OH242414   6.559   6.028   3.676 -0.1167  0.4492 -0.0632
 7000TIP3    H142415   6.519   6.052   3.759 -2.0075  0.0146 -0.7911
 7000TIP3    H242416   6.488   5.987   3.626  1.9335 -3.4790 -0.2193
 7001TIP3   OH242417   4.186   3.545  14.637  0.5272 -0.2882 -0.4375
 7001TIP3    H142418   4.111   3.585  14.593 -0.1452 -0.8441  0.1689
 7001TIP3    H242419   4.260   3.563  14.579  0.3546  2.1556  0.0114
 7002TIP3   OH242420   0.554   5.080  17.103 -0.5923  0.1778 -0.4961
 7002TIP3    H142421   0.499   5.003  17.116 -1.2486  0.6487 -0.4730
 7002TIP3    H242422   0.632   5.046  17.059 -1.5587 -0.2581 -1.9272
 7003TIP3   OH242423   0.765   4.573  15.523 -0.5735 -0.2179  0.3307
 7003TIP3    H142424   0.676   4.591  15.493 -0.3320 -0.0583 -0.2952
 7003TIP3    H242425   0.795   4.655  15.560 -0.3753 -0.0284 -0.2468
 7004TIP3   OH242426   1.764   4.028   2.909  0.4652  0.4762 -0.0942
 7004TIP3    H142427   1.760   4.115   2.949  1.1191 -0.1359  1.3782
 7004TIP3    H242428   1.674   4.010   2.882  0.3662  1.6934 -0.6298
 7005TIP3   OH242429   3.899   5.715  13.969  0.0107 -0.2069  0.2539
 7005TIP3    H142430   3.849   5.790  14.003 -0.4233 -1.0602  1.5905
 7005TIP3    H242431   3.897   5.651  14.040  0.6225 -1.3798 -0.7467
 7006TIP3   OH242432   0.339   3.193  15.904 -0.3452 -0.3149 -0.5156
 7006TIP3    H142433   0.333   3.134  15.829 -1.7807  0.9172 -1.4304
 7006TIP3    H242434   0.285   3.152  15.972 -0.0708 -0.8094 -0.5933
 7007TIP3   OH242435   1.320   0.395   0.446  0.3046 -0.5656  0.0206
 7007TIP3    H142436   1.387   0.459   0.421  0.7259 -1.3418 -0.8509
 7007TIP3    H242437   1.369   0.316   0.468 -0.2488 -0.7399  0.6776
 7008TIP3   OH242438   1.280   4.091  14.662  0.3929  0.5670  0.3499
 7008TIP3    H142439   1.332   4.042  14.598 -1.7965  1.6153 -2.3634
 7008TIP3    H242440   1.302   4.182  14.646 -0.9767  0.9089  0.3408
 7009TIP3   OH242441   3.306   6.497  14.726 -0.6102 -0.4621 -0.2251
 7009TIP3    H142442   3.239   6.437  14.693 -1.8054  0.2675  0.7671
 7009TIP3    H242443   3.278   6.517  14.815  1.0281 -0.2361  0.2668
 7010TIP3   OH242444   0.980   5.728  14.819  0.4824  0.4817  0.2273
 7010TIP3    H142445   0.914   5.736  14.887 -0.4189 -0.5339 -0.5024
 7010TIP3    H242446   1.009   5.818  14.803 -2.0837  1.2132 -0.7403
 7011TIP3   OH242447   5.098   5.161  15.790 -0.0316 -0.4500 -0.1492
 7011TIP3    H142448   5.174   5.187  15.841  1.1400 -0.2110 -1.9358
 7011TIP3    H242449   5.040   5.237  15.792  0.1251 -0.3414  0.5543
 7012TIP3   OH242450   5.196   3.328   4.153  0.0983 -0.1400  0.0428
 7012TIP3    H142451   5.291   3.335   4.145  0.1605 -0.1788  0.7370
 7012TIP3    H242452   5.162   3.396   4.095  0.5394 -0.3341 -0.4516
 7013TIP3   OH242453   2.605   3.784  12.207  0.5350  0.0479 -0.1625
 7013TIP3    H142454   2.578   3.860  12.155  0.9380 -0.7573 -1.6028
 7013TIP3    H242455   2.524   3.737  12.225  0.3813  0.3784  0.0208
 7014TIP3   OH242456   0.451   6.320   1.478  0.0146  0.1161  0.2563
 7014TIP3    H142457   0.522   6.345   1.537  0.3351  1.1216 -0.5293
 7014TIP3    H242458   0.384   6.284   1.536  0.6028  0.4351  1.1606
 7015TIP3   OH242459   0.101   5.737  15.985  0.5724 -0.3355  0.4316
 7015TIP3    H142460   0.106   5.775  16.072  0.0624 -0.4512  0.5168
 7015TIP3    H242461   0.131   5.647  15.996  1.3935 -0.0868  0.3063
 7016TIP3   OH242462   4.566   5.587  12.724 -0.0158  0.4327 -0.3628
 7016TIP3    H142463   4.484   5.636  12.730  0.1980  0.6472  1.1635
 7016TIP3    H242464   4.553   5.511  12.780  1.4330  1.4318  1.4705
 7017TIP3   OH242465   4.440   6.225   2.856 -0.0764  0.3755  0.0353
 7017TIP3    H142466   4.423   6.291   2.924  1.1035  0.7708 -0.0169
 7017TIP3    H242467   4.418   6.269   2.774 -0.4042  0.2970  0.0802
 7018TIP3   OH242468   1.788   1.038  14.876  0.1472  0.2870  0.2515
 7018TIP3    H142469   1.774   1.024  14.783  2.0391 -2.1451  0.2101
 7018TIP3    H242470   1.725   0.980  14.919 -0.8620  1.5549  0.5252
 7019TIP3   OH242471   0.193   5.365   5.182 -0.2101  0.0110  0.2686
 7019TIP3    H142472   0.203   5.380   5.088 -0.5036  0.9509  0.3733
 7019TIP3    H242473   0.282   5.373   5.217 -0.4149  2.6508  0.4358
 7020TIP3   OH242474   2.337   6.084  12.840 -0.4223  0.0698 -0.0186
 7020TIP3    H142475   2.257   6.131  12.815  0.1064  0.1243 -1.8026
 7020TIP3    H242476   2.319   6.049  12.927 -0.7709  3.7560  1.5857
 7021TIP3   OH242477   5.663   0.097  13.630  0.3849  0.6864  0.3022
 7021TIP3    H142478   5.724   0.123  13.699 -1.3609  0.4270  2.0492
 7021TIP3    H242479   5.641   0.006  13.650 -0.4896  0.7418 -0.3324
 7022TIP3   OH242480   4.721   1.146  15.422  0.4350 -0.0355 -0.5171
 7022TIP3    H142481   4.744   1.100  15.340 -0.0984  1.3950 -1.5106
 7022TIP3    H242482   4.630   1.173  15.409  0.0743 -0.5080  0.9236
 7023TIP3   OH242483   5.816   1.523  10.884  0.0085  0.2477  0.4147
 7023TIP3    H142484   5.908   1.549  10.879  0.5880 -1.0263  2.9898
 7023TIP3    H242485   5.777   1.586  10.944 -0.6824  0.3594 -0.1318
 7024TIP3   OH242486   1.192   3.468   1.927  0.3268 -0.2799  0.4295
 7024TIP3    H142487   1.130   3.534   1.955  0.1154 -0.4593  0.3829
 7024TIP3    H242488   1.138   3.397   1.893  0.5502 -0.5153  0.5633
 7025TIP3   OH242489   1.434   4.220  12.230 -0.3786 -0.1780 -0.7971
 7025TIP3    H142490   1.341   4.242  12.238  0.2981  2.5497  0.7168
 7025TIP3    H242491   1.448   4.152  12.296 -0.9968  0.6572  0.2297
 7026TIP3   OH242492   1.698   2.794   3.674 -0.1206 -0.5264  0.8611
 7026TIP3    H142493   1.677   2.765   3.762  0.2956  0.4800  1.3094
 7026TIP3    H242494   1.630   2.858   3.653  1.2788  1.2689  1.5439
 7027TIP3   OH242495   6.139   4.130   0.655  0.5067  0.7071 -0.5092
 7027TIP3    H142496   6.182   4.050   0.627 -0.7257 -0.0153 -0.3938
 7027TIP3    H242497   6.125   4.180   0.575 -0.0995  0.1064 -0.7849
 7028TIP3   OH242498   2.618   0.153   0.988 -0.2535  0.1006 -0.0092
 7028TIP3    H142499   2.554   0.088   1.016 -2.0568  0.5489 -2.6649
 7028TIP3    H242500   2.659   0.115   0.911  0.6382  1.0234 -0.0163
 7029TIP3   OH242501   2.548   6.342   0.983 -0.2800 -0.2210 -0.4973
 7029TIP3    H142502   2.615   6.323   0.917  2.1022  0.6013  1.5653
 7029TIP3    H242503   2.581   6.301   1.063 -1.1795  1.9818  1.0828
 7030TIP3   OH242504   5.640   1.554   3.196 -0.2673 -0.0708 -0.4214
 7030TIP3    H142505   5.585   1.627   3.168  0.4098  0.3091 -0.8019
 7030TIP3    H242506   5.723   1.595   3.221  0.9683 -0.8564 -2.8592
 7031TIP3   OH242507   0.872   1.014  16.838 -0.3212 -0.4821 -0.1146
 7031TIP3    H142508   0.825   0.988  16.917  1.2785  0.1788  1.0959
 7031TIP3    H242509   0.817   0.982  16.766 -2.4926  0.0652  1.2157
 7032TIP3   OH242510   0.891   6.416   4.454  0.3692 -0.2266  0.1111
 7032TIP3    H142511   0.943   6.431   4.533 -0.7370  0.1804  0.7778
 7032TIP3    H242512   0.915   6.328   4.426  0.1779 -0.7055  1.3815
 7033TIP3   OH242513   5.868   0.177  13.816 -0.1368 -0.0842  0.0869
 7033TIP3    H142514   5.900   0.267  13.824 -0.3862  0.1574 -1.3419
 7033TIP3    H242515   5.827   0.158  13.900  1.6353  0.4289  1.1195
 7034TIP3   OH242516   5.926   4.888  13.686  0.6118 -0.1331 -0.1061
 7034TIP3    H142517   5.833   4.873  13.703 -0.1039  2.5282 -1.1192
 7034TIP3    H242518   5.942   4.849  13.601  0.9289 -2.1034  0.7944
 7035TIP3   OH242519   1.019   5.538   1.609 -0.2519 -0.4911 -0.2188
 7035TIP3    H142520   1.083   5.467   1.600  0.1595  0.0287 -1.6128
 7035TIP3    H242521   1.032   5.592   1.531 -0.8176  0.9162  0.6322
 7036TIP3   OH242522   4.533   4.955   4.060  0.4961 -0.2899 -0.3704
 7036TIP3    H142523   4.628   4.964   4.068  0.4079  0.2375  0.1070
 7036TIP3    H242524   4.497   5.009   4.130 -0.1142 -2.1775  0.8640
 7037TIP3   OH242525   1.655   3.021   0.956  0.6666  0.1898 -0.5073
 7037TIP3    H142526   1.615   2.956   0.898 -0.1695 -1.2425  1.5543
 7037TIP3    H242527   1.749   3.010   0.944  0.5657  0.9898 -2.6282
 7038TIP3   OH242528   5.269   3.757   1.637  0.1877 -0.2679  0.0866
 7038TIP3    H142529   5.298   3.703   1.710 -0.3586 -0.5782  0.0720
 7038TIP3    H242530   5.181   3.784   1.660  1.0713  2.1698  0.9755
 7039TIP3   OH242531   6.104   1.363   5.157 -0.4319 -0.2856 -0.0750
 7039TIP3    H142532   6.047   1.412   5.099 -2.1639 -0.6750  1.2102
 7039TIP3    H242533   6.069   1.380   5.245 -0.4671 -2.9259  0.5023
 7040TIP3   OH242534   0.967   0.082  16.718  0.1195 -0.1564  0.5914
 7040TIP3    H142535   1.017   0.164  16.711  0.3321 -0.2947  0.4658
 7040TIP3    H242536   0.889   0.106  16.768 -0.6183  0.4825 -0.8106
 7041TIP3   OH242537   2.663   1.173   0.960  0.3018 -0.2462 -0.4299
 7041TIP3    H142538   2.693   1.134   1.043  0.3258 -0.3101 -0.4685
 7041TIP3    H242539   2.657   1.267   0.978  2.7275  0.0921 -1.0825
 7042TIP3   OH242540   1.540   0.299   2.952 -0.0632  0.2012 -0.0782
 7042TIP3    H142541   1.480   0.258   3.014 -0.2112 -0.6215 -0.7467
 7042TIP3    H242542   1.560   0.230   2.889 -1.5277  1.5139 -2.1455
 7043TIP3   OH242543   5.635   5.274   6.837  0.2977  0.3562  0.4766
 7043TIP3    H142544   5.575   5.348   6.847 -0.0990  0.3149 -1.2693
 7043TIP3    H242545   5.720   5.309   6.862  0.3011  1.7419 -1.2633
 7044TIP3   OH242546   3.345   4.645  12.257 -0.5292  0.5701 -0.1177
 7044TIP3    H142547   3.434   4.639  12.292 -0.2756 -0.6011 -0.8835
 7044TIP3    H242548   3.352   4.611  12.168 -1.7699  0.2823 -0.1324
 7045TIP3   OH242549   1.658   5.138  13.062 -0.3127  0.4156  0.2560
 7045TIP3    H142550   1.669   5.043  13.070  0.1595  0.3706 -0.7260
 7045TIP3    H242551   1.742   5.174  13.089 -0.1488  0.4840 -0.3176
 7046TIP3   OH242552   1.460   6.117  13.276 -0.4565  0.6819  0.4794
 7046TIP3    H142553   1.416   6.157  13.351  1.0359  0.6204  1.4410
 7046TIP3    H242554   1.520   6.186  13.245  0.3586  0.0413  0.6060
 7047TIP3   OH242555   2.996   2.938   1.408  0.0823  0.4565 -0.3835
 7047TIP3    H142556   3.014   2.938   1.314 -0.2048  0.5255 -0.4411
 7047TIP3    H242557   3.068   2.987   1.447  0.7651 -0.4703 -0.4527
 7048TIP3   OH242558   5.919   2.445   5.703 -0.4576 -0.1019  0.2738
 7048TIP3    H142559   5.968   2.411   5.628 -1.1086  0.6122 -0.4954
 7048TIP3    H242560   5.829   2.416   5.688 -0.6233  0.1816  0.6930
 7049TIP3   OH242561   2.522   4.834  10.910 -0.4005  1.0010 -0.3724
 7049TIP3    H142562   2.459   4.845  10.839 -0.0297  2.0472 -0.5602
 7049TIP3    H242563   2.544   4.741  10.909 -2.5592  0.4341  0.2477
 7050TIP3   OH242564   4.859   4.863   0.505  0.3050  0.6542 -0.2052
 7050TIP3    H142565   4.939   4.811   0.514  1.4938  2.5611  1.2475
 7050TIP3    H242566   4.891   4.953   0.495 -1.6586  1.2433 -1.7175
 7051TIP3   OH242567   1.098   1.630   4.265  0.4404  0.0548 -0.5755
 7051TIP3    H142568   1.060   1.653   4.350 -1.0808 -0.4300 -1.0851
 7051TIP3    H242569   1.127   1.714   4.229  2.4016  0.1066  0.9721
 7052TIP3   OH242570   2.544   2.994  15.512 -0.4312  0.1712  0.3598
 7052TIP3    H142571   2.556   2.913  15.562 -0.8228  1.1945  2.2089
 7052TIP3    H242572   2.604   3.056  15.554 -1.6064  1.3744  0.3164
 7053TIP3   OH242573   3.801   5.385   2.875  0.2215 -0.2559  0.0498
 7053TIP3    H142574   3.881   5.434   2.854  0.8421 -0.7717  1.1124
 7053TIP3    H242575   3.821   5.295   2.851 -0.8847 -0.0538 -1.8131
 7054TIP3   OH242576   3.215   5.823   3.748 -0.0021 -0.2588  0.3745
 7054TIP3    H142577   3.129   5.782   3.756 -0.7535  1.5007  2.3647
 7054TIP3    H242578   3.215   5.863   3.661 -0.6156 -1.4747 -0.1961
 7055TIP3   OH242579   6.634   2.521   3.757 -0.0047  0.0021 -0.0212
 7055TIP3    H142580   6.629   2.464   3.834 -2.1225  1.8389  1.2963
 7055TIP3    H242581   6.545   2.525   3.724  0.3048  1.6744 -0.7273
 7056TIP3   OH242582   0.237   1.645   4.893 -0.1508  0.0079  0.7784
 7056TIP3    H142583   0.165   1.585   4.913 -0.5233 -0.7413 -2.3345
 7056TIP3    H242584   0.198   1.732   4.894 -1.1374 -0.3875 -0.7880
 7057TIP3   OH242585   0.707   1.978   4.110  0.1046 -0.0058 -0.1177
 7057TIP3    H142586   0.683   1.895   4.070  0.8296 -0.5739  0.5850
 7057TIP3    H242587   0.746   1.954   4.194  3.1065  0.7963 -1.1387
 7058TIP3   OH242588   2.591   2.266   5.534  0.1147  0.3967 -0.4312
 7058TIP3    H142589   2.565   2.174   5.524 -0.2813  0.5455 -0.8112
 7058TIP3    H242590   2.526   2.302   5.594  0.6186  0.2863  0.1847
 7059TIP3   OH242591   5.059   5.269   2.211 -0.2174 -0.1947 -0.3349
 7059TIP3    H142592   4.985   5.316   2.250 -0.7701  0.0863 -1.6580
 7059TIP3    H242593   5.136   5.320   2.237 -0.3314 -0.9969  1.8338
 7060TIP3   OH242594   0.958   0.435   4.443 -0.1807 -0.9910  0.9747
 7060TIP3    H142595   1.000   0.440   4.528  3.0300 -0.1617 -0.5179
 7060TIP3    H242596   0.876   0.388   4.459 -0.3598  0.2812  4.6834
 7061TIP3   OH242597   0.602   5.862   0.963  0.0891  0.4477  0.3474
 7061TIP3    H142598   0.567   5.942   0.923 -1.7711 -1.0089 -1.1632
 7061TIP3    H242599   0.538   5.840   1.030 -1.2993 -1.4670 -1.4663
 7062TIP3   OH242600   4.294   2.285   3.297 -0.3945  0.3614  0.1513
 7062TIP3    H142601   4.264   2.340   3.224 -1.3541  0.0281  0.2858
 7062TIP3    H242602   4.382   2.317   3.315  1.1611 -1.5291 -3.1369
 7063TIP3   OH242603   6.616   3.485   2.009  0.2801 -0.0003  0.3864
 7063TIP3    H142604   6.626   3.558   1.948  0.1137 -0.3009 -0.0019
 7063TIP3    H242605   6.523   3.464   2.008  0.3104 -0.1557  0.5704
 7064TIP3   OH242606   6.144   2.103  14.331  0.0167  0.0116  0.0550
 7064TIP3    H142607   6.195   2.077  14.255  0.5592  0.7463  0.1645
 7064TIP3    H242608   6.183   2.056  14.404  0.0662  0.0065  0.0246
 7065TIP3   OH242609   0.235   1.931   5.246 -0.8714  0.1666 -0.0238
 7065TIP3    H142610   0.285   1.850   5.236 -0.2664  0.5106  0.1705
 7065TIP3    H242611   0.288   1.984   5.306 -0.7859  1.0933 -0.8964
 7066TIP3   OH242612   6.464   1.950   5.891  0.2093  0.6200  0.4025
 7066TIP3    H142613   6.528   2.007   5.849  0.1626  0.0220 -0.5006
 7066TIP3    H242614   6.432   2.001   5.965 -0.5568  2.2117 -0.9480
 7067TIP3   OH242615   6.708   3.814   0.276  0.5910  0.5823  0.5886
 7067TIP3    H142616   6.728   3.743   0.215 -0.4468  0.7881 -0.0115
 7067TIP3    H242617   6.786   3.870   0.275  0.3932  0.8779 -0.9703
 7068TIP3   OH242618   4.992   4.670  11.775 -0.2143 -0.2219  0.1210
 7068TIP3    H142619   4.956   4.752  11.743  0.9671  0.0851 -0.4717
 7068TIP3    H242620   5.036   4.693  11.857  1.7075  0.1449 -0.9534
 7069TIP3   OH242621   6.327   4.984  11.627 -0.7580  0.2306  0.3990
 7069TIP3    H142622   6.336   4.958  11.536 -0.2928 -1.9412  1.0105
 7069TIP3    H242623   6.414   5.016  11.651 -0.7807  0.4494  0.1923
 7070TIP3   OH242624   5.792   4.820  16.274  0.2714  0.5106 -0.0533
 7070TIP3    H142625   5.765   4.830  16.183  1.1521 -0.7064 -0.4823
 7070TIP3    H242626   5.727   4.869  16.324 -0.5202  0.7818 -1.2951
 7071TIP3   OH242627   4.126   0.640   2.469 -0.5690  0.5685  0.1167
 7071TIP3    H142628   4.213   0.665   2.501  0.1053  2.5417 -2.8162
 7071TIP3    H242629   4.140   0.555   2.426 -0.5905 -0.1021  1.3907
 7072TIP3   OH242630   0.578   6.002  11.453  0.6966 -0.2811 -0.0226
 7072TIP3    H142631   0.614   6.027  11.368 -0.7497  0.1970 -0.5235
 7072TIP3    H242632   0.611   5.913  11.468  0.4726 -0.6163 -1.3824
 7073TIP3   OH242633   6.359   1.172  16.542  0.3741  0.1877 -0.2116
 7073TIP3    H142634   6.352   1.107  16.472 -1.0689  1.7095 -1.5528
 7073TIP3    H242635   6.452   1.197  16.543  0.2608  0.8125 -2.2450
 7074TIP3   OH242636   1.159   4.100   5.676  0.3550  0.1043  0.0673
 7074TIP3    H142637   1.226   4.139   5.733  1.4331  0.4496 -1.3630
 7074TIP3    H242638   1.076   4.127   5.714  0.8839 -2.0179  3.1172
 7075TIP3   OH242639   1.605   2.888   5.066  0.1008  0.1133 -0.7120
 7075TIP3    H142640   1.644   2.973   5.044 -0.5204  0.6105  0.0304
 7075TIP3    H242641   1.631   2.874   5.157  0.4985 -0.6785 -0.9394
 7076TIP3   OH242642   4.675   3.353  13.178 -0.1396  1.0167  0.3191
 7076TIP3    H142643   4.687   3.438  13.135 -1.2101  0.9404 -0.1502
 7076TIP3    H242644   4.736   3.294  13.133 -0.4303  1.2034 -0.3219
 7077TIP3   OH242645   2.020   3.617  11.492 -0.0550 -0.1666  0.3503
 7077TIP3    H142646   2.039   3.708  11.517  0.9332 -0.7643  1.9590
 7077TIP3    H242647   2.091   3.567  11.532 -0.8476 -1.7130 -0.1207
 7078TIP3   OH242648   0.236   4.063  11.580  0.2870 -0.4280  0.0603
 7078TIP3    H142649   0.267   4.094  11.666  1.4092 -0.1225 -0.4281
 7078TIP3    H242650   0.188   4.137  11.544  1.4229  0.1388 -0.3446
 7079TIP3   OH242651   2.289   0.594   4.758  0.3354  0.2389  0.3504
 7079TIP3    H142652   2.262   0.510   4.795  0.9314 -0.1744 -0.1353
 7079TIP3    H242653   2.227   0.611   4.687 -0.2264  0.5693  0.9100
 7080TIP3   OH242654   6.341   0.373  12.565  0.4287  0.4879  0.1105
 7080TIP3    H142655   6.399   0.373  12.488  0.7235 -2.2878  0.2133
 7080TIP3    H242656   6.258   0.340  12.531  0.9134 -1.9882  1.0983
 7081TIP3   OH242657   2.251   2.214  12.434  0.6268  0.3080 -0.7994
 7081TIP3    H142658   2.208   2.286  12.389  1.0498  0.5300 -0.8600
 7081TIP3    H242659   2.312   2.178  12.369  0.1609 -0.3415 -0.8888
 7082TIP3   OH242660   5.311   1.587   2.935 -0.3078 -0.2683  0.4956
 7082TIP3    H142661   5.337   1.580   3.027 -0.1776 -1.5910  0.3818
 7082TIP3    H242662   5.218   1.564   2.934 -0.1281 -1.0163  0.2154
 7083TIP3   OH242663   4.191   4.552   4.597 -0.2032  0.4322 -0.2275
 7083TIP3    H142664   4.287   4.555   4.591 -0.1786 -1.0640 -0.9307
 7083TIP3    H242665   4.174   4.483   4.661 -0.8260  1.0157  0.2484
 7084TIP3   OH242666   6.816   5.818   2.176  0.4389  0.1430 -0.4774
 7084TIP3    H142667   6.806   5.742   2.119  0.8883  0.6147 -1.2152
 7084TIP3    H242668   6.727   5.843   2.200  0.0578  1.0930 -2.5781
 7085TIP3   OH242669   6.014   5.707   0.219  0.3239  0.2525  0.0662
 7085TIP3    H142670   5.973   5.647   0.157  0.4864  2.0362 -1.8668
 7085TIP3    H242671   6.108   5.690   0.211  0.3650  0.6915 -0.4286
 7086TIP3   OH242672   4.570   0.368  11.644  1.1531  0.2774 -0.4258
 7086TIP3    H142673   4.487   0.331  11.614  1.5606  0.3402 -1.6988
 7086TIP3    H242674   4.605   0.302  11.704  0.0087  0.4384  0.4514
 7087TIP3   OH242675   4.591   0.335   6.417  0.5127  0.1333  0.3708
 7087TIP3    H142676   4.496   0.350   6.421  0.6180  2.3696 -2.2459
 7087TIP3    H242677   4.601   0.268   6.350  0.7954  0.1565  0.3914
 7088TIP3   OH242678   0.154   3.399   4.018 -0.1671  0.2841 -0.3448
 7088TIP3    H142679   0.197   3.331   3.967 -0.7192 -1.2354  1.1560
 7088TIP3    H242680   0.226   3.445   4.062  0.1765  0.4238 -1.0336
 7089TIP3   OH242681   5.688   6.482   2.871  0.2725 -0.4909 -0.1860
 7089TIP3    H142682   5.703   6.534   2.950  2.1095  0.2561 -0.9466
 7089TIP3    H242683   5.682   6.392   2.902 -1.7482  0.0085  1.0401
 7090TIP3   OH242684   4.775   4.392  16.178  0.2225  0.1368  0.0723
 7090TIP3    H142685   4.740   4.357  16.259 -0.1914  1.0641  0.3070
 7090TIP3    H242686   4.710   4.456  16.149 -1.2662 -2.3880 -2.6782
 7091TIP3   OH242687   0.308   6.132   1.874  0.0737 -0.0510  0.1558
 7091TIP3    H142688   0.382   6.148   1.816  1.4529 -1.2656  1.4853
 7091TIP3    H242689   0.235   6.179   1.834  0.9439 -0.7830 -2.5100
 7092TIP3   OH242690   0.320   0.298  11.537  0.0144 -0.6611  0.5048
 7092TIP3    H142691   0.280   0.224  11.582  0.5984 -1.6421 -0.5352
 7092TIP3    H242692   0.265   0.313  11.460  1.8939 -2.4747 -1.3298
 7093TIP3   OH242693   2.584   6.314  15.671  0.4323  0.2725 -1.0223
 7093TIP3    H142694   2.506   6.334  15.723  1.2510  0.2803  0.2250
 7093TIP3    H242695   2.581   6.378  15.599  0.7850  2.1893  0.5870
 7094TIP3   OH242696   5.454   1.941   3.853 -0.5840  0.2197  0.2863
 7094TIP3    H142697   5.464   2.006   3.923 -1.0176 -1.1077  1.6541
 7094TIP3    H242698   5.531   1.952   3.798 -1.5593  3.1559 -0.6670
 7095TIP3   OH242699   0.829   2.245   2.574 -0.4542  0.2525  0.4435
 7095TIP3    H142700   0.910   2.227   2.525 -0.7191 -0.0894  0.1189
 7095TIP3    H242701   0.763   2.190   2.531 -0.5546 -0.5757  1.6150
 7096TIP3   OH242702   6.329   3.141   4.429 -0.0523 -0.1598  0.0341
 7096TIP3    H142703   6.410   3.149   4.480 -0.5295  0.2656  0.7437
 7096TIP3    H242704   6.268   3.097   4.487 -0.3567 -0.4296 -0.4801
 7097TIP3   OH242705   0.690   0.729   1.980  0.0912  0.5282  0.3036
 7097TIP3    H142706   0.723   0.806   2.028 -2.0313  1.8999 -0.2771
 7097TIP3    H242707   0.597   0.750   1.964 -0.3490 -1.8505 -0.5487
 7098TIP3   OH242708   5.443   4.301   5.027 -0.6434  0.2782 -0.3490
 7098TIP3    H142709   5.507   4.252   4.976  0.8364  0.5176  1.1630
 7098TIP3    H242710   5.481   4.389   5.034  0.7472 -0.4065  3.3994
 7099TIP3   OH242711   2.987   1.972  16.687  0.1605  0.7865 -0.4333
 7099TIP3    H142712   2.909   1.928  16.652  0.3725  1.2699 -1.5727
 7099TIP3    H242713   2.957   2.011  16.769 -0.1699 -1.0023  0.3432
 7100TIP3   OH242714   4.718   6.126  13.451 -0.2306  0.1379 -0.5633
 7100TIP3    H142715   4.812   6.113  13.462 -0.3368  0.2645  0.6163
 7100TIP3    H242716   4.711   6.185  13.376  0.6829  0.7584 -0.1856
 7101TIP3   OH242717   4.643   2.807  16.308  0.4200  0.6154 -0.0853
 7101TIP3    H142718   4.578   2.843  16.247 -1.0591 -1.7242 -0.0120
 7101TIP3    H242719   4.695   2.748  16.254 -0.1956 -0.6395  0.6572
 7102TIP3   OH242720   5.981   4.773   4.736  0.0461 -0.6166  0.3315
 7102TIP3    H142721   5.977   4.678   4.742 -0.1560 -0.7392 -1.2269
 7102TIP3    H242722   5.899   4.797   4.692  0.5767  0.1637 -0.2628
 7103TIP3   OH242723   5.708   3.616  13.162 -0.6746  0.3253  0.2915
 7103TIP3    H142724   5.658   3.652  13.089 -0.5819 -1.1215 -0.5202
 7103TIP3    H242725   5.756   3.691  13.197 -2.4575  1.4979  0.3302
 7104TIP3   OH242726   2.723   1.792  12.777  0.3976  0.1025  0.2271
 7104TIP3    H142727   2.640   1.754  12.805 -0.5049 -0.4368 -2.8681
 7104TIP3    H242728   2.700   1.878  12.742  1.6513  1.2568  2.0265
 7105TIP3   OH242729   1.278   2.863  14.448 -0.4016  0.1077 -0.0913
 7105TIP3    H142730   1.215   2.811  14.498  0.3167 -1.1533 -0.4446
 7105TIP3    H242731   1.229   2.940  14.419 -1.8746 -0.9841 -0.6172
 7106TIP3   OH242732   4.178   6.781   1.110  0.2448  0.3717 -0.0702
 7106TIP3    H142733   4.191   6.693   1.075 -0.4596  0.2714 -0.1030
 7106TIP3    H242734   4.264   6.823   1.103  1.0265 -0.8436  1.4620
 7107TIP3   OH242735   2.545   1.108   4.151  0.4655  0.3646  0.2021
 7107TIP3    H142736   2.586   1.024   4.131  0.8638  0.7864 -0.8272
 7107TIP3    H242737   2.464   1.108   4.100  1.2615  1.2589 -1.1378
 7108TIP3   OH242738   0.752   2.423   0.429 -0.2335  0.3011 -0.2297
 7108TIP3    H142739   0.702   2.438   0.509 -0.8139  0.4276 -0.6106
 7108TIP3    H242740   0.700   2.359   0.380  0.0659  0.3086 -0.5575
 7109TIP3   OH242741   0.765   4.835  16.723  0.4571 -0.2850 -0.2371
 7109TIP3    H142742   0.808   4.867  16.643  1.0743 -1.4761 -0.4105
 7109TIP3    H242743   0.732   4.748  16.699  0.2087 -0.4435  0.6548
 7110TIP3   OH242744   6.643   2.809  11.638 -0.4716 -0.3111  0.2785
 7110TIP3    H142745   6.641   2.784  11.545  0.6748 -1.0876  0.4413
 7110TIP3    H242746   6.707   2.880  11.642  0.3003 -1.0149  0.6262
 7111TIP3   OH242747   4.973   0.965  16.228 -0.1862 -0.5571 -0.5941
 7111TIP3    H142748   4.936   0.877  16.215  0.6887 -0.9836 -0.2361
 7111TIP3    H242749   5.045   0.952  16.288  0.5145  0.2813 -1.2324
 7112TIP3   OH242750   4.866   6.657   0.597 -0.4370 -0.3070  0.3171
 7112TIP3    H142751   4.861   6.753   0.595  0.5540 -0.1672  2.3180
 7112TIP3    H242752   4.827   6.630   0.514 -1.3217  1.7937 -0.0337
 7113TIP3   OH242753   1.188   2.578  16.073  0.2639 -0.5363 -0.4808
 7113TIP3    H142754   1.166   2.507  16.012  1.9258 -1.3244 -0.2297
 7113TIP3    H242755   1.172   2.540  16.160 -0.5293  0.0240 -0.3729
 7114TIP3   OH242756   0.800   3.103   4.776 -0.0428  0.1440 -0.0029
 7114TIP3    H142757   0.881   3.075   4.735  0.1762 -0.3488  0.7444
 7114TIP3    H242758   0.731   3.072   4.717  0.2849  0.1071 -0.3694
 7115TIP3   OH242759   5.347   3.370  15.577  0.0022  0.0293  0.0407
 7115TIP3    H142760   5.303   3.378  15.662  0.5574  0.4232  0.2999
 7115TIP3    H242761   5.298   3.430  15.520 -0.2725 -0.1165  0.1189
 7116TIP3   OH242762   3.354   3.813   5.465  0.3162  0.2524 -0.3107
 7116TIP3    H142763   3.402   3.740   5.426 -0.2784 -0.0043 -0.5749
 7116TIP3    H242764   3.357   3.797   5.559  0.3137 -0.0379 -0.3598
 7117TIP3   OH242765   5.847   5.026   0.705  0.0031 -0.1918  0.0793
 7117TIP3    H142766   5.889   5.112   0.712 -0.1007 -0.1913  0.7902
 7117TIP3    H242767   5.837   5.011   0.611 -0.2737  0.7201 -0.0447
 7118TIP3   OH242768   6.330   1.465  13.274  0.2589 -0.2132 -0.5999
 7118TIP3    H142769   6.309   1.472  13.181 -2.8510  1.1672  0.0939
 7118TIP3    H242770   6.412   1.415  13.276 -0.5728 -2.0105 -3.9562
 7119TIP3   OH242771   2.497   5.351   3.460 -0.0674 -0.1567  0.5007
 7119TIP3    H142772   2.561   5.356   3.390 -0.3184 -0.6401  0.2351
 7119TIP3    H242773   2.478   5.442   3.482  0.5204 -0.0113  0.4089
 7120TIP3   OH242774   4.362   3.219   5.038 -0.5230  0.2524  0.1170
 7120TIP3    H142775   4.427   3.203   4.969 -0.1673 -0.3498  0.5879
 7120TIP3    H242776   4.405   3.192   5.119 -2.0683 -2.2607  0.2112
 7121TIP3   OH242777   5.038   6.306   6.042 -0.3996 -0.9558  0.5232
 7121TIP3    H142778   5.022   6.293   6.135  1.0107 -4.6841  0.4214
 7121TIP3    H242779   4.951   6.314   6.003 -1.1427 -2.0757  1.8888
 7122TIP3   OH242780   4.657   4.845   1.192 -0.7161 -0.3961  0.0552
 7122TIP3    H142781   4.731   4.903   1.210 -1.2465  0.1847  0.4425
 7122TIP3    H242782   4.692   4.757   1.198 -0.2620 -0.1524  1.2157
 7123TIP3   OH242783   2.811   1.235   4.932  0.1701 -0.1980  0.1569
 7123TIP3    H142784   2.833   1.324   4.961 -0.0950  0.5563 -1.7925
 7123TIP3    H242785   2.720   1.240   4.905  0.5580 -0.6679 -1.3294
 7124TIP3   OH242786   5.508   2.581   3.682 -0.5035 -0.3427 -0.6286
 7124TIP3    H142787   5.527   2.620   3.767 -1.1674  0.0580 -0.6624
 7124TIP3    H242788   5.465   2.498   3.702 -3.1230  0.9316 -0.5319
 7125TIP3   OH242789   1.754   4.929   1.432  0.2724  0.2976  0.5108
 7125TIP3    H142790   1.750   5.022   1.452  0.1610  0.4030  0.0162
 7125TIP3    H242791   1.783   4.925   1.341  0.6635 -0.1621  0.6530
 7126TIP3   OH242792   2.406   4.315  16.639  0.5296 -0.1131 -0.4960
 7126TIP3    H142793   2.444   4.368  16.710  0.5655  0.7352 -1.1346
 7126TIP3    H242794   2.326   4.279  16.677 -0.1963  1.4644 -0.4270
 7127TIP3   OH242795   2.337   6.475  12.320  0.2821 -0.2242 -0.1376
 7127TIP3    H142796   2.283   6.407  12.361 -1.6490  0.3897 -1.5500
 7127TIP3    H242797   2.282   6.553  12.319  2.1629  1.1791  0.6910
 7128TIP3   OH242798   3.237   4.152  12.243  0.1319  0.3358  0.2784
 7128TIP3    H142799   3.252   4.095  12.168 -0.1173  1.1269 -0.3812
 7128TIP3    H242800   3.163   4.111  12.289  0.3395 -0.1939  0.1521
 7129TIP3   OH242801   3.336   5.361   3.936 -0.1357  0.5291 -0.1964
 7129TIP3    H142802   3.356   5.278   3.978 -1.6841  0.2744  0.0880
 7129TIP3    H242803   3.247   5.351   3.904  0.2526  1.4807 -1.6787
 7130TIP3   OH242804   5.177   3.294   0.231 -0.5543  0.3859  0.4139
 7130TIP3    H142805   5.205   3.348   0.305  0.4563 -0.0030  0.3418
 7130TIP3    H242806   5.229   3.214   0.240 -1.7336 -0.4211  0.3006
 7131TIP3   OH242807   5.619   2.851   0.298  0.0595 -0.2108 -0.0098
 7131TIP3    H142808   5.580   2.850   0.211  1.4710 -0.8258 -0.6722
 7131TIP3    H242809   5.558   2.801   0.352  0.1851 -1.6889 -1.1507
 7132TIP3   OH242810   5.090   5.669  12.860  0.3489  0.0766  0.8781
 7132TIP3    H142811   5.013   5.722  12.881 -0.8729 -0.1279 -2.5866
 7132TIP3    H242812   5.061   5.579  12.874  0.3469  0.0459  0.6714
 7133TIP3   OH242813   4.604   6.193   3.653  0.1922 -0.6578 -0.6615
 7133TIP3    H142814   4.587   6.112   3.605  0.7700 -1.5048  0.5094
 7133TIP3    H242815   4.688   6.224   3.619  1.5248 -2.2380  1.0006
 7134TIP3   OH242816   6.815   3.348   0.436 -0.7990 -0.2349  0.7477
 7134TIP3    H142817   6.804   3.259   0.403  2.2854  0.1963 -2.0533
 7134TIP3    H242818   6.847   3.337   0.526 -2.6585 -1.7800  1.2829
 7135TIP3   OH242819   6.477   1.856   2.488 -0.0966 -0.3090 -0.2897
 7135TIP3    H142820   6.474   1.910   2.567 -0.1416 -0.8175  0.0589
 7135TIP3    H242821   6.545   1.896   2.435  0.2394 -0.2254  0.1962
 7136TIP3   OH242822   0.098   6.349   3.337 -0.2068 -0.5059 -0.5271
 7136TIP3    H142823   0.101   6.274   3.397  0.4813  0.1767  0.3032
 7136TIP3    H242824   0.118   6.425   3.391  0.6795  0.1025 -1.6522
 7137TIP3   OH242825   0.214   5.741   2.655  0.0256  0.5771 -0.8249
 7137TIP3    H142826   0.297   5.784   2.674 -0.4338  1.4211 -0.6696
 7137TIP3    H242827   0.226   5.702   2.568  0.6179  0.5826 -0.7465
 7138TIP3   OH242828   2.620   1.843  15.648  0.0378 -0.1514 -0.1167
 7138TIP3    H142829   2.696   1.848  15.590 -0.1414  0.1003 -0.3330
 7138TIP3    H242830   2.649   1.883  15.730  0.2224 -0.3052 -0.1076
 7139TIP3   OH242831   1.484   5.136  14.365  0.6939 -0.0091  0.2284
 7139TIP3    H142832   1.504   5.157  14.456 -1.3236 -0.3096  0.8061
 7139TIP3    H242833   1.443   5.216  14.330 -1.8947 -0.9766  0.7646
 7140TIP3   OH242834   0.998   3.083   4.444  0.2706  0.2818 -0.1500
 7140TIP3    H142835   0.991   2.991   4.417 -0.7351 -0.5641  2.5913
 7140TIP3    H242836   1.010   3.079   4.539  2.6066  2.9768 -0.1761
 7141TIP3   OH242837   1.689   3.738  15.775  0.2128 -0.3696 -0.3108
 7141TIP3    H142838   1.649   3.776  15.697  0.3481 -0.6278 -0.5065
 7141TIP3    H242839   1.626   3.673  15.805  0.6420 -1.0288 -0.8229
 7142TIP3   OH242840   5.948   3.085  14.421 -0.4271  0.2837 -0.0281
 7142TIP3    H142841   5.953   3.101  14.327 -0.0011 -0.7972 -0.1996
 7142TIP3    H242842   6.039   3.082  14.450 -0.4514 -2.1003 -0.0749
 7143TIP3   OH242843   4.218   5.879  11.713 -0.1808 -0.1893 -0.1451
 7143TIP3    H142844   4.313   5.873  11.704 -0.0207 -0.8170  1.4978
 7143TIP3    H242845   4.205   5.923  11.797 -1.3352 -0.7203 -0.0277
 7144TIP3   OH242846   0.111   5.813  14.903  0.1989  0.3252 -0.1094
 7144TIP3    H142847   0.083   5.898  14.936  0.9600 -0.2372  2.1633
 7144TIP3    H242848   0.152   5.770  14.978 -2.1817 -2.9699 -0.4341
 7145TIP3   OH242849   6.743   5.449   3.539  0.8747  0.2337  0.0039
 7145TIP3    H142850   6.712   5.515   3.476 -1.3590  2.0630  2.7892
 7145TIP3    H242851   6.755   5.370   3.486 -0.8863  1.6238 -2.7194
 7146TIP3   OH242852   5.856   5.433   1.805  0.0437  0.0338  0.0408
 7146TIP3    H142853   5.890   5.443   1.894  1.3775 -0.8564 -0.3382
 7146TIP3    H242854   5.904   5.498   1.754 -1.6083  1.4221  0.1398
 7147TIP3   OH242855   2.538   0.104   3.391  0.6579 -0.9378 -0.2469
 7147TIP3    H142856   2.528   0.184   3.443  0.3007 -0.1845 -1.4293
 7147TIP3    H242857   2.450   0.067   3.388  0.6153 -0.8146 -0.5578
 7148TIP3   OH242858   3.099   0.786  17.061 -0.2505  0.1622 -0.0650
 7148TIP3    H142859   3.174   0.799  17.002 -2.7197  2.2678 -3.0524
 7148TIP3    H242860   3.106   0.858  17.123 -0.2486  0.9005 -0.8934
 7149TIP3   OH242861   1.636   5.307   5.859  0.1015  0.4748  0.0147
 7149TIP3    H142862   1.684   5.285   5.939 -0.4437  1.4291  0.6247
 7149TIP3    H242863   1.599   5.224   5.830  2.1477 -0.3174 -0.5269
 7150TIP3   OH242864   6.436   3.490   1.337 -0.2445 -0.2770 -0.1413
 7150TIP3    H142865   6.480   3.410   1.366  0.0579  0.0095  0.2022
 7150TIP3    H242866   6.411   3.472   1.247 -1.0455 -1.1244  0.2284
 7151TIP3   OH242867   3.270   0.754  15.480  0.4330 -0.2290  0.0725
 7151TIP3    H142868   3.359   0.775  15.450  0.2802  2.0413  1.0359
 7151TIP3    H242869   3.213   0.812  15.429 -0.2580  0.0855  1.1692
 7152TIP3   OH242870   4.349   1.082   4.699  0.1085  0.3176  0.0324
 7152TIP3    H142871   4.414   1.036   4.753  1.5375 -0.2133 -2.0009
 7152TIP3    H242872   4.271   1.028   4.704  0.5445 -0.2671  0.7455
 7153TIP3   OH242873   2.840   0.649   5.874 -0.3760 -0.0014  0.2776
 7153TIP3    H142874   2.824   0.564   5.916 -2.0020  0.8005  1.3977
 7153TIP3    H242875   2.758   0.697   5.885  1.2031  2.5824  1.7714
 7154TIP3   OH242876   4.900   2.260   5.560 -0.2640  0.0992 -0.6076
 7154TIP3    H142877   4.880   2.221   5.474 -0.1418  0.7901 -0.9501
 7154TIP3    H242878   4.934   2.186   5.611  0.9770 -0.0485 -1.5837
 7155TIP3   OH242879   1.262   4.811   0.429 -0.1699  0.0225 -0.1939
 7155TIP3    H142880   1.299   4.741   0.484 -0.3593 -0.1627 -0.3002
 7155TIP3    H242881   1.292   4.892   0.470  1.6053 -0.1277 -1.1236
 7156TIP3   OH242882   1.727   1.987   2.711 -0.1921  0.5825 -0.6690
 7156TIP3    H142883   1.821   1.975   2.698 -0.0132 -3.9025  2.4905
 7156TIP3    H242884   1.687   1.913   2.664 -1.6280 -0.1692  1.6071
 7157TIP3   OH242885   4.604   5.335  13.294  0.8701 -0.5506  0.3509
 7157TIP3    H142886   4.586   5.293  13.210  0.0770  0.4663 -0.0104
 7157TIP3    H242887   4.679   5.287  13.329  0.4934 -1.7394 -0.3972
 7158TIP3   OH242888   0.938   3.756   2.207 -0.1893  0.4591 -0.2770
 7158TIP3    H142889   0.907   3.680   2.158 -2.6298  1.5524 -0.5844
 7158TIP3    H242890   1.004   3.796   2.151  1.8777 -1.8816  0.3097
 7159TIP3   OH242891   4.913   1.938  11.318 -0.6258 -0.1556 -0.1141
 7159TIP3    H142892   4.872   1.900  11.239  0.8466  0.1668 -1.0754
 7159TIP3    H242893   4.892   2.031  11.313 -1.7185 -0.3458  0.6515
 7160TIP3   OH242894   5.680   6.725  12.513 -0.3031 -0.3638 -0.4894
 7160TIP3    H142895   5.647   6.642  12.481 -3.0706  1.3018 -2.3837
 7160TIP3    H242896   5.610   6.761  12.567  1.1922  0.3956  1.0578
 7161TIP3   OH242897   1.648   0.888   2.511  0.2080  0.3584 -0.1983
 7161TIP3    H142898   1.603   0.925   2.435 -1.8909 -0.6077  0.4820
 7161TIP3    H242899   1.685   0.963   2.556  0.0585  1.1161 -1.2935
 7162TIP3   OH242900   4.530   2.545  14.089 -0.6526  0.0821 -0.6058
 7162TIP3    H142901   4.562   2.482  14.024 -0.9588 -0.9895  0.2503
 7162TIP3    H242902   4.609   2.575  14.134 -0.4951  0.4001 -1.0832
 7163TIP3   OH242903   1.842   5.738   3.869 -0.5178 -0.0124  0.0685
 7163TIP3    H142904   1.790   5.718   3.792 -1.4696 -0.1512  0.7298
 7163TIP3    H242905   1.889   5.819   3.847  0.6514 -1.0136 -1.3204
 7164TIP3   OH242906   1.131   2.216  12.071 -0.9228  0.5584  0.1074
 7164TIP3    H142907   1.185   2.288  12.103  0.7053 -0.6570  0.2376
 7164TIP3    H242908   1.164   2.197  11.983  0.4845 -1.6481  1.0205
 7165TIP3   OH242909   4.036   4.695   5.489 -0.2818 -0.3536  0.3564
 7165TIP3    H142910   4.063   4.605   5.474 -1.8941 -1.2022  2.1110
 7165TIP3    H242911   4.049   4.738   5.405 -0.7157 -2.5649 -0.9249
 7166TIP3   OH242912   0.534   6.754  13.370  0.2134  0.2790 -0.0317
 7166TIP3    H142913   0.537   6.841  13.409 -1.2631  0.5235 -0.3907
 7166TIP3    H242914   0.626   6.729  13.360  0.7423  0.0323  3.8964
 7167TIP3   OH242915   4.220   1.477  14.886 -0.0027  0.3521  0.1751
 7167TIP3    H142916   4.188   1.437  14.967  0.6239  0.8418  0.6781
 7167TIP3    H242917   4.314   1.483  14.898  0.2151 -0.4274 -0.9906
 7168TIP3   OH242918   3.392   1.567   2.237 -0.3328  0.0538 -0.1192
 7168TIP3    H142919   3.483   1.539   2.234 -0.1656  0.4409  0.8497
 7168TIP3    H242920   3.382   1.627   2.164  0.3174  0.3718  0.0503
 7169TIP3   OH242921   1.006   2.297   4.226 -0.1691  0.1852 -0.2826
 7169TIP3    H142922   1.054   2.250   4.158 -2.7515 -1.0172 -1.4283
 7169TIP3    H242923   1.017   2.243   4.305 -0.7595 -0.8239 -0.8745
 7170TIP3   OH242924   2.751   2.213   3.720 -0.1624 -0.1826 -0.4621
 7170TIP3    H142925   2.846   2.209   3.725 -0.1763 -1.3838 -0.6865
 7170TIP3    H242926   2.723   2.228   3.810  0.2564  0.9487 -0.5117
 7171TIP3   OH242927   4.517   5.504  13.968 -0.1655 -0.0792  0.8614
 7171TIP3    H142928   4.489   5.472  14.053  0.6229 -0.7745  0.8747
 7171TIP3    H242929   4.469   5.451  13.905 -1.1893  0.8267  0.8518
 7172TIP3   OH242930   4.575   1.361   0.549 -0.6489 -0.0944 -0.2087
 7172TIP3    H142931   4.493   1.332   0.590 -1.4110  0.7381 -1.0806
 7172TIP3    H242932   4.555   1.363   0.456  0.3564  0.1791 -0.4284
 7173TIP3   OH242933   5.332   4.208  10.946  0.5459  0.0569  0.2746
 7173TIP3    H142934   5.246   4.227  10.982  1.2427  3.4117  0.4976
 7173TIP3    H242935   5.333   4.251  10.861  1.5549 -1.1636 -0.3650
 7174TIP3   OH242936   2.755   4.117   0.040  0.5913  0.4442 -0.1277
 7174TIP3    H142937   2.810   4.185   0.003 -0.0163  0.6698 -0.6337
 7174TIP3    H242938   2.689   4.165   0.091  0.5277  0.2018  0.0209
 7175TIP3   OH242939   1.515   1.305  15.050 -0.0836  0.3038 -0.0386
 7175TIP3    H142940   1.565   1.294  15.131 -0.6081 -0.0501  0.2494
 7175TIP3    H242941   1.568   1.363  14.996  0.4119  0.3088  0.4441
 7176TIP3   OH242942   6.418   2.024   1.667 -0.0394 -0.3801 -0.1316
 7176TIP3    H142943   6.465   2.067   1.596 -0.5353  0.0983 -0.1827
 7176TIP3    H242944   6.468   1.945   1.685  0.8583  0.1771 -0.0885
 7177TIP3   OH242945   4.720   5.836   1.108  0.1387  0.5152 -0.1932
 7177TIP3    H142946   4.798   5.881   1.141  1.0167 -0.8086 -0.3325
 7177TIP3    H242947   4.750   5.746   1.093 -0.8116  0.5114 -2.4205
 7178TIP3   OH242948   5.164   0.532   2.827  0.1736 -0.1479 -0.6349
 7178TIP3    H142949   5.206   0.575   2.902 -0.4771  1.1994 -1.0161
 7178TIP3    H242950   5.181   0.590   2.753  1.2004 -1.6927 -1.6647
 7179TIP3   OH242951   6.354   1.529   5.129 -0.0159  0.5104 -0.0265
 7179TIP3    H142952   6.292   1.481   5.073 -0.4263 -0.5801  1.3054
 7179TIP3    H242953   6.380   1.466   5.195  2.2216  1.0946 -0.2752
 7180TIP3   OH242954   5.761   3.020   5.144  0.9267 -0.3876 -0.6590
 7180TIP3    H142955   5.695   3.088   5.158  1.3009  0.1503 -1.4194
 7180TIP3    H242956   5.717   2.938   5.169  0.6266  0.1712  0.7071
 7181TIP3   OH242957   1.310   1.847   4.072  0.2197  0.3407  0.5223
 7181TIP3    H142958   1.347   1.816   4.155  1.9158 -0.7689 -0.5637
 7181TIP3    H242959   1.347   1.934   4.060  0.5261  0.2267  0.6266
 7182TIP3   OH242960   0.120   4.032  12.729  0.1253  0.1513 -0.6841
 7182TIP3    H142961   0.103   3.951  12.776 -0.7307  0.8794  0.3131
 7182TIP3    H242962   0.037   4.053  12.685  0.6475 -0.0451 -1.8010
 7183TIP3   OH242963   3.063   3.809  15.858  0.6179 -0.3939 -0.4659
 7183TIP3    H142964   3.011   3.886  15.882  0.6415 -0.8060  1.0039
 7183TIP3    H242965   3.093   3.774  15.942  1.4832 -1.4004 -1.1815
 7184TIP3   OH242966   3.361   1.568  11.436 -0.0503  0.0883 -0.0150
 7184TIP3    H142967   3.455   1.576  11.456 -0.3820 -0.0915  1.7846
 7184TIP3    H242968   3.332   1.494  11.490 -1.4672  0.8918  0.3633
 7185TIP3   OH242969   2.639   2.510   3.993  0.4570 -0.0963  0.3589
 7185TIP3    H142970   2.685   2.456   4.057  1.7436  1.1211  0.5022
 7185TIP3    H242971   2.706   2.531   3.927 -0.7332 -1.0172 -1.2274
 7186TIP3   OH242972   0.499   1.642  13.285 -0.0590  0.4491  0.4560
 7186TIP3    H142973   0.485   1.737  13.277  0.5228  0.7490  2.3836
 7186TIP3    H242974   0.580   1.634  13.336  0.1565 -1.1028 -0.0896
 7187TIP3   OH242975   6.461   3.176   3.409 -0.1708  0.3507  0.5970
 7187TIP3    H142976   6.459   3.100   3.467 -2.0827  0.6133  0.9376
 7187TIP3    H242977   6.374   3.178   3.370  0.4603  1.3033 -0.8396
 7188TIP3   OH242978   4.230   6.058   3.906 -0.4656  0.6100  0.0695
 7188TIP3    H142979   4.282   6.119   3.958  1.6850 -0.0202 -1.1739
 7188TIP3    H242980   4.209   6.106   3.826  0.6819 -0.0034 -0.6340
 7189TIP3   OH242981   1.848   1.845  14.405  0.6527  0.1409 -0.2352
 7189TIP3    H142982   1.776   1.905  14.385  0.9880  0.2077 -1.3068
 7189TIP3    H242983   1.925   1.901  14.412  0.4803  0.1900  1.8707
 7190TIP3   OH242984   5.921   0.070  12.574  0.5533 -0.2690 -0.5134
 7190TIP3    H142985   5.848   0.015  12.546  1.2943 -1.5138 -0.0654
 7190TIP3    H242986   5.946   0.036  12.660  0.8375  0.9755 -0.0744
 7191TIP3   OH242987   4.520   3.249   3.673 -0.4620  0.2648 -0.2261
 7191TIP3    H142988   4.478   3.179   3.624 -0.3707  0.0141  0.0466
 7191TIP3    H242989   4.567   3.300   3.607  1.1508 -1.1096 -0.2296
 7192TIP3   OH242990   4.362   3.681   2.757  0.4589  0.4724  0.2240
 7192TIP3    H142991   4.342   3.590   2.737  0.2843  0.9418 -1.9304
 7192TIP3    H242992   4.285   3.712   2.806  0.0590 -0.2499  0.0646
 7193TIP3   OH242993   2.578   6.252   3.242  0.8269  0.6131 -0.3600
 7193TIP3    H142994   2.483   6.253   3.251  1.0319 -0.0188  3.4737
 7193TIP3    H242995   2.604   6.166   3.276  2.7818  0.7395 -1.4059
 7194TIP3   OH242996   5.703   0.454  16.806  0.5443  0.1205  0.4724
 7194TIP3    H142997   5.748   0.514  16.866 -0.8688  2.9128 -1.0134
 7194TIP3    H242998   5.771   0.397  16.772  2.9857  3.5431 -1.0188
 7195TIP3   OH242999   0.514   1.383  16.353 -0.2392 -0.6077 -1.0489
 7195TIP3    H143000   0.538   1.400  16.262  1.6749  0.1731 -0.4503
 7195TIP3    H243001   0.577   1.433  16.405 -1.1358 -1.2078  0.7252
 7196TIP3   OH243002   2.435   3.748  12.927  0.3225 -0.2391 -0.2962
 7196TIP3    H143003   2.433   3.793  12.843  1.8082 -1.1629 -0.8595
 7196TIP3    H243004   2.465   3.659  12.907 -0.9952 -1.0132  0.9973
 7197TIP3   OH243005   0.340   4.706  16.040  0.2815 -0.2053  0.0930
 7197TIP3    H143006   0.358   4.795  16.071 -1.9773  0.0739  0.7209
 7197TIP3    H243007   0.319   4.657  16.119 -1.3797 -0.5303 -0.5139
 7198TIP3   OH243008   0.267   0.020   1.205  0.0248 -0.6264 -0.0789
 7198TIP3    H143009   0.304  -0.063   1.233  0.2014 -0.1087  1.2938
 7198TIP3    H243010   0.227   0.056   1.284  0.4269  0.8451 -0.5216
 7199TIP3   OH243011   3.489   3.721  15.290  0.5657 -0.0135  0.6637
 7199TIP3    H143012   3.424   3.651  15.297  0.2633  0.0424 -1.0577
 7199TIP3    H243013   3.559   3.694  15.348  0.0774 -1.3290  0.6876
 7200TIP3   OH243014   6.509   1.702  16.121 -0.3358 -0.4292  0.2539
 7200TIP3    H143015   6.526   1.645  16.046 -1.5758 -1.2580  0.5766
 7200TIP3    H243016   6.477   1.783  16.082 -0.3258 -0.6113 -0.1438
 7201TIP3   OH243017   0.749   5.584   3.027  0.5095  0.3034  0.3495
 7201TIP3    H143018   0.843   5.572   3.043  0.6087 -0.3296 -0.6190
 7201TIP3    H243019   0.739   5.570   2.933 -0.7528 -0.8800  0.6364
 7202TIP3   OH243020   5.145   0.286  16.608 -0.6108  0.1408  0.0798
 7202TIP3    H143021   5.186   0.213  16.560 -1.6901 -1.0799  0.9626
 7202TIP3    H243022   5.171   0.272  16.699  1.0215  2.1709 -0.0090
 7203TIP3   OH243023   1.749   3.021   2.513  0.8888  0.1439 -0.3607
 7203TIP3    H143024   1.741   3.098   2.569 -0.3706  0.2097 -0.6051
 7203TIP3    H243025   1.800   3.052   2.438  1.8431  0.2786  0.3190
 7204TIP3   OH243026   2.471   2.860   2.612 -0.6665 -0.7079 -0.1298
 7204TIP3    H143027   2.387   2.865   2.657 -0.7597  0.3830 -0.4008
 7204TIP3    H243028   2.479   2.943   2.565  0.1810 -1.1375 -0.7916
 7205TIP3   OH243029   3.973   3.234   0.138 -0.3758  0.0289 -0.2347
 7205TIP3    H143030   3.938   3.146   0.157  1.5821 -0.5846  0.7864
 7205TIP3    H243031   3.951   3.286   0.215  0.4490 -0.2086  0.1687
 7206TIP3   OH243032   3.856   1.298   5.927 -0.4121  0.1228  0.7331
 7206TIP3    H143033   3.787   1.244   5.889 -0.3055  0.2333  0.3770
 7206TIP3    H243034   3.832   1.388   5.905  0.1640  0.1256  0.0566
 7207TIP3   OH243035   4.299   6.747   4.544  0.3779  0.1107 -0.9814
 7207TIP3    H143036   4.394   6.738   4.546  0.5130  1.3359  0.1119
 7207TIP3    H243037   4.284   6.830   4.498  0.0790  1.6940  1.7489
 7208TIP3   OH243038   3.335   4.624  16.656 -0.3610 -0.2414 -0.7621
 7208TIP3    H143039   3.294   4.703  16.692  1.5065  0.8412 -0.8664
 7208TIP3    H243040   3.291   4.552  16.702 -1.9248  0.8442 -0.4594
 7209TIP3   OH243041   2.417   6.325  15.427  0.1657  0.4144  0.5009
 7209TIP3    H143042   2.359   6.355  15.358  0.0228 -0.2598  0.3210
 7209TIP3    H243043   2.388   6.235  15.446  3.5145 -1.5409 -2.3404
 7210TIP3   OH243044   6.698   0.518   2.822 -0.6399 -0.0577  0.3824
 7210TIP3    H143045   6.678   0.429   2.795 -1.7487  0.5658 -0.9619
 7210TIP3    H243046   6.711   0.511   2.917  0.4130 -1.8111  0.1469
 7211TIP3   OH243047   1.663   6.438  15.156 -0.1203  0.3017  0.1157
 7211TIP3    H143048   1.614   6.519  15.142  1.6461  1.2841 -0.6655
 7211TIP3    H243049   1.597   6.369  15.145 -1.4307  1.5667 -0.3993
 7212TIP3   OH243050   6.624   5.361   5.607 -0.1086 -0.2288 -0.0019
 7212TIP3    H143051   6.715   5.387   5.620 -0.3035  0.9089 -0.7436
 7212TIP3    H243052   6.582   5.439   5.570 -1.3010 -0.8516 -0.0109
 7213TIP3   OH243053   0.447   5.984  14.307  0.2876  0.1810 -0.6374
 7213TIP3    H143054   0.467   5.892  14.290  1.0505  0.4006 -1.0118
 7213TIP3    H243055   0.454   5.993  14.402  0.7042 -0.0476 -0.6433
 7214TIP3   OH243056   4.145   3.304  11.468 -0.0466 -0.2151  0.1545
 7214TIP3    H143057   4.200   3.354  11.409  0.0715 -0.0777  0.3778
 7214TIP3    H243058   4.077   3.265  11.412  1.1115 -1.5861 -0.3587
 7215TIP3   OH243059   5.739   5.956   1.145  0.3046 -0.4360  0.3404
 7215TIP3    H143060   5.654   5.944   1.185 -0.5354  0.1685 -1.1786
 7215TIP3    H243061   5.756   6.050   1.152  0.5591 -0.4607  0.0772
 7216TIP3   OH243062   3.706   6.193  15.947  0.0409  0.0175 -0.1002
 7216TIP3    H143063   3.781   6.198  15.888  1.5401 -0.7383  1.6596
 7216TIP3    H243064   3.728   6.252  16.019 -1.0941 -0.1683  0.4243
 7217TIP3   OH243065   4.614   1.479  13.799 -0.7475  0.1997 -0.4738
 7217TIP3    H143066   4.550   1.409  13.785 -0.5498 -0.1692  0.4053
 7217TIP3    H243067   4.612   1.530  13.718 -1.3702 -0.4391 -0.8706
 7218TIP3   OH243068   3.467   1.954  14.547  0.3900 -0.5260  0.6708
 7218TIP3    H143069   3.454   1.915  14.634 -0.5458 -1.9288 -0.0581
 7218TIP3    H243070   3.473   1.879  14.488  0.9738  0.4072 -0.4980
 7219TIP3   OH243071   4.586   0.043  15.283  0.2055 -0.7928 -0.4627
 7219TIP3    H143072   4.631   0.066  15.364  1.9970  0.9922 -1.8582
 7219TIP3    H243073   4.635  -0.032  15.250 -0.1206 -1.1175 -0.2090
 7220TIP3   OH243074   1.968   4.346  15.579 -0.4266  0.2292  0.2763
 7220TIP3    H143075   1.944   4.345  15.672  0.3648 -0.9108  0.4936
 7220TIP3    H243076   2.017   4.265  15.566  0.5349  0.9569 -0.8609
 7221TIP3   OH243077   4.424   1.538   5.517 -0.5417 -0.0274  0.8487
 7221TIP3    H143078   4.422   1.632   5.533  0.6960  0.3956 -1.0204
 7221TIP3    H243079   4.360   1.524   5.447  2.1556  0.2438 -1.9042
 7222TIP3   OH243080   2.095   1.781   5.430 -0.2302  0.0434 -0.3382
 7222TIP3    H143081   2.136   1.812   5.349 -0.6035  1.8081  0.1178
 7222TIP3    H243082   2.168   1.767   5.490  0.1298 -2.0616 -1.1717
 7223TIP3   OH243083   2.813   4.336  15.616 -0.2889  0.0109  1.1402
 7223TIP3    H143084   2.743   4.283  15.654 -0.7825  0.3167  0.6695
 7223TIP3    H243085   2.768   4.396  15.556  0.5337 -1.2288 -0.8540
 7224TIP3   OH243086   3.610   3.796  14.066 -0.3857 -0.0452 -0.7099
 7224TIP3    H143087   3.646   3.831  14.147 -0.8145 -1.0999 -0.0371
 7224TIP3    H243088   3.633   3.860  13.999 -0.6341  1.1990  0.3672
 7225TIP3   OH243089   2.978   2.269  16.602 -0.0441  0.5700 -0.1661
 7225TIP3    H143090   3.024   2.265  16.518  0.9238  0.6780  0.3570
 7225TIP3    H243091   2.957   2.177  16.622  0.0039  0.5135 -0.3734
 7226TIP3   OH243092   5.059   3.340   0.624 -0.6636  0.1347 -0.1549
 7226TIP3    H143093   5.130   3.281   0.599 -0.6850  0.4981 -1.1093
 7226TIP3    H243094   4.990   3.281   0.657  0.5010 -0.1461  1.9906
 7227TIP3   OH243095   6.351   2.229   3.369  0.2829  0.0731  0.3172
 7227TIP3    H143096   6.312   2.260   3.287 -0.5593  0.4737  0.8638
 7227TIP3    H243097   6.440   2.202   3.344  0.3403  1.0162 -0.5571
 7228TIP3   OH243098   2.789   5.336   5.268 -0.1533 -1.0959 -0.3876
 7228TIP3    H143099   2.740   5.259   5.297 -0.3127 -0.6209  0.6501
 7228TIP3    H243100   2.779   5.399   5.339  0.1633 -0.1907 -1.1248
 7229TIP3   OH243101   4.150   4.357  12.969  0.4485 -0.2568 -0.4277
 7229TIP3    H143102   4.152   4.425  13.036  1.6250  0.2156 -0.9231
 7229TIP3    H243103   4.108   4.398  12.894  0.5492 -0.2878 -0.5013
 7230TIP3   OH243104   1.970   6.574  11.139  0.3233  0.5672  0.2443
 7230TIP3    H143105   2.065   6.578  11.124  0.1754  1.8592 -0.5440
 7230TIP3    H243106   1.958   6.602  11.230  0.6573  1.3140  0.0712
 7231TIP3   OH243107   5.808   3.999   6.384  0.2404 -0.1366 -0.3507
 7231TIP3    H143108   5.767   3.914   6.372  0.3456  0.0575 -2.4841
 7231TIP3    H243109   5.742   4.052   6.430 -0.0056 -1.1844  0.5540
 7232TIP3   OH243110   6.015   6.320  16.396 -0.5001  0.0081  0.0115
 7232TIP3    H143111   6.051   6.375  16.466  0.5688 -0.9175  0.2152
 7232TIP3    H243112   6.056   6.235  16.409  0.2139 -0.0107 -2.1280
 7233TIP3   OH243113   0.266   1.214   1.531 -0.9149 -0.2213  0.6496
 7233TIP3    H143114   0.256   1.302   1.495 -0.2086 -0.7909 -1.0502
 7233TIP3    H243115   0.221   1.218   1.616  1.5165  2.5937  2.0305
 7234TIP3   OH243116   5.236   5.202  14.094  0.1841  0.0960  0.1126
 7234TIP3    H143117   5.158   5.206  14.150 -0.1987 -0.2068 -0.3925
 7234TIP3    H243118   5.306   5.174  14.153 -0.1355  0.1466  0.5231
 7235TIP3   OH243119   3.637   4.861   5.426 -0.0444  0.4465  0.2884
 7235TIP3    H143120   3.654   4.873   5.520 -0.2180 -1.5238  0.6043
 7235TIP3    H243121   3.708   4.806   5.395  0.2690  1.4686 -0.8758
 7236TIP3   OH243122   0.647   2.691   1.888 -0.2648 -1.0356 -0.6950
 7236TIP3    H143123   0.682   2.753   1.952 -1.2018  0.2861 -1.4249
 7236TIP3    H243124   0.699   2.612   1.901  1.7525  0.2501 -0.4947
 7237TIP3   OH243125   3.441   1.095  16.771 -0.3366  0.1045  0.4608
 7237TIP3    H143126   3.356   1.135  16.787 -0.7435 -0.4930 -0.1308
 7237TIP3    H243127   3.450   1.094  16.676 -0.6899 -1.8430  0.4006
 7238TIP3   OH243128   2.435   1.847  13.775  0.3443 -0.0094 -0.0666
 7238TIP3    H143129   2.425   1.760  13.812  1.9930 -0.4608 -0.6157
 7238TIP3    H243130   2.351   1.864  13.731 -1.2125  0.0414  2.6736
 7239TIP3   OH243131   0.608   3.309  15.507 -0.4734 -0.3974 -0.1893
 7239TIP3    H143132   0.542   3.310  15.577  0.3762 -3.1691  0.7681
 7239TIP3    H243133   0.563   3.268  15.433 -0.0771 -1.6096  0.2251
 7240TIP3   OH243134   2.593   5.793   2.976  0.7058  0.7305  0.3802
 7240TIP3    H143135   2.611   5.881   3.007  2.8641  0.1452  0.9353
 7240TIP3    H243136   2.618   5.736   3.048 -1.9786 -0.3570  0.5991
 7241TIP3   OH243137   0.409   5.308   2.545 -0.1551  0.7627 -0.3599
 7241TIP3    H143138   0.481   5.342   2.599  0.0874 -1.7518  1.0472
 7241TIP3    H243139   0.332   5.314   2.602  0.2486 -2.6773  0.8121
 7242TIP3   OH243140   6.171   3.680  16.330  0.5527  0.1497 -0.1340
 7242TIP3    H143141   6.160   3.585  16.322  0.9550  0.0014  0.9208
 7242TIP3    H243142   6.160   3.713  16.241  1.0427 -0.9578 -0.6232
 7243TIP3   OH243143   2.296   5.548   1.794  0.5025 -0.2705  0.1670
 7243TIP3    H143144   2.375   5.602   1.795  0.4453 -0.1315 -1.4091
 7243TIP3    H243145   2.228   5.606   1.830  0.9241 -0.1081  0.7264
 7244TIP3   OH243146   5.645   1.043  16.831 -0.3462 -0.5299  0.8252
 7244TIP3    H143147   5.720   1.094  16.802 -1.3035 -0.0523 -0.9903
 7244TIP3    H243148   5.670   1.008  16.916  2.6665 -1.9720 -0.5246
 7245TIP3   OH243149   6.390   1.848  13.984  0.4188 -0.5121 -0.1025
 7245TIP3    H143150   6.387   1.855  13.889 -2.8260 -0.5152 -0.1314
 7245TIP3    H243151   6.464   1.790  14.002  0.0485 -1.9661 -2.7610
 7246TIP3   OH243152   6.038   0.243   0.856  0.1343 -0.4841 -0.1278
 7246TIP3    H143153   5.964   0.282   0.903 -0.3987  0.1218 -1.4238
 7246TIP3    H243154   6.099   0.316   0.844  0.3828 -0.6968 -0.1444
 7247TIP3   OH243155   1.784   4.804  11.058 -0.1549 -0.0636  0.2672
 7247TIP3    H143156   1.793   4.755  10.976  3.5187  1.1769 -0.2683
 7247TIP3    H243157   1.806   4.740  11.126 -2.2595 -0.8420  0.2849
 7248TIP3   OH243158   6.132   2.263  13.671  0.2996  0.2169 -0.0005
 7248TIP3    H143159   6.073   2.310  13.611 -0.3968 -0.2551  0.2948
 7248TIP3    H243160   6.102   2.288  13.758  0.0253 -0.6365  0.1574
 7249TIP3   OH243161   3.854   6.128  16.643  0.0722 -0.4995 -0.2088
 7249TIP3    H143162   3.881   6.151  16.554  0.6553  1.4664  0.4241
 7249TIP3    H243163   3.782   6.066  16.631 -0.0147 -0.1029 -2.0541
 7250TIP3   OH243164   3.574   1.133  14.871  0.2784 -0.7659 -0.4141
 7250TIP3    H143165   3.512   1.165  14.936 -0.3081 -1.6373 -0.5348
 7250TIP3    H243166   3.624   1.211  14.846 -0.2293 -0.2086  0.2634
 7251TIP3   OH243167   5.843   1.298   1.322  0.2823  0.3323  0.4905
 7251TIP3    H143168   5.806   1.386   1.319  0.1179  0.2538  0.1043
 7251TIP3    H243169   5.897   1.292   1.243  1.1704  0.4608  1.0642
 7252TIP3   OH243170   4.130   1.470   1.191 -0.1831  0.2043 -0.1752
 7252TIP3    H143171   4.168   1.535   1.133 -0.0726 -0.8377 -1.3055
 7252TIP3    H243172   4.039   1.464   1.163 -0.8251  1.5037  1.4474
 7253TIP3   OH243173   2.278   0.954  12.751 -0.0968 -0.1921  0.0081
 7253TIP3    H143174   2.226   0.929  12.827 -2.4071 -1.1197 -1.7528
 7253TIP3    H243175   2.232   0.916  12.676  1.7392  1.1400 -1.9473
 7254TIP3   OH243176   6.235   2.122   0.823 -1.0662  0.0253 -0.6646
 7254TIP3    H143177   6.327   2.096   0.833 -1.3869 -0.4161  1.9361
 7254TIP3    H243178   6.231   2.208   0.866 -1.7423  0.3773 -1.4201
 7255TIP3   OH243179   4.570   2.373   3.698  0.2443 -0.0316  0.8486
 7255TIP3    H143180   4.625   2.303   3.734  0.3090 -0.5744 -0.2832
 7255TIP3    H243181   4.497   2.380   3.760 -0.3925 -1.9149  0.3637
 7256TIP3   OH243182   4.954   1.283  16.187 -0.0493  0.4036  0.0638
 7256TIP3    H143183   4.984   1.233  16.111 -0.7808 -0.2142  0.1660
 7256TIP3    H243184   5.015   1.260  16.257  2.1255  2.8091 -0.8738
 7257TIP3   OH243185   6.238   0.087   0.978 -0.1165 -0.3895 -0.3772
 7257TIP3    H143186   6.196   0.123   0.900 -0.6921  0.8595  0.4758
 7257TIP3    H243187   6.174   0.101   1.048  0.8569 -0.4137  0.5386
 7258TIP3   OH243188   4.406   5.818  15.117 -1.1579 -0.6299 -0.2214
 7258TIP3    H143189   4.486   5.804  15.067  0.5215 -1.5496  2.4773
 7258TIP3    H243190   4.415   5.906  15.154 -0.1322 -1.5795  1.9866
 7259TIP3   OH243191   6.430   1.047   1.810  0.4451 -0.6255 -0.1939
 7259TIP3    H143192   6.494   1.039   1.880 -0.3443  0.6806  0.7182
 7259TIP3    H243193   6.351   1.005   1.844 -0.6212  1.8737  0.6605
 7260TIP3   OH243194   1.633   6.360  15.718 -0.3233  0.1099 -0.2110
 7260TIP3    H143195   1.560   6.385  15.774  1.1309  0.1464  1.7663
 7260TIP3    H243196   1.677   6.442  15.697  0.4562 -0.0946  0.5462
 7261TIP3   OH243197   6.065   4.840   3.799 -0.0599  0.1983  0.2122
 7261TIP3    H143198   6.030   4.899   3.866  1.5551  0.6526  0.7013
 7261TIP3    H243199   6.003   4.767   3.798  0.0605 -0.0321  2.5140
 7262TIP3   OH243200   0.551   4.476  16.211 -0.1119  0.1886 -0.8881
 7262TIP3    H143201   0.587   4.438  16.131  0.2419 -2.5515  0.4334
 7262TIP3    H243202   0.457   4.456  16.207 -0.2072  0.6339 -0.9123
 7263TIP3   OH243203   4.592   3.872   1.845 -0.2806  0.6438  0.4361
 7263TIP3    H143204   4.673   3.897   1.890 -0.1909  0.2411  0.5090
 7263TIP3    H243205   4.524   3.882   1.912 -0.3249  1.1905  0.3115
 7264TIP3   OH243206   1.630   6.577  10.381 -0.8017 -0.5436 -0.4201
 7264TIP3    H143207   1.616   6.670  10.362  1.5195 -0.1543 -0.4995
 7264TIP3    H243208   1.633   6.572  10.476  0.0338 -0.3461 -0.4275
 7265TIP3   OH243209   3.637   4.589  16.674  0.8397  0.2152 -0.0518
 7265TIP3    H143210   3.652   4.655  16.742  0.7218 -0.2228  0.4057
 7265TIP3    H243211   3.543   4.575  16.674  0.7569  0.7400 -0.8116
 7266TIP3   OH243212   3.927   4.612   4.424  0.1864 -0.5609  1.0869
 7266TIP3    H143213   3.914   4.521   4.397  0.6195 -0.7672  1.5590
 7266TIP3    H243214   4.000   4.608   4.486  0.0869  0.0870  1.2481
 7267TIP3   OH243215   6.416   0.786  13.020  0.1522  0.2607  0.1446
 7267TIP3    H143216   6.486   0.823  13.073 -0.8754  0.3775  1.4580
 7267TIP3    H243217   6.361   0.861  12.996  0.2380  0.1139 -0.5465
 7268TIP3   OH243218   6.469   5.160   3.377  0.1574  0.0599  0.6198
 7268TIP3    H143219   6.454   5.137   3.286  2.5520  0.4066  0.0739
 7268TIP3    H243220   6.441   5.251   3.384  0.8351  0.3321 -0.0406
 7269TIP3   OH243221   1.726   6.599  15.538  0.4212 -0.4449  0.0548
 7269TIP3    H143222   1.717   6.691  15.562 -2.0404 -0.8765  1.0815
 7269TIP3    H243223   1.651   6.582  15.482  1.8059 -1.4498 -1.6016
 7270TIP3   OH243224   3.184   6.382   4.910 -0.1667 -0.3417  0.8437
 7270TIP3    H143225   3.277   6.359   4.908 -0.0228  0.2396  0.8363
 7270TIP3    H243226   3.167   6.418   4.823 -0.1032  0.6870  1.2427
 7271TIP3   OH243227   2.499   3.564  11.827 -0.0708  0.9406 -0.1719
 7271TIP3    H143228   2.485   3.655  11.802  1.1365  1.1587 -0.1165
 7271TIP3    H243229   2.591   3.547  11.806  0.2025  0.2703  1.4089
 7272TIP3   OH243230   6.746   2.318  11.215 -0.0244 -0.3885 -0.6503
 7272TIP3    H143231   6.670   2.329  11.158 -0.0491 -1.0059 -0.7403
 7272TIP3    H243232   6.717   2.352  11.300 -0.3009 -0.3422 -0.7621
 7273TIP3   OH243233   6.336   1.703   6.254 -0.1213  0.2305 -0.7365
 7273TIP3    H143234   6.379   1.787   6.238  1.8957 -0.6202 -0.1545
 7273TIP3    H243235   6.290   1.715   6.337  2.9249 -0.1338  1.1534
 7274TIP3   OH243236   6.378   0.166  11.187  0.1017 -0.2882 -0.0215
 7274TIP3    H143237   6.450   0.173  11.249  0.0436 -1.3617  0.1909
 7274TIP3    H243238   6.314   0.231  11.216 -0.2863 -1.3221  1.5632
 7275TIP3   OH243239   6.403   5.426  14.331 -0.5053  0.8884 -0.6884
 7275TIP3    H143240   6.410   5.507  14.382  0.9310  0.3455  0.0288
 7275TIP3    H243241   6.444   5.449  14.247  1.6950  0.4329  0.1772
 7276TIP3   OH243242   0.561   5.802   1.739 -0.2376  0.4674 -0.1036
 7276TIP3    H143243   0.538   5.766   1.653 -0.3960 -0.6470  0.3925
 7276TIP3    H243244   0.579   5.725   1.793  2.0362  1.1727  0.2797
 7277TIP3   OH243245   0.151   3.705  11.051  0.6480 -0.2586 -0.4466
 7277TIP3    H143246   0.068   3.705  11.002 -0.2972  2.6320  0.9201
 7277TIP3    H243247   0.216   3.730  10.985 -0.2489  1.3850 -0.7783
 7278TIP3   OH243248   1.105   2.050   0.874  0.2871 -0.2602 -0.4880
 7278TIP3    H143249   1.102   2.042   0.970  0.7932 -0.5366 -0.4864
 7278TIP3    H243250   1.027   2.098   0.851 -0.3124 -0.9804 -0.0133
 7279TIP3   OH243251   2.420   5.171   0.309  0.1664  0.7901 -0.0711
 7279TIP3    H143252   2.498   5.212   0.271  0.5238  0.5969  0.4527
 7279TIP3    H243253   2.351   5.238   0.300  0.0689  0.5064 -1.6504
 7280TIP3   OH243254   0.951   1.121   0.700 -0.2993  0.7361  0.3316
 7280TIP3    H143255   1.032   1.133   0.750  0.0901 -0.2937 -0.0282
 7280TIP3    H243256   0.908   1.047   0.742  0.0432 -0.1630 -0.8517
 7281TIP3   OH243257   0.982   0.304   1.429 -0.0094  0.2137 -0.6497
 7281TIP3    H143258   0.936   0.352   1.497  1.3399  0.2949  0.2368
 7281TIP3    H243259   0.937   0.219   1.425  1.4475 -0.8247  2.2155
 7282TIP3   OH243260   0.842   2.469   1.941 -0.5790 -0.1356 -0.7016
 7282TIP3    H143261   0.933   2.474   1.913 -0.8734 -1.3129 -2.0183
 7282TIP3    H243262   0.832   2.380   1.975 -0.7074  0.6835  1.6330
 7283TIP3   OH243263   5.281   2.878   1.597 -0.3776 -0.0640  0.0295
 7283TIP3    H143264   5.296   2.972   1.587  1.6090 -0.5064 -1.8248
 7283TIP3    H243265   5.360   2.837   1.561 -0.8029 -2.4430  1.6104
 7284TIP3   OH243266   3.295   0.576  16.597  0.0611 -0.2235  0.0498
 7284TIP3    H143267   3.312   0.559  16.505  2.2256 -0.6542  0.4805
 7284TIP3    H243268   3.323   0.496  16.642 -0.6352  0.1070  1.1223
 7285TIP3   OH243269   0.593   2.632  15.880 -0.4174  0.5474  0.6404
 7285TIP3    H143270   0.579   2.705  15.940  0.8146  1.5956 -0.2851
 7285TIP3    H243271   0.650   2.668  15.812 -1.4860 -0.6867 -0.9896
 7286TIP3   OH243272   2.742   2.227   2.736  0.0881 -0.0382 -0.0958
 7286TIP3    H143273   2.762   2.136   2.759  1.5507 -0.0258 -1.2136
 7286TIP3    H243274   2.682   2.256   2.805  1.5947 -1.0381  1.7148
 7287TIP3   OH243275   0.796   6.537   4.901 -0.1929 -0.2877 -0.2046
 7287TIP3    H143276   0.824   6.486   4.825  0.2404 -0.1916 -0.1122
 7287TIP3    H243277   0.845   6.500   4.974  1.7151  1.5752 -0.4530
 7288TIP3   OH243278   0.188   0.213  15.758 -0.6518 -0.4876 -0.4651
 7288TIP3    H143279   0.111   0.262  15.730 -1.0256 -1.2678 -0.8163
 7288TIP3    H243280   0.155   0.127  15.783 -0.5690  0.4953  3.6688
 7289TIP3   OH243281   6.434   2.998   2.378  0.1044  0.3103 -0.7014
 7289TIP3    H143282   6.437   2.915   2.330 -0.1166  0.3529 -0.7895
 7289TIP3    H243283   6.383   3.057   2.322 -1.1277  0.0239  0.0754
 7290TIP3   OH243284   2.378   2.909  12.714  0.3126 -0.2221  0.3449
 7290TIP3    H143285   2.421   2.904  12.799  1.7312  1.3425 -0.2226
 7290TIP3    H243286   2.449   2.923  12.652 -0.7055 -1.1820 -1.1000
 7291TIP3   OH243287   3.600   6.549  15.437 -0.3421  0.1095  0.2610
 7291TIP3    H143288   3.570   6.496  15.363  2.1391 -0.8795 -0.1626
 7291TIP3    H243289   3.598   6.639  15.404  3.3281 -0.4642 -2.2624
 7292TIP3   OH243290   2.348   3.227  10.818  0.0269 -0.2414 -0.2284
 7292TIP3    H143291   2.300   3.290  10.872  0.3993 -1.8843  2.1480
 7292TIP3    H243292   2.289   3.208  10.745 -2.4593 -1.2264  1.9073
 7293TIP3   OH243293   6.346   6.474  16.809  0.9397  0.0423  0.1549
 7293TIP3    H143294   6.348   6.562  16.771  1.8525 -0.2824 -0.5823
 7293TIP3    H243295   6.395   6.482  16.891  0.8182  0.2693  0.2064
 7294TIP3   OH243296   1.126   4.232  10.823 -0.0595  0.4266  0.2198
 7294TIP3    H143297   1.162   4.304  10.770  0.2407 -0.3262 -0.6231
 7294TIP3    H243298   1.049   4.270  10.865 -2.3609  0.2509 -3.3585
 7295TIP3   OH243299   5.223   6.271  13.995  0.4093 -0.5125  0.5232
 7295TIP3    H143300   5.189   6.324  14.067  0.6948 -1.2585  1.2278
 7295TIP3    H243301   5.234   6.332  13.922  0.3609  0.3116  1.1970
 7296TIP3   OH243302   0.315   5.789  12.191 -0.1406  1.1368  0.2127
 7296TIP3    H143303   0.292   5.880  12.168 -0.5835  0.8478 -0.5121
 7296TIP3    H243304   0.379   5.798  12.262 -0.4353  2.0118  0.3830
 7297TIP3   OH243305   1.167   0.478   5.373 -0.1303 -0.5553 -0.1258
 7297TIP3    H143306   1.207   0.401   5.413 -0.3845 -0.2015  0.8412
 7297TIP3    H243307   1.076   0.476   5.401 -0.1814  0.0003 -0.2294
 7298TIP3   OH243308   4.980   3.057  16.632  0.1120  0.0855  0.3947
 7298TIP3    H143309   4.940   2.986  16.683 -0.0271  0.3067  0.5915
 7298TIP3    H243310   5.019   3.115  16.697 -2.0477  1.6199  0.4322
 7299TIP3   OH243311   2.144   5.012  15.569  0.4030  0.0991  0.3988
 7299TIP3    H143312   2.067   4.983  15.520  0.6981  0.8326 -0.5254
 7299TIP3    H243313   2.184   5.079  15.514  0.6561  1.0943  1.7325
 7300TIP3   OH243314   6.301   2.600  10.342  0.2639  0.3275  0.2636
 7300TIP3    H143315   6.221   2.567  10.302  0.3202 -0.4249  0.7680
 7300TIP3    H243316   6.308   2.554  10.425 -1.5453  4.1074  2.7825
 7301TIP3   OH243317   5.987   1.127   1.932 -0.1823  0.1027  0.2557
 7301TIP3    H143318   6.006   1.062   1.999  1.6985  0.8147  0.4788
 7301TIP3    H243319   6.072   1.146   1.892 -0.9420  1.2094 -0.9224
 7302TIP3   OH243320   5.770   5.038   1.469  0.5429 -0.6443  0.2370
 7302TIP3    H143321   5.823   5.112   1.497  0.9133 -0.9445  0.3415
 7302TIP3    H243322   5.731   5.004   1.549 -1.4524  0.7998 -0.0526
 7303TIP3   OH243323   2.812   1.993   2.844 -0.8661 -0.3651 -0.0490
 7303TIP3    H143324   2.803   1.942   2.924  2.3633 -0.0700  0.6515
 7303TIP3    H243325   2.824   1.928   2.774 -0.2341 -0.6045  0.2787
 7304TIP3   OH243326   6.604   3.621   1.531 -0.6522  0.3018  0.4238
 7304TIP3    H143327   6.669   3.683   1.497  0.9716 -1.1907  0.6954
 7304TIP3    H243328   6.541   3.611   1.460 -0.6361  1.7849  0.1614
 7305TIP3   OH243329   5.194   2.927   4.127  0.2986 -0.4459  0.2473
 7305TIP3    H143330   5.245   2.865   4.178  0.2992  0.0327  0.8434
 7305TIP3    H243331   5.170   2.996   4.189  0.4287  0.2305 -0.4258
 7306TIP3   OH243332   4.383   5.985  11.988  0.2873 -0.5186  0.0261
 7306TIP3    H143333   4.380   5.955  12.079  1.1662 -1.1400 -0.1261
 7306TIP3    H243334   4.460   5.941  11.952  1.0016  1.1147 -0.5283
 7307TIP3   OH243335   3.036   1.317   2.706 -0.0502 -0.4285  0.2307
 7307TIP3    H143336   2.941   1.316   2.709 -0.0824 -0.0912 -0.5347
 7307TIP3    H243337   3.061   1.395   2.754 -0.2392  0.4529 -1.0551
 7308TIP3   OH243338   0.728   0.048  13.959  0.4122  0.1784 -0.3080
 7308TIP3    H143339   0.817   0.073  13.983  0.6234 -1.9914  1.4915
 7308TIP3    H243340   0.679   0.130  13.961  2.2642  1.3566 -0.9445
 7309TIP3   OH243341   2.646   1.816   3.516  0.1984 -0.0065  0.1367
 7309TIP3    H143342   2.629   1.907   3.492 -2.1447 -0.7711 -1.5236
 7309TIP3    H243343   2.680   1.776   3.436 -1.3967 -1.1588 -0.0108
 7310TIP3   OH243344   0.423   6.603   5.383 -0.2078  0.2114 -0.7652
 7310TIP3    H143345   0.328   6.596   5.396  0.1731 -0.5512  2.3377
 7310TIP3    H243346   0.446   6.689   5.419  0.4535 -0.2894  0.0501
 7311TIP3   OH243347   3.578   6.704  14.030  0.5206  0.2548 -0.0219
 7311TIP3    H143348   3.651   6.749  14.073  0.5660 -0.5891  0.8179
 7311TIP3    H243349   3.591   6.612  14.052  0.3551 -0.1754 -1.5827
 7312TIP3   OH243350   4.276   0.916   2.923 -0.0815  0.4207  0.2849
 7312TIP3    H143351   4.249   1.008   2.926  0.6327  0.6277  0.7034
 7312TIP3    H243352   4.236   0.882   2.844  0.4278  1.3573 -0.4031
 7313TIP3   OH243353   4.300   4.147  16.992 -0.4286  0.5405  0.1202
 7313TIP3    H143354   4.380   4.198  16.980  0.5482 -0.8541  0.5003
 7313TIP3    H243355   4.230   4.212  16.986  0.7974  2.1002  1.5591
 7314TIP3   OH243356   6.783   3.478  14.411 -0.1382 -0.4736 -0.4431
 7314TIP3    H143357   6.822   3.553  14.365  0.8844  0.8080  2.3106
 7314TIP3    H243358   6.691   3.504  14.424 -0.1627 -0.3778 -0.7868
 7315TIP3   OH243359   4.102   2.402  12.569 -0.5562  0.6341 -0.1684
 7315TIP3    H143360   4.151   2.482  12.584 -1.0187  0.4715  2.8416
 7315TIP3    H243361   4.011   2.425  12.590 -0.3140 -1.2176  4.0284
 7316TIP3   OH243362   2.875   5.821   5.467  0.0707  0.9664 -0.0765
 7316TIP3    H143363   2.942   5.881   5.434  0.6397 -0.2077 -1.1455
 7316TIP3    H243364   2.831   5.870   5.537  0.2594  2.7503 -1.1484
 7317TIP3   OH243365   6.288   1.199  12.947  0.4014  1.0007  0.7997
 7317TIP3    H143366   6.362   1.172  13.001  0.7708  0.8818  0.2437
 7317TIP3    H243367   6.268   1.288  12.976  1.3721  1.3870  0.3063
 7318TIP3   OH243368   4.513   1.912   4.717  0.6789  0.3708  0.2353
 7318TIP3    H143369   4.479   1.840   4.664  1.9595  0.1053 -0.2677
 7318TIP3    H243370   4.519   1.986   4.656 -1.4431  1.2100  0.9460
 7319TIP3   OH243371   1.364   0.031  13.334 -0.0589 -0.3102  0.1771
 7319TIP3    H143372   1.459   0.042  13.330 -0.1793  0.7365 -0.0670
 7319TIP3    H243373   1.329   0.097  13.274 -0.9350 -0.9324 -0.0235
 7320TIP3   OH243374   0.427   0.070  15.044  1.2137 -0.1864  0.2979
 7320TIP3    H143375   0.401  -0.014  15.081  1.5243 -0.1126  0.6804
 7320TIP3    H243376   0.373   0.079  14.965  0.7697 -0.4795  0.5646
 7321TIP3   OH243377   0.427   3.095  14.579 -0.0766 -0.3136  0.3104
 7321TIP3    H143378   0.502   3.035  14.581  1.0677  1.0122  3.1770
 7321TIP3    H243379   0.369   3.063  14.648  0.4360  1.5984  1.7146
 7322TIP3   OH243380   4.403   0.857   3.304  0.4452  0.5411 -0.2142
 7322TIP3    H143381   4.493   0.830   3.286  0.2667 -0.8331  0.7866
 7322TIP3    H243382   4.406   0.953   3.303  2.3191  0.5760  1.6226
 7323TIP3   OH243383   3.780   0.680   4.030 -0.3636 -0.3476 -0.1903
 7323TIP3    H143384   3.807   0.660   3.941 -1.3978 -1.9703 -0.1797
 7323TIP3    H243385   3.805   0.603   4.081  1.4241  1.0663  1.2340
 7324TIP3   OH243386   1.093   1.989  13.338 -0.1124 -0.2702 -0.1890
 7324TIP3    H143387   1.057   2.059  13.392  2.1453 -0.3186  1.5749
 7324TIP3    H243388   1.187   2.008  13.335  0.3967 -2.5506 -0.6401
 7325TIP3   OH243389   6.543   6.632  15.443  0.1108 -0.2085 -0.0374
 7325TIP3    H143390   6.546   6.544  15.480  0.2251 -0.0758  0.2650
 7325TIP3    H243391   6.589   6.624  15.360  0.9745 -0.2111  0.4345
 7326TIP3   OH243392   3.135   3.282  16.384  0.6889  0.1496  0.9322
 7326TIP3    H143393   3.200   3.248  16.445  1.2111 -0.1073  0.2400
 7326TIP3    H243394   3.054   3.236  16.408  0.9581 -0.1852  1.2196
 7327TIP3   OH243395   3.914   4.157   5.830  0.1200  0.0979  0.0544
 7327TIP3    H143396   3.827   4.124   5.808 -1.1379  2.3092  1.3777
 7327TIP3    H243397   3.904   4.253   5.831  3.0512  0.5316 -1.6142
 7328TIP3   OH243398   2.875   5.146   4.576  0.6609  0.0164 -0.0403
 7328TIP3    H143399   2.802   5.204   4.598 -0.4078 -1.3277  0.0720
 7328TIP3    H243400   2.884   5.155   4.481 -1.6328 -1.9536 -0.5410
 7329TIP3   OH243401   5.673   3.678   0.536  0.0354  0.2014 -0.2987
 7329TIP3    H143402   5.617   3.728   0.595  0.2715  1.0160 -0.7539
 7329TIP3    H243403   5.632   3.686   0.450  0.4622  0.2078 -0.5057
 7330TIP3   OH243404   0.936   4.209   1.307  0.3667 -0.0348  0.5872
 7330TIP3    H143405   1.022   4.170   1.299  0.0517 -0.6560  0.1520
 7330TIP3    H243406   0.953   4.299   1.337  1.0406 -0.8304  2.7970
 7331TIP3   OH243407   5.464   3.694  12.689 -0.1346  0.4782  0.3819
 7331TIP3    H143408   5.550   3.657  12.673 -0.8098 -1.6980  1.4530
 7331TIP3    H243409   5.419   3.688  12.604 -0.0808 -0.8347  0.4241
 7332TIP3   OH243410   5.635   4.788  16.049 -0.3317 -0.7214  0.4373
 7332TIP3    H143411   5.568   4.802  15.982  1.4962 -1.6079 -1.7434
 7332TIP3    H243412   5.611   4.705  16.091 -1.4231 -0.2385  0.7869
 7333TIP3   OH243413   5.855   3.442   4.419  0.1438  0.6445  0.3948
 7333TIP3    H143414   5.870   3.523   4.369  0.1334  1.0121  0.9703
 7333TIP3    H243415   5.942   3.407   4.435  0.0816 -0.8579 -2.0416
 7334TIP3   OH243416   6.226   4.774   6.075 -0.2936  0.3834  0.1341
 7334TIP3    H143417   6.282   4.832   6.127  1.2120  0.7438 -1.7504
 7334TIP3    H243418   6.142   4.774   6.121 -0.1825  3.5797  0.5667
 7335TIP3   OH243419   0.161   6.736  15.810  0.0269  0.0794 -0.1711
 7335TIP3    H143420   0.219   6.736  15.887 -1.3640 -1.2000  0.9450
 7335TIP3    H243421   0.184   6.657  15.762  0.6881  0.7236 -0.9509
 7336TIP3   OH243422   3.447   1.873   5.765  0.2442  0.2983  0.2142
 7336TIP3    H143423   3.473   1.849   5.676  0.5080  1.3754 -0.0149
 7336TIP3    H243424   3.385   1.805   5.791 -0.7740  0.6227 -1.2537
 7337TIP3   OH243425   2.420   3.162   0.907  0.7952  0.1522  0.8650
 7337TIP3    H143426   2.457   3.102   0.842  0.0798 -0.2303  0.7976
 7337TIP3    H243427   2.447   3.249   0.878  1.6723 -0.1144  0.8480
 7338TIP3   OH243428   0.071   6.072  12.404 -0.2050 -0.1519  0.1016
 7338TIP3    H143429   0.082   6.142  12.468 -1.0188  0.3781 -0.3191
 7338TIP3    H243430   0.018   6.006  12.448 -0.4786  0.0584  0.0867
 7339TIP3   OH243431   1.773   5.920  16.498  0.5379  0.0222 -0.7294
 7339TIP3    H143432   1.800   6.011  16.485  0.2673  0.0620 -1.0106
 7339TIP3    H243433   1.816   5.872  16.426  0.5178 -0.0424 -0.6974
 7340TIP3   OH243434   5.520   2.521   2.793 -0.1637  0.0555  0.1359
 7340TIP3    H143435   5.591   2.485   2.739 -1.0994  1.5351 -2.2544
 7340TIP3    H243436   5.562   2.547   2.874  1.3680 -2.1312  0.1337
 7341TIP3   OH243437   4.376   1.253  14.615  0.4246 -0.6959  0.5996
 7341TIP3    H143438   4.296   1.233  14.665  1.2536 -0.5536  2.0264
 7341TIP3    H243439   4.367   1.345  14.593 -0.0393 -0.8060  0.3082
 7342TIP3   OH243440   6.071   3.150   4.863 -0.5295  0.1875 -0.4285
 7342TIP3    H143441   6.159   3.181   4.842 -0.5248  0.9525  0.6397
 7342TIP3    H243442   6.075   3.132   4.957 -1.4412 -0.0287 -0.4290
 7343TIP3   OH243443   1.964   2.857  14.286 -0.0910 -0.0190 -0.3280
 7343TIP3    H143444   1.923   2.770  14.282  1.3550 -0.7410 -0.2189
 7343TIP3    H243445   1.972   2.883  14.194  2.2617 -1.4297 -0.6162
 7344TIP3   OH243446   3.377   4.684  14.814  0.5572  0.0594 -0.2460
 7344TIP3    H143447   3.339   4.608  14.856 -1.7014  1.9025  1.2590
 7344TIP3    H243448   3.427   4.727  14.883  0.0823  1.0207 -0.4866
 7345TIP3   OH243449   2.467   2.679  12.582  0.1498 -0.1648 -0.0052
 7345TIP3    H143450   2.437   2.740  12.649  0.3716  0.8132 -0.7723
 7345TIP3    H243451   2.505   2.606  12.631 -2.4116 -0.9314  0.9733
 7346TIP3   OH243452   3.112   3.775   2.427 -0.1613 -0.1302 -0.0468
 7346TIP3    H143453   3.201   3.783   2.394 -0.0197 -0.6023  0.1988
 7346TIP3    H243454   3.101   3.851   2.485 -0.2239  0.3961 -0.7346
 7347TIP3   OH243455   1.736   6.499  11.900 -0.3670  0.3988 -0.2174
 7347TIP3    H143456   1.818   6.501  11.949 -0.2660  1.7421 -0.3989
 7347TIP3    H243457   1.692   6.581  11.925 -2.3254 -0.9309  0.9813
 7348TIP3   OH243458   3.212   2.085   4.609 -0.6618  0.2769  0.3877
 7348TIP3    H143459   3.217   2.027   4.533  1.4480  1.1138 -0.1775
 7348TIP3    H243460   3.217   2.026   4.685  1.9282 -0.3285 -0.1720
 7349TIP3   OH243461   0.036   0.159  16.484  0.2503 -0.2492  0.0386
 7349TIP3    H143462   0.128   0.130  16.487 -0.0885 -1.3575  0.1572
 7349TIP3    H243463   0.028   0.203  16.399  1.1680  0.8611  0.5021
 7350TIP3   OH243464   2.152   4.184   0.900 -0.0871  0.5928  0.0641
 7350TIP3    H143465   2.063   4.164   0.930 -0.1251  2.1078  1.1039
 7350TIP3    H243466   2.147   4.274   0.868  1.0363  0.6263 -0.0703
 7351TIP3   OH243467   1.121   3.306  13.826  0.5908 -0.3251  0.2416
 7351TIP3    H143468   1.189   3.313  13.893  1.1129 -1.3977 -0.1582
 7351TIP3    H243469   1.118   3.212  13.805 -2.3517 -0.6497  1.6406
 7352TIP3   OH243470   0.009   1.882  13.573 -1.0816 -0.0971  0.2534
 7352TIP3    H143471   0.044   1.820  13.509 -0.8528  0.9903 -0.7171
 7352TIP3    H243472   0.078   1.889  13.639 -0.9904 -0.6527  0.2225
 7353TIP3   OH243473   5.647   3.826  13.467 -0.5831  0.7056 -0.3771
 7353TIP3    H143474   5.580   3.889  13.439  0.3185  2.1489  0.6233
 7353TIP3    H243475   5.711   3.878  13.514  0.8247 -0.7889 -0.5531
 7354TIP3   OH243476   0.498   2.867  13.362  0.3317 -0.5014 -0.4962
 7354TIP3    H143477   0.468   2.776  13.361  1.2639 -0.8799  1.0956
 7354TIP3    H243478   0.453   2.906  13.437  1.2347 -0.1589 -0.1130
 7355TIP3   OH243479   1.007   3.357  13.062 -0.0325  0.4628 -0.2433
 7355TIP3    H143480   0.973   3.336  12.975  1.2147  0.3259 -0.7218
 7355TIP3    H243481   1.095   3.389  13.046 -0.2071  1.5808  0.8877
 7356TIP3   OH243482   0.435   5.197   5.658 -0.2669 -0.1823 -0.1832
 7356TIP3    H143483   0.354   5.237   5.688  0.4892  2.3458 -1.2379
 7356TIP3    H243484   0.482   5.175   5.739 -0.6185  1.4151  0.5034
 7357TIP3   OH243485   2.646   6.661   1.752  0.3312  0.1754 -0.0975
 7357TIP3    H143486   2.708   6.592   1.776  1.0934  1.6862  2.6335
 7357TIP3    H243487   2.562   6.616   1.747  0.8529 -1.0570  1.2991
 7358TIP3   OH243488   1.350   2.363   3.970  0.5089 -0.2230 -0.0579
 7358TIP3    H143489   1.266   2.393   4.006  0.0994  0.0143 -1.1785
 7358TIP3    H243490   1.372   2.427   3.903  1.8862  0.0233  0.5861
 7359TIP3   OH243491   5.998   3.371  11.994 -0.0038  0.0462 -0.2566
 7359TIP3    H143492   5.956   3.293  12.032  0.3103  1.4915  3.4379
 7359TIP3    H243493   6.073   3.336  11.946  0.8702 -2.0006  2.3036
 7360TIP3   OH243494   3.720   0.981  15.635  0.6704 -0.0575 -0.2818
 7360TIP3    H143495   3.739   0.907  15.578 -0.6914 -0.7935  0.1823
 7360TIP3    H243496   3.652   1.031  15.589 -1.2805 -1.2721  1.1016
 7361TIP3   OH243497   3.075   3.497  12.404  0.3475  0.6457 -0.1170
 7361TIP3    H143498   3.106   3.492  12.313  2.1590 -1.5519  0.5236
 7361TIP3    H243499   3.025   3.578  12.408 -0.9276  0.1625 -3.4045
 7362TIP3   OH243500   0.360   5.751   6.149 -0.0272  0.2143  0.2417
 7362TIP3    H143501   0.357   5.838   6.110  0.3192 -0.4741 -1.4306
 7362TIP3    H243502   0.268   5.724   6.154 -0.0190 -0.4856 -2.1404
 7363TIP3   OH243503   0.079   0.544  10.376  0.6229 -0.5044  0.0832
 7363TIP3    H143504   0.148   0.485  10.404 -0.8428 -1.4250  1.9662
 7363TIP3    H243505  -0.001   0.491  10.377 -0.1366  0.4495 -2.2610
 7364TIP3   OH243506   2.708   1.855  11.573 -0.1353  0.1872 -0.4321
 7364TIP3    H143507   2.770   1.909  11.622  0.1474  0.6497 -1.2626
 7364TIP3    H243508   2.628   1.855  11.626  0.8833 -1.2979  1.1907
 7365TIP3   OH243509   4.225   2.082   5.307  0.2933 -0.6146  0.1176
 7365TIP3    H143510   4.170   2.095   5.384 -0.9132 -1.0738 -0.6397
 7365TIP3    H243511   4.308   2.049   5.341  0.1393  0.1812  1.2905
 7366TIP3   OH243512   2.622   0.672  16.567  0.4171  0.0339  0.0377
 7366TIP3    H143513   2.706   0.627  16.559  0.1425 -0.5893  0.5311
 7366TIP3    H243514   2.599   0.664  16.660  1.1300  2.6138  0.5278
 7367TIP3   OH243515   2.286   2.041  11.818  0.6305  0.4773  0.2123
 7367TIP3    H143516   2.240   2.095  11.882  0.2205 -2.5394  2.7126
 7367TIP3    H243517   2.271   2.085  11.734  0.2568  4.0621  1.9666
 7368TIP3   OH243518   3.932   6.597   3.295 -0.4382  0.8137  0.1616
 7368TIP3    H143519   3.933   6.501   3.293  2.3309  0.7297  1.6384
 7368TIP3    H243520   3.848   6.620   3.254 -1.5809 -2.2244  0.4883
 7369TIP3   OH243521   2.010   2.422  12.507 -0.6354 -0.5718 -0.8815
 7369TIP3    H143522   2.040   2.362  12.575 -1.7077  2.8747  3.1119
 7369TIP3    H243523   2.088   2.473  12.485 -0.5453 -0.9184 -1.3756
 7370TIP3   OH243524   4.333   1.034   5.125  0.4014  0.0111 -0.3979
 7370TIP3    H143525   4.272   1.010   5.055  3.0363 -2.3851 -2.0858
 7370TIP3    H243526   4.399   0.964   5.124  3.2511  2.4637  1.2252
 7371TIP3   OH243527   0.774   2.273  15.562 -0.4235  0.1201  0.5122
 7371TIP3    H143528   0.822   2.191  15.569  0.7287  0.6599 -0.6732
 7371TIP3    H243529   0.816   2.331  15.625  0.3464  0.5174 -0.3512
 7372TIP3   OH243530   0.651   6.067  14.111  0.2299  0.2684 -0.1438
 7372TIP3    H143531   0.624   6.148  14.068 -0.8085  0.9137  1.6153
 7372TIP3    H243532   0.593   6.059  14.187  2.0622 -0.6772  1.2583
 7373TIP3   OH243533   1.824   3.437  12.426  0.5573  0.1130  0.0346
 7373TIP3    H143534   1.836   3.526  12.391  1.6016 -0.6216 -1.5820
 7373TIP3    H243535   1.883   3.433  12.501 -0.2269  1.0764  0.7307
 7374TIP3   OH243536   2.504   2.519  12.003 -0.3550 -0.2909 -0.0189
 7374TIP3    H143537   2.574   2.538  11.941  0.7044 -2.2394  0.4924
 7374TIP3    H243538   2.456   2.446  11.963 -3.1185  1.9556 -1.0755
 7375TIP3   OH243539   1.337   5.022   0.570  0.3783 -0.7557 -0.1196
 7375TIP3    H143540   1.245   5.048   0.574  0.2896 -1.0249 -0.3198
 7375TIP3    H243541   1.372   5.040   0.657 -0.2709 -2.1401  0.4491
 7376TIP3   OH243542   0.334   5.182  14.534  0.4061 -0.3993 -0.5641
 7376TIP3    H143543   0.358   5.139  14.452  0.7516 -0.2196 -0.5584
 7376TIP3    H243544   0.249   5.144  14.558  0.9427 -1.4451 -0.2921
 7377TIP3   OH243545   4.447   5.226  12.172 -0.2865 -0.1916 -0.3089
 7377TIP3    H143546   4.499   5.196  12.247  0.8695  2.0233 -0.1204
 7377TIP3    H243547   4.356   5.213  12.199  0.0493  1.6352  2.0511
 7378TIP3   OH243548   0.560   6.619   2.767  0.5510 -0.4458  0.1489
 7378TIP3    H143549   0.553   6.581   2.855  1.4180 -0.1048  0.3743
 7378TIP3    H243550   0.611   6.699   2.780 -0.8344  0.5580 -0.3969
 7379TIP3   OH243551   1.430   2.649  14.390  0.2699  0.0577 -0.1697
 7379TIP3    H143552   1.401   2.619  14.303  1.2266 -2.1138  0.2184
 7379TIP3    H243553   1.389   2.735  14.399 -1.0955 -0.3030 -2.1421
 7380TIP3   OH243554   0.328   1.726  12.760 -0.0951 -0.6522  0.1003
 7380TIP3    H143555   0.233   1.719  12.767 -0.2652  0.4197 -0.8922
 7380TIP3    H243556   0.350   1.806  12.808  0.0282  0.3339 -1.5354
 7381TIP3   OH243557   3.768   5.117   4.092 -0.1950  0.2016 -0.1746
 7381TIP3    H143558   3.843   5.171   4.068 -1.0613  2.0119  1.0115
 7381TIP3    H243559   3.787   5.032   4.053  2.5624  0.5263  0.2321
 7382TIP3   OH243560   3.367   5.058   4.325 -0.5921 -0.3438  0.0317
 7382TIP3    H143561   3.350   5.114   4.400  1.9614  1.7214 -0.7985
 7382TIP3    H243562   3.301   5.084   4.260 -1.2654 -0.4114  0.6759
 7383TIP3   OH243563   6.522   2.173  12.950 -0.3054 -0.1734  0.1632
 7383TIP3    H143564   6.564   2.121  13.019 -0.5307 -1.4416 -0.6307
 7383TIP3    H243565   6.491   2.251  12.995 -0.0089 -0.7485  1.4068
 7384TIP3   OH243566   6.115   2.192   4.133  0.4886 -0.4742 -0.2397
 7384TIP3    H143567   6.151   2.118   4.181 -0.2384 -0.8582 -0.2712
 7384TIP3    H243568   6.032   2.160   4.097 -0.0537  0.4840  0.1146
 7385TIP3   OH243569   3.684   3.174  16.064  0.6033 -0.1556  0.2725
 7385TIP3    H143570   3.606   3.119  16.066  0.3276  0.2212  0.1363
 7385TIP3    H243571   3.723   3.165  16.151  0.5190 -0.5009  0.2768
 7386TIP3   OH243572   4.422   5.556  14.601 -0.4384  0.0449  0.3185
 7386TIP3    H143573   4.406   5.485  14.539  0.5488  0.4802 -0.4681
 7386TIP3    H243574   4.390   5.635  14.556  1.3651  0.5399 -0.1918
 7387TIP3   OH243575   4.005   5.019  14.715  0.2496 -0.5493  0.7335
 7387TIP3    H143576   3.945   4.956  14.754 -1.4977  1.1679  1.0226
 7387TIP3    H243577   4.037   5.071  14.789 -1.5753  1.4724  0.2448
 7388TIP3   OH243578   5.415   1.526   0.333 -0.0593 -0.6438 -0.2683
 7388TIP3    H143579   5.404   1.470   0.256 -1.3484 -1.7915  0.6940
 7388TIP3    H243580   5.326   1.544   0.363  0.4042 -1.1557  1.5877
 7389TIP3   OH243581   6.339   2.554   5.180 -0.0638 -0.6570  0.4077
 7389TIP3    H143582   6.359   2.507   5.261 -0.1647  0.2333  0.9663
 7389TIP3    H243583   6.406   2.623   5.175 -0.0091 -0.7540 -0.3137
 7390TIP3   OH243584   0.436   3.260   1.275 -0.3696 -0.2195 -0.0660
 7390TIP3    H143585   0.484   3.222   1.349 -0.0231  2.5888  1.2630
 7390TIP3    H243586   0.353   3.290   1.313  0.3051  2.3560 -0.4463
 7391TIP3   OH243587   6.309   1.408   5.552 -0.3155 -0.5425 -0.3261
 7391TIP3    H143588   6.405   1.411   5.557 -0.2467 -2.4759  0.6373
 7391TIP3    H243589   6.287   1.319   5.582 -2.4494  0.1076  0.1692
 7392TIP3   OH243590   1.444   4.353  13.596  0.2965 -0.1369  0.0481
 7392TIP3    H143591   1.501   4.422  13.562  1.1078 -0.0014  1.5647
 7392TIP3    H243592   1.397   4.394  13.669  0.2970 -0.9830  0.5476
 7393TIP3   OH243593   2.800   4.897  14.727  0.5243  0.3322  0.2549
 7393TIP3    H143594   2.707   4.892  14.749  0.5808 -1.5355  0.2260
 7393TIP3    H243595   2.821   4.990  14.734 -1.9193  1.2016 -2.1472
 7394TIP3   OH243596   6.585   2.439   2.038  0.6701  0.0178  0.2085
 7394TIP3    H143597   6.669   2.483   2.035 -0.5901  2.5488 -0.4574
 7394TIP3    H243598   6.549   2.449   1.950 -0.7056 -0.2521  0.7156
 7395TIP3   OH243599   4.350   2.318  15.628  0.1077  0.5191  0.1002
 7395TIP3    H143600   4.267   2.340  15.586  0.8558 -0.6248 -2.1276
 7395TIP3    H243601   4.328   2.243  15.684 -0.8122  1.7772  1.4986
 7396TIP3   OH243602   4.782   0.201   3.671  0.3196  0.1182  0.5824
 7396TIP3    H143603   4.756   0.265   3.604  1.2817  0.2212  0.3027
 7396TIP3    H243604   4.828   0.252   3.737 -0.5099 -0.0091  1.2694
 7397TIP3   OH243605   5.271   1.788  15.822  0.0852 -0.3680  0.2933
 7397TIP3    H143606   5.323   1.713  15.850  0.7520 -0.2866 -0.7092
 7397TIP3    H243607   5.280   1.791  15.727  1.0030  1.6352  0.3797
 7398TIP3   OH243608   6.819   2.055  16.669 -0.0794  0.1279  1.0614
 7398TIP3    H143609   6.776   2.043  16.585  0.9293 -1.7015  0.7438
 7398TIP3    H243610   6.779   1.989  16.726  0.6437 -0.0176  1.4198
 7399TIP3   OH243611   6.531   1.960   1.934  0.0104  0.2727 -0.2816
 7399TIP3    H143612   6.465   1.986   1.870 -0.3547 -0.4125 -0.1866
 7399TIP3    H243613   6.569   2.043   1.964 -1.9719  0.8030  0.9291
 7400TIP3   OH243614   2.744   6.716  16.461  0.3374  0.7113  0.0689
 7400TIP3    H143615   2.824   6.712  16.513  1.3540  0.4624 -1.4620
 7400TIP3    H243616   2.765   6.773  16.387 -1.1431  1.2509  0.0225
 7401TIP3   OH243617   0.442   4.137  16.539  0.8021 -0.3895 -0.2446
 7401TIP3    H143618   0.423   4.105  16.627 -0.3069  2.2292  0.5635
 7401TIP3    H243619   0.356   4.142  16.497  0.8182  1.9271 -0.1183
 7402TIP3   OH243620   0.256   4.291   1.782  0.1979 -0.5673  0.1951
 7402TIP3    H143621   0.260   4.352   1.708 -0.2127 -2.1449 -1.1754
 7402TIP3    H243622   0.166   4.299   1.814  0.1487 -0.4735  0.0340
 7403TIP3   OH243623   1.830   4.559   4.300 -0.2169  0.3209 -0.1217
 7403TIP3    H143624   1.811   4.466   4.311 -1.2167  0.6784  1.6418
 7403TIP3    H243625   1.917   4.570   4.340  0.0565  0.1068 -0.6428
 7404TIP3   OH243626   4.861   1.550   1.702  0.2472 -0.1779  0.0736
 7404TIP3    H143627   4.809   1.569   1.624 -0.7254 -0.7990  0.5509
 7404TIP3    H243628   4.950   1.539   1.669  0.3561  2.1922 -0.5883
 7405TIP3   OH243629   6.422   4.564  14.878 -0.0124 -0.1474  0.1306
 7405TIP3    H143630   6.482   4.490  14.869 -1.5625 -1.3341 -0.7886
 7405TIP3    H243631   6.473   4.630  14.925  2.3450 -0.7317 -1.4062
 7406TIP3   OH243632   2.293   6.661   0.875  0.6866  0.1013 -0.0802
 7406TIP3    H143633   2.306   6.633   0.785  1.8682 -0.2060  0.1635
 7406TIP3    H243634   2.246   6.744   0.868  0.5184 -0.0603 -0.9630
 7407TIP3   OH243635   0.393   3.009  11.021 -0.1095  0.2381 -0.0848
 7407TIP3    H143636   0.351   2.932  10.983  2.8309 -1.4715 -0.1328
 7407TIP3    H243637   0.338   3.032  11.095 -2.9326  0.2664 -2.0320
 7408TIP3   OH243638   0.566   2.608  15.370 -0.4801  0.6727  0.0980
 7408TIP3    H143639   0.639   2.612  15.308  2.4688 -0.8746  3.0821
 7408TIP3    H243640   0.503   2.548  15.329  1.4692 -0.5537 -1.3131
 7409TIP3   OH243641   5.068   2.654   3.439 -0.0292  0.3552 -0.4735
 7409TIP3    H143642   5.130   2.653   3.365  0.1506  1.0689 -0.3424
 7409TIP3    H243643   5.124   2.661   3.516 -0.2256 -0.2432 -0.2691
 7410TIP3   OH243644   1.149   4.908  15.141 -0.3015 -0.1090  0.2595
 7410TIP3    H143645   1.181   4.867  15.221 -0.5549 -1.4155 -0.2766
 7410TIP3    H243646   1.170   4.845  15.072 -0.1949  0.9412 -0.6825
 7411TIP3   OH243647   4.662   5.886  15.492 -0.4918  0.3336  0.8964
 7411TIP3    H143648   4.715   5.828  15.546  1.7821  1.1922 -0.2796
 7411TIP3    H243649   4.596   5.920  15.552  0.8965 -0.0169  2.7237
 7412TIP3   OH243650   5.260   2.292   1.113  0.3186 -0.2692 -0.1692
 7412TIP3    H143651   5.177   2.298   1.160  0.7835 -1.5333  0.8825
 7412TIP3    H243652   5.312   2.365   1.146 -0.2673  0.3811 -0.6537
 7413TIP3   OH243653   1.934   5.208  15.538 -0.5219 -0.2765 -0.4583
 7413TIP3    H143654   1.933   5.303  15.528 -1.8956 -0.0638  1.1217
 7413TIP3    H243655   1.960   5.194  15.629 -2.8652 -1.2229  0.1547
 7414TIP3   OH243656   3.102   5.007  14.922 -0.0300 -0.2305  0.5866
 7414TIP3    H143657   3.129   5.009  14.830  1.2617 -1.6008  0.8947
 7414TIP3    H243658   3.184   4.996  14.970 -0.8007 -0.7305  1.8269
 7415TIP3   OH243659   5.755   0.046   4.637 -0.3427 -0.1605  0.0406
 7415TIP3    H143660   5.681   0.058   4.577 -0.3665 -0.4519  0.0129
 7415TIP3    H243661   5.816  -0.010   4.590  0.5407  1.1914 -0.5051
 7416TIP3   OH243662   2.491   6.650  16.551 -0.1850 -0.3903 -0.0269
 7416TIP3    H143663   2.498   6.688  16.639  0.6244 -0.7729  0.0784
 7416TIP3    H243664   2.581   6.645  16.520 -0.2311 -2.4451  0.0602
 7417TIP3   OH243665   1.162   4.178   2.145  0.0058  0.1858 -0.8164
 7417TIP3    H143666   1.110   4.241   2.194  0.6758  0.1191  0.0039
 7417TIP3    H243667   1.098   4.119   2.106 -0.5214 -0.5183  1.0157
 7418TIP3   OH243668   3.935   5.689  11.278 -0.1992  0.8458 -0.0625
 7418TIP3    H143669   3.938   5.785  11.289 -0.6005  0.9411 -0.7433
 7418TIP3    H243670   3.890   5.676  11.195  0.7919  0.0913 -0.5094
 7419TIP3   OH243671   3.072   3.602   5.066 -0.0930 -0.3583 -0.1743
 7419TIP3    H143672   3.152   3.654   5.077  0.9097 -1.2692 -2.6231
 7419TIP3    H243673   3.041   3.624   4.978 -1.6229 -1.2935  0.0955
 7420TIP3   OH243674   4.204   2.800  16.386 -0.1236  0.1316 -0.1765
 7420TIP3    H143675   4.213   2.748  16.306  1.8613 -0.4192  0.3617
 7420TIP3    H243676   4.262   2.757  16.449 -1.1374  0.9458  1.3783
 7421TIP3   OH243677   6.276   1.063  11.055 -0.0342  0.1998 -0.2055
 7421TIP3    H143678   6.287   0.980  11.102  0.3580  0.6594  0.5526
 7421TIP3    H243679   6.199   1.050  11.001 -0.8902 -0.1548  1.0553
 7422TIP3   OH243680   2.340   1.802  15.733  0.0054 -0.3097  0.2356
 7422TIP3    H143681   2.432   1.813  15.710  0.1457 -0.3255  0.7890
 7422TIP3    H243682   2.321   1.710  15.715 -0.3701  0.0707 -1.5210
 7423TIP3   OH243683   5.952   0.513   0.091 -0.2915  0.1959 -0.3883
 7423TIP3    H143684   6.029   0.467   0.059 -0.0404 -0.0719  0.5726
 7423TIP3    H243685   5.986   0.595   0.128 -0.4298 -0.0321  0.2568
 7424TIP3   OH243686   4.691   1.004  12.807  0.2380 -0.5997  0.4888
 7424TIP3    H143687   4.689   0.909  12.823 -1.8995 -0.8170 -0.6297
 7424TIP3    H243688   4.771   1.018  12.756  1.9484 -1.3572  2.8241
 7425TIP3   OH243689   3.629   1.416  13.737  0.0554  0.0904 -0.4250
 7425TIP3    H143690   3.651   1.466  13.816 -1.3181 -0.6078  0.4412
 7425TIP3    H243691   3.552   1.460  13.701  0.6860  0.4191 -1.4176
 7426TIP3   OH243692   3.386   6.064  12.507 -0.4917  0.0297  0.1838
 7426TIP3    H143693   3.419   5.985  12.464  0.7982 -0.5315  2.0513
 7426TIP3    H243694   3.447   6.132  12.481 -0.5504  0.0089 -0.0085
 7427TIP3   OH243695   4.703   1.147   4.510  0.7923  0.2695  0.2174
 7427TIP3    H143696   4.754   1.161   4.590  1.3706 -0.8009  0.0540
 7427TIP3    H243697   4.745   1.072   4.468  0.6606  0.9875 -1.2410
 7428TIP3   OH243698   2.535   0.045  13.921 -0.0657  0.6449  0.1809
 7428TIP3    H143699   2.606   0.015  13.978  1.1098  1.9965 -0.5033
 7428TIP3    H243700   2.480   0.099  13.978  0.7306  1.4434  0.2071
 7429TIP3   OH243701   5.504   6.751  14.721  0.8047  0.2158  0.3914
 7429TIP3    H143702   5.596   6.733  14.699  0.5007 -0.5737 -0.3076
 7429TIP3    H243703   5.488   6.700  14.800  0.7781 -0.2149  0.1110
 7430TIP3   OH243704   0.924   2.696   4.081  0.5876 -0.0184  0.6793
 7430TIP3    H143705   0.828   2.695   4.088  0.3619  1.2558 -1.4545
 7430TIP3    H243706   0.945   2.783   4.048  2.4341 -0.5198  0.4208
 7431TIP3   OH243707   2.280   0.279  11.180  0.1686 -0.1899 -0.0873
 7431TIP3    H143708   2.367   0.301  11.146  1.3182 -0.3261  2.5175
 7431TIP3    H243709   2.296   0.251  11.270 -2.6823  0.5695  0.7645
 7432TIP3   OH243710   2.678   0.640   4.433 -0.3053 -0.4838 -0.0679
 7432TIP3    H143711   2.609   0.592   4.479 -0.4301 -1.1560 -0.9393
 7432TIP3    H243712   2.701   0.584   4.359 -0.6399  0.9242 -1.2709
 7433TIP3   OH243713   6.766   5.846   3.801 -0.0096 -0.2041  0.1850
 7433TIP3    H143714   6.699   5.868   3.736  0.9476  0.1095 -0.7164
 7433TIP3    H243715   6.748   5.755   3.824  0.0258 -0.5324 -1.0190
 7434TIP3   OH243716   0.623   1.752   3.993 -0.1242  0.1839  0.0351
 7434TIP3    H143717   0.613   1.734   3.899  0.4470  4.2172 -1.0298
 7434TIP3    H243718   0.535   1.743   4.028 -0.2806 -1.7786 -0.7747
 7435TIP3   OH243719   3.317   0.266   6.046  0.0617 -0.1725  0.7397
 7435TIP3    H143720   3.242   0.207   6.059 -0.5390  0.4374  0.1696
 7435TIP3    H243721   3.389   0.209   6.023 -0.4728 -0.7084  0.3605
 7436TIP3   OH243722   4.652   3.228   0.471  0.0016 -0.5893 -0.7206
 7436TIP3    H143723   4.658   3.136   0.445 -0.0674 -0.4655 -1.1943
 7436TIP3    H243724   4.724   3.241   0.533 -0.2091 -1.0495 -0.3842
 7437TIP3   OH243725   2.860   0.112   1.650 -0.1289 -0.3121 -0.6284
 7437TIP3    H143726   2.884   0.129   1.558  0.9921  0.1997 -0.2619
 7437TIP3    H243727   2.765   0.109   1.650 -0.2424  1.7283 -1.4620
 7438TIP3   OH243728   5.277   1.886   5.268 -0.4136  0.7693 -0.4045
 7438TIP3    H143729   5.352   1.945   5.264  0.6103 -0.5343 -1.5298
 7438TIP3    H243730   5.285   1.842   5.352  1.3407 -0.8543 -1.3452
 7439TIP3   OH243731   5.890   0.097  15.751  0.2424 -0.0125  0.1027
 7439TIP3    H143732   5.906   0.009  15.783 -0.8495 -0.3735 -0.3110
 7439TIP3    H243733   5.954   0.108  15.680 -0.9953 -1.2893 -1.2717
 7440TIP3   OH243734   4.632   4.610  11.490 -0.3470  0.6900  0.0273
 7440TIP3    H143735   4.704   4.655  11.444 -1.2562  1.0343 -1.0997
 7440TIP3    H243736   4.668   4.592  11.577  2.0671 -1.4966 -1.2573
 7441TIP3   OH243737   2.375   3.838   1.318  0.3428  0.0895 -0.6901
 7441TIP3    H143738   2.471   3.840   1.312  0.2949  1.7831 -1.1568
 7441TIP3    H243739   2.353   3.901   1.386 -0.3352 -2.8490  2.0916
 7442TIP3   OH243740   4.031   5.944   0.311  0.0422 -0.5600 -0.6332
 7442TIP3    H143741   4.036   6.000   0.388 -0.6124 -0.2004 -0.8399
 7442TIP3    H243742   3.954   5.976   0.263  0.3814 -0.8348 -1.3849
 7443TIP3   OH243743   5.253   4.280   3.398  0.6084  0.2537  0.3515
 7443TIP3    H143744   5.232   4.312   3.486 -2.0161 -1.0180  0.3103
 7443TIP3    H243745   5.197   4.331   3.340 -0.7591 -1.6362 -0.0906
 7444TIP3   OH243746   5.590   5.596   5.501  0.3361  0.0906  0.1952
 7444TIP3    H143747   5.661   5.653   5.472 -1.1299  1.1343 -1.5540
 7444TIP3    H243748   5.511   5.635   5.464 -1.0621 -1.5510  1.2843
 7445TIP3   OH243749   5.825   1.240  13.994 -0.3502 -0.2373 -0.7374
 7445TIP3    H143750   5.744   1.206  13.957  0.5778 -1.7218 -1.4891
 7445TIP3    H243751   5.871   1.279  13.920  0.9152 -2.0267 -0.9595
 7446TIP3   OH243752   3.561   5.388   0.968  0.1412  0.1682  0.2193
 7446TIP3    H143753   3.522   5.460   0.919  0.4120  0.5942  0.6202
 7446TIP3    H243754   3.488   5.349   1.014 -0.0355  0.0758 -0.1368
 7447TIP3   OH243755   6.215   6.035  14.305 -0.2934  0.6330  0.1044
 7447TIP3    H143756   6.202   6.088  14.383 -0.6837 -0.3680  0.7291
 7447TIP3    H243757   6.166   5.954  14.321  0.2124  0.1100 -0.8608
 7448TIP3   OH243758   0.928   6.130  14.550 -0.5598  0.4274  0.4300
 7448TIP3    H143759   0.976   6.213  14.550 -0.1272  0.2338 -1.6619
 7448TIP3    H243760   0.913   6.111  14.457 -0.9332 -1.6710  0.8684
 7449TIP3   OH243761   3.731   4.591   6.248 -0.1070 -0.4813  0.4241
 7449TIP3    H143762   3.719   4.616   6.157 -1.3342 -0.8185  0.4723
 7449TIP3    H243763   3.734   4.496   6.248  0.3723 -0.4682  0.6808
 7450TIP3   OH243764   4.363   1.406  11.524  0.3152  0.7475 -0.0928
 7450TIP3    H143765   4.365   1.348  11.448  1.7039  0.5568  0.0634
 7450TIP3    H243766   4.277   1.391  11.564  0.4904 -0.9141 -0.2799
 7451TIP3   OH243767   0.848   5.194   1.154  0.2398 -0.3539  0.7650
 7451TIP3    H143768   0.892   5.225   1.075 -0.9692  1.6036  0.7693
 7451TIP3    H243769   0.839   5.100   1.142 -2.3531  0.1399 -2.8382
 7452TIP3   OH243770   6.348   6.399   3.216 -0.1859  0.1526  0.1285
 7452TIP3    H143771   6.433   6.403   3.172  1.0517  0.0898  2.3588
 7452TIP3    H243772   6.367   6.359   3.301 -1.9238  2.6757  1.8433
 7453TIP3   OH243773   4.645   2.739  16.698  0.3029 -0.6748 -0.0553
 7453TIP3    H143774   4.701   2.678  16.745  0.2000  0.5447  1.7480
 7453TIP3    H243775   4.558   2.726  16.736  0.5398  1.5053  1.4242
 7454TIP3   OH243776   2.034   0.667  15.214 -0.6341  0.3810 -0.0042
 7454TIP3    H143777   1.959   0.639  15.160 -0.5624  1.1545 -0.5308
 7454TIP3    H243778   2.042   0.760  15.195  0.0536  0.4382  0.5650
 7455TIP3   OH243779   0.326   2.842   4.187  0.0241  0.6123  0.5179
 7455TIP3    H143780   0.414   2.818   4.157 -0.4203 -1.6690  0.8469
 7455TIP3    H243781   0.269   2.817   4.114 -0.6203 -0.8290  1.4709
 7456TIP3   OH243782   2.827   6.288  13.219 -0.3925  0.4116 -0.3594
 7456TIP3    H143783   2.909   6.273  13.173 -1.1533 -0.7438 -1.3998
 7456TIP3    H243784   2.791   6.201  13.233 -0.3251  0.7068  2.2569
 7457TIP3   OH243785   2.809   4.915   2.483 -0.0027  0.0945 -0.3004
 7457TIP3    H143786   2.785   4.982   2.547  0.2590 -1.4748  1.5315
 7457TIP3    H243787   2.734   4.854   2.484  0.3391 -0.3440 -0.9309
 7458TIP3   OH243788   1.942   3.614   1.128  0.1679  0.6052 -0.2369
 7458TIP3    H143789   1.980   3.540   1.080  0.5326  0.2854  0.5312
 7458TIP3    H243790   2.017   3.658   1.167 -0.2156 -0.0219  1.2828
 7459TIP3   OH243791   1.780   2.450  11.481 -0.0886  0.1365  0.2684
 7459TIP3    H143792   1.802   2.386  11.548 -0.3105  1.3211  1.5071
 7459TIP3    H243793   1.692   2.425  11.452 -0.4455  0.2732  1.2236
 7460TIP3   OH243794   5.274   6.091  15.866  0.0348  0.0677  0.2115
 7460TIP3    H143795   5.337   6.046  15.809 -0.7134  1.2264 -1.6090
 7460TIP3    H243796   5.237   6.159  15.811 -2.1831 -0.0080  1.5152
 7461TIP3   OH243797   3.298   4.284   0.288 -0.4209  0.1812  0.2472
 7461TIP3    H143798   3.337   4.199   0.268  1.2693  1.1597 -0.8550
 7461TIP3    H243799   3.231   4.297   0.221  0.8876  0.6868 -0.9951
 7462TIP3   OH243800   1.329   5.419  11.129  0.2123  0.8873 -0.2933
 7462TIP3    H143801   1.379   5.476  11.070 -0.2734  0.4936 -1.1001
 7462TIP3    H243802   1.356   5.331  11.105 -0.9473  0.6621 -0.8334
 7463TIP3   OH243803   1.172   0.511  11.696 -0.0759 -0.0835 -0.3841
 7463TIP3    H143804   1.181   0.566  11.618 -1.9173 -0.3228 -0.7963
 7463TIP3    H243805   1.260   0.511  11.735  0.7561  0.4786 -2.1482
 7464TIP3   OH243806   6.158   3.862  13.985  0.6829 -0.2945 -0.3846
 7464TIP3    H143807   6.174   3.938  14.040  0.5361  0.5869 -1.5423
 7464TIP3    H243808   6.065   3.844  13.994  0.5945  0.0562 -0.6256
 7465TIP3   OH243809   6.423   0.266  12.808 -0.0622  0.8234  0.1328
 7465TIP3    H143810   6.450   0.174  12.804 -0.6529  0.6044  0.9296
 7465TIP3    H243811   6.391   0.285  12.720  1.8150  0.8427 -0.5862
 7466TIP3   OH243812   1.922   3.901  13.362  0.0985  0.1612  0.4442
 7466TIP3    H143813   1.879   3.976  13.319 -1.1749 -1.1055 -0.6142
 7466TIP3    H243814   1.990   3.874  13.300 -0.2024 -0.2392  0.2816
 7467TIP3   OH243815   3.560   1.750   3.800 -0.5650 -0.7620 -0.3390
 7467TIP3    H143816   3.476   1.704   3.792  0.0498 -2.0088  0.1711
 7467TIP3    H243817   3.625   1.681   3.806  0.0867 -0.0746  4.4024
 7468TIP3   OH243818   6.134   3.034   4.265 -0.5103  0.1199  1.1344
 7468TIP3    H143819   6.180   3.100   4.317  0.6195 -1.4800  2.2207
 7468TIP3    H243820   6.106   2.968   4.328  0.4733 -1.6373 -0.1916
 7469TIP3   OH243821   0.246   5.142  12.257 -0.0317 -0.4929  0.2540
 7469TIP3    H143822   0.172   5.109  12.308 -2.2419  1.5257 -1.4281
 7469TIP3    H243823   0.264   5.073  12.193 -0.5677 -0.9594  0.5992
 7470TIP3   OH243824   0.169   3.420   1.952 -0.1912 -0.1522 -0.5873
 7470TIP3    H143825   0.120   3.408   2.034  0.7901  1.3356  0.2549
 7470TIP3    H243826   0.239   3.354   1.957 -0.3264 -0.2854 -0.3842
 7471TIP3   OH243827   3.434   2.013   4.279  0.1512  0.0101 -1.0191
 7471TIP3    H143828   3.442   2.105   4.306  1.4721 -0.9876  2.4045
 7471TIP3    H243829   3.363   1.979   4.333  0.7718 -1.3907 -1.0690
 7472TIP3   OH243830   1.924   3.393  14.416  1.1080  0.0809 -0.2287
 7472TIP3    H143831   1.920   3.401  14.511  1.7859  0.1015 -0.2010
 7472TIP3    H243832   2.006   3.347  14.399 -0.0219 -1.9026 -0.6946
 7473TIP3   OH243833   0.400   3.102   2.191 -0.1695 -0.2742 -0.5622
 7473TIP3    H143834   0.365   3.104   2.102 -0.3821  0.8498 -0.4677
 7473TIP3    H243835   0.444   3.186   2.202  1.5576 -1.1809 -0.2602
 7474TIP3   OH243836   2.882   4.859  13.840  0.0537 -0.7434 -0.1044
 7474TIP3    H143837   2.824   4.908  13.781 -0.4110  0.5761  1.3947
 7474TIP3    H243838   2.893   4.916  13.916  2.4131 -1.4654  0.1661
 7475TIP3   OH243839   3.064   6.774  16.289  0.4888 -0.1116 -0.1904
 7475TIP3    H143840   3.068   6.705  16.223  0.7176  0.6034 -0.9481
 7475TIP3    H243841   3.000   6.837  16.255  1.6572  0.9785 -0.4647
 7476TIP3   OH243842   3.211   2.683  15.795  1.1167  0.5576  0.5614
 7476TIP3    H143843   3.212   2.775  15.767  4.2272 -0.0493 -1.9722
 7476TIP3    H243844   3.262   2.681  15.875  0.1754  1.1013  1.2020
 7477TIP3   OH243845   3.833   2.793  14.265  0.0075 -0.3381 -0.0126
 7477TIP3    H143846   3.738   2.796  14.255 -0.1624  0.3369  1.4994
 7477TIP3    H243847   3.866   2.781  14.176 -1.4368  0.7200 -0.7359
 7478TIP3   OH243848   5.655   2.296   5.756 -0.3850  0.2254 -0.0369
 7478TIP3    H143849   5.581   2.340   5.713 -1.3187  0.5132  1.7479
 7478TIP3    H243850   5.630   2.204   5.758 -0.8713  0.3606  0.8236
 7479TIP3   OH243851   0.326   0.880   3.793 -0.4901  0.1212 -0.1359
 7479TIP3    H143852   0.327   0.975   3.776  1.9928  0.8846  3.2583
 7479TIP3    H243853   0.388   0.844   3.730 -0.6635  0.8933 -0.7687
 7480TIP3   OH243854   3.230   5.386   3.383  0.8029  0.0816 -0.8789
 7480TIP3    H143855   3.171   5.454   3.354  1.7556  1.6584  0.6837
 7480TIP3    H243856   3.293   5.376   3.311  0.8625  1.1050 -0.9741
 7481TIP3   OH243857   2.761   1.477  11.853 -0.0929 -0.7462 -0.4204
 7481TIP3    H143858   2.804   1.563  11.854 -0.7728 -0.3859 -0.9748
 7481TIP3    H243859   2.750   1.455  11.946 -0.3237 -0.0197 -0.2679
 7482TIP3   OH243860   6.094   1.749  12.270 -0.2492 -0.1622 -0.0323
 7482TIP3    H143861   6.135   1.811  12.210 -0.6012  0.5947  0.4941
 7482TIP3    H243862   6.037   1.696  12.215  0.7086 -0.6058 -0.6289
 7483TIP3   OH243863   3.365   4.925  11.755  0.2362  0.1704  0.6083
 7483TIP3    H143864   3.277   4.885  11.755  0.8187 -1.3226 -2.0094
 7483TIP3    H243865   3.385   4.937  11.848 -2.5395  0.1844  1.3127
 7484TIP3   OH243866   1.823   6.529   0.335  0.0230 -0.4802  0.3322
 7484TIP3    H143867   1.752   6.494   0.282 -0.1085 -1.3226  1.0572
 7484TIP3    H243868   1.844   6.613   0.293 -2.7483  0.7830  1.2641
 7485TIP3   OH243869   2.712   1.756  13.992 -0.0130  0.3595  0.1588
 7485TIP3    H143870   2.645   1.710  13.943 -0.1407 -0.5586  1.1595
 7485TIP3    H243871   2.682   1.753  14.083  0.8067  0.9579  0.4680
 7486TIP3   OH243872   6.186   5.620  16.124  0.2969  0.1793  1.1199
 7486TIP3    H143873   6.199   5.706  16.084 -0.4100 -0.2035  0.0288
 7486TIP3    H243874   6.266   5.572  16.105 -0.6699 -0.5977 -1.4821
 7487TIP3   OH243875   0.635   1.072   1.727 -0.2305  0.2638 -0.2314
 7487TIP3    H143876   0.604   1.049   1.640 -2.2638 -1.9886  0.9534
 7487TIP3    H243877   0.565   1.125   1.764  1.1252  2.1873 -0.2964
 7488TIP3   OH243878   1.570   1.512   5.547 -0.6552  0.3661 -0.0269
 7488TIP3    H143879   1.655   1.508   5.504  1.9071  1.4390  4.2728
 7488TIP3    H243880   1.540   1.602   5.534 -0.3856  0.4066 -0.3545
 7489TIP3   OH243881   2.885   2.933   4.493 -0.1503 -0.4484  0.0312
 7489TIP3    H143882   2.813   2.913   4.432 -0.4668 -0.2500  0.3320
 7489TIP3    H243883   2.957   2.878   4.464 -1.1644 -2.5152  1.2042
 7490TIP3   OH243884   3.132   4.514   2.880 -0.2861  0.2328  0.1877
 7490TIP3    H143885   3.141   4.451   2.951 -0.6385 -0.0904 -0.0518
 7490TIP3    H243886   3.166   4.468   2.803 -2.4861 -0.4554 -0.4271
 7491TIP3   OH243887   0.714   2.683  15.626  0.1959 -0.6276 -0.1864
 7491TIP3    H143888   0.739   2.769  15.593  2.4601 -0.8211  0.8194
 7491TIP3    H243889   0.659   2.646  15.557  0.5098  0.9865 -1.3696
 7492TIP3   OH243890   4.132   0.313   5.350 -0.5379  0.2312 -0.2579
 7492TIP3    H143891   4.154   0.260   5.274 -2.3867  3.9227 -3.6826
 7492TIP3    H243892   4.062   0.371   5.320  0.7395  4.0854  3.2972
 7493TIP3   OH243893   1.677   0.342  17.027  0.1392 -0.2545 -0.7440
 7493TIP3    H143894   1.712   0.280  17.091  1.0347 -1.7979 -2.6159
 7493TIP3    H243895   1.744   0.345  16.958  0.0929  2.8146 -0.7529
 7494TIP3   OH243896   2.583   4.080  12.700  0.2738  0.5919 -0.1655
 7494TIP3    H143897   2.573   4.010  12.635 -0.4566  1.2593 -0.7983
 7494TIP3    H243898   2.627   4.150  12.652  2.1584  0.1348  0.8081
 7495TIP3   OH243899   6.309   3.317   3.213  0.6539 -0.3843  0.0271
 7495TIP3    H143900   6.234   3.323   3.273  0.1463 -1.8217 -0.4282
 7495TIP3    H243901   6.323   3.407   3.183 -0.3444  0.0388  0.7737
 7496TIP3   OH243902   5.578   1.544   5.466  0.3768 -0.3355  0.0899
 7496TIP3    H143903   5.626   1.462   5.477  0.8318 -0.1926 -0.7766
 7496TIP3    H243904   5.528   1.553   5.547  0.7449 -1.1888  0.4251
 7497TIP3   OH243905   4.054   0.653  12.339 -0.2194  0.2942 -0.1172
 7497TIP3    H143906   3.998   0.722  12.374  0.4862  0.7058  0.2292
 7497TIP3    H243907   4.133   0.699  12.310  1.3741 -0.6092  2.4301
 7498TIP3   OH243908   4.431   4.523   0.568 -0.6582  0.2219  0.4834
 7498TIP3    H143909   4.406   4.447   0.620  0.3777  0.3322  1.1660
 7498TIP3    H243910   4.444   4.488   0.480 -0.1625 -0.4057  0.7978
 7499TIP3   OH243911   1.859   5.911  11.326  0.3127  0.8071 -0.0379
 7499TIP3    H143912   1.808   5.836  11.297  1.5871  0.5947 -1.9231
 7499TIP3    H243913   1.918   5.930  11.253 -0.8073  4.4649 -0.2252
 7500TIP3   OH243914   5.790   2.999  10.570  0.7861  0.7857 -0.3176
 7500TIP3    H143915   5.761   2.919  10.526 -0.1642  1.0428 -0.1820
 7500TIP3    H243916   5.811   3.058  10.498  1.8704  0.2895 -0.4194
 7501TIP3   OH243917   1.130   0.584  13.889  0.1692 -0.6243 -0.2828
 7501TIP3    H143918   1.217   0.550  13.869  1.2528  2.1428 -0.7243
 7501TIP3    H243919   1.089   0.597  13.804 -0.1219 -0.5782 -0.1382
 7502TIP3   OH243920   6.285   0.473   6.014  0.1789  0.0768 -0.3792
 7502TIP3    H143921   6.290   0.518   5.929  2.0027  1.3025  0.3150
 7502TIP3    H243922   6.333   0.391   6.000  1.6941  0.9075 -0.1903
 7503TIP3   OH243923   6.310   5.632  14.750 -0.3645 -0.6072  0.1387
 7503TIP3    H143924   6.318   5.705  14.689  1.7357 -0.3076  0.7031
 7503TIP3    H243925   6.317   5.554  14.694 -1.3524 -0.4010 -0.3080
 7504TIP3   OH243926   1.415   6.030   5.132 -0.2717  0.2910 -0.7152
 7504TIP3    H143927   1.458   6.112   5.105  0.3385  0.0192 -0.5966
 7504TIP3    H243928   1.333   6.059   5.172  0.2388  0.9078 -0.0632
 7505TIP3   OH243929   3.279   1.445   1.985 -0.3218  0.3449  0.0243
 7505TIP3    H143930   3.367   1.433   2.021  0.3663  1.9285 -1.0342
 7505TIP3    H243931   3.221   1.405   2.050  0.9409  1.9757  2.2889
 7506TIP3   OH243932   1.601   5.758  14.673  0.2641 -0.2198  0.0004
 7506TIP3    H143933   1.680   5.732  14.625  0.3274  0.4270 -0.2638
 7506TIP3    H243934   1.631   5.821  14.737  0.1046 -0.7319  0.5884
 7507TIP3   OH243935   0.063   6.284   5.667  0.0355 -0.1661 -0.2290
 7507TIP3    H143936   0.022   6.255   5.748 -0.5164 -0.2348 -0.5307
 7507TIP3    H243937   0.040   6.217   5.603 -2.7886  1.7354 -1.3921
 7508TIP3   OH243938   3.669   0.968  13.799  0.3141 -0.0518 -0.1363
 7508TIP3    H143939   3.686   0.911  13.874  0.2403  0.0309 -0.0580
 7508TIP3    H243940   3.636   1.049  13.837  1.2403  0.3614 -0.1963
 7509TIP3   OH243941   0.170   2.802  15.874  0.4193 -0.2575 -0.6453
 7509TIP3    H143942   0.102   2.764  15.931  0.1960  0.3805 -0.4804
 7509TIP3    H243943   0.145   2.774  15.786  0.4690 -0.8045 -0.4909
 7510TIP3   OH243944   3.035   2.603   2.672 -0.1612 -0.0467  0.2952
 7510TIP3    H143945   3.077   2.604   2.586 -2.1880  0.3147 -0.7705
 7510TIP3    H243946   3.042   2.693   2.703  1.7725 -0.4527  1.2022
 7511TIP3   OH243947   4.087   3.299  16.271  0.1729  0.6297  0.3865
 7511TIP3    H143948   3.992   3.306  16.257 -0.1131 -2.2580  0.1656
 7511TIP3    H243949   4.099   3.212  16.310  2.8930 -0.0076 -1.5552
 7512TIP3   OH243950   6.152   6.166  14.535 -0.0730  0.2911  0.3170
 7512TIP3    H143951   6.161   6.216  14.616  0.5178  0.9011 -0.1111
 7512TIP3    H243952   6.059   6.144  14.531 -0.7122  2.7332 -0.2502
 7513TIP3   OH243953   4.175   0.758  16.476 -0.1078  0.2183  0.0334
 7513TIP3    H143954   4.220   0.713  16.404  1.9972  0.6605  1.0075
 7513TIP3    H243955   4.126   0.690  16.520 -3.7553  0.3106 -3.2991
 7514TIP3   OH243956   0.786   3.176   4.284  0.4903 -0.0586 -0.1792
 7514TIP3    H143957   0.869   3.149   4.325  0.3300  0.7889  0.7207
 7514TIP3    H243958   0.746   3.235   4.347 -0.3613  0.2879 -1.0266
 7515TIP3   OH243959   2.648   4.072   4.991  0.3581 -0.2177  0.3864
 7515TIP3    H143960   2.687   4.152   5.028  0.7220 -0.1715 -0.0853
 7515TIP3    H243961   2.611   4.100   4.907 -0.5108 -0.3107  0.7262
 7516TIP3   OH243962   0.084   5.828   1.787  0.2892 -0.2585  0.0238
 7516TIP3    H143963   0.044   5.903   1.829 -0.3726 -0.9269  0.6237
 7516TIP3    H243964   0.134   5.864   1.714 -0.4699  0.6986 -0.0358
 7517TIP3   OH243965   3.098   0.599  11.476  0.8821 -0.1230  0.0691
 7517TIP3    H143966   3.053   0.534  11.531  0.1657  0.2091 -0.1070
 7517TIP3    H243967   3.118   0.671  11.536  1.8194 -0.5718  0.2979
 7518TIP3   OH243968   2.380   0.154   4.885 -0.4417 -0.5696  0.6331
 7518TIP3    H143969   2.400   0.064   4.907 -1.6737 -1.2093 -0.7150
 7518TIP3    H243970   2.453   0.183   4.830  0.3838 -0.4242  1.7638
 7519TIP3   OH243971   4.318   3.562  15.342 -0.1470  0.0891 -0.1905
 7519TIP3    H143972   4.396   3.610  15.316  0.6336 -0.1634  1.5327
 7519TIP3    H243973   4.277   3.536  15.260  1.2216  0.7954 -1.1327
 7520TIP3   OH243974   3.949   1.073  16.215  0.6412 -0.2594 -0.0314
 7520TIP3    H143975   3.929   1.158  16.177 -0.3557 -0.1437  0.7469
 7520TIP3    H243976   3.874   1.018  16.193  1.3707 -1.0215 -0.7243
 7521TIP3   OH243977   0.777   5.104  16.392  0.0410  0.2906 -0.0792
 7521TIP3    H143978   0.830   5.053  16.453  0.1096  1.1871  0.6255
 7521TIP3    H243979   0.829   5.182  16.374  0.9935 -0.8719 -2.9702
 7522TIP3   OH243980   0.848   5.687   4.265  0.4835  0.3163 -0.7004
 7522TIP3    H143981   0.828   5.753   4.199  0.1241 -0.6563 -1.5867
 7522TIP3    H243982   0.907   5.731   4.326 -0.7314  1.8239 -0.5682
 7523TIP3   OH243983   4.613   4.967   3.481  0.1006  0.1572 -0.2946
 7523TIP3    H143984   4.691   5.004   3.522  0.2094 -1.8016  1.4198
 7523TIP3    H243985   4.543   5.029   3.504  0.5203  0.0950  1.2568
 7524TIP3   OH243986   2.032   3.872  16.343  0.0634  0.0840  0.2536
 7524TIP3    H143987   2.041   3.798  16.283  1.2776 -0.4947  1.1179
 7524TIP3    H243988   1.939   3.897  16.336 -0.5511 -1.9445  0.4194
 7525TIP3   OH243989   1.420   6.401   3.360  1.1216 -0.1467 -0.4223
 7525TIP3    H143990   1.479   6.406   3.435 -2.0529 -0.5482  2.3066
 7525TIP3    H243991   1.380   6.487   3.354  1.7802  0.0893 -2.1760
 7526TIP3   OH243992   6.145   2.270   0.599 -0.2408 -0.0531 -0.6722
 7526TIP3    H143993   6.053   2.293   0.590 -0.1204  1.8446  1.8279
 7526TIP3    H243994   6.149   2.212   0.676  0.8107  1.9542  0.9035
 7527TIP3   OH243995   4.352   4.420   3.022 -0.0375 -0.9285 -0.1535
 7527TIP3    H143996   4.385   4.331   3.035 -0.2966 -1.0617 -0.3813
 7527TIP3    H243997   4.319   4.420   2.932  3.1924  0.4260 -1.4721
 7528TIP3   OH243998   2.283   3.431  11.951  0.4393 -0.7854 -0.3762
 7528TIP3    H143999   2.356   3.452  11.894  0.2352  0.7387 -0.1050
 7528TIP3    H244000   2.323   3.388  12.027  0.9719 -0.6199 -0.5631
 7529TIP3   OH244001   3.219   2.526  13.224  0.2394  0.1017  0.4032
 7529TIP3    H144002   3.252   2.559  13.308  0.6171  0.5667  0.0757
 7529TIP3    H244003   3.123   2.524  13.236  0.3116 -0.2597  0.9923
 7530TIP3   OH244004   6.324   5.700   3.573 -0.7693 -0.5523 -0.4283
 7530TIP3    H144005   6.257   5.730   3.512  0.1728  1.5648 -0.5180
 7530TIP3    H244006   6.298   5.737   3.657  0.6211  0.9079 -0.6067
 7531TIP3   OH244007   1.843   2.333  14.838  0.8382 -0.2864 -0.2992
 7531TIP3    H144008   1.770   2.304  14.894 -0.8723 -1.0590 -2.7542
 7531TIP3    H244009   1.867   2.419  14.873 -1.6671  0.2733  0.2932
 7532TIP3   OH244010   4.109   0.394   2.314  0.0950  0.1305  0.0748
 7532TIP3    H144011   4.068   0.467   2.268 -1.5449 -1.0919 -0.4807
 7532TIP3    H244012   4.038   0.333   2.331  1.2908 -1.0217  1.2007
 7533TIP3   OH244013   3.873   2.281  15.714 -0.3014 -0.7973 -0.2518
 7533TIP3    H144014   3.871   2.339  15.638  1.0410  0.2443  0.4597
 7533TIP3    H244015   3.781   2.257  15.728 -0.7451  0.1742 -1.3009
 7534TIP3   OH244016   6.759   5.800  15.734  0.0160  0.0819  0.2490
 7534TIP3    H144017   6.806   5.860  15.792  0.7352  0.2091 -0.4465
 7534TIP3    H244018   6.729   5.855  15.662 -0.2032 -0.2092  0.1177
 7535TIP3   OH244019   0.024   4.858   0.998  0.4059  0.2358  0.0145
 7535TIP3    H144020   0.068   4.891   1.076  0.1782  1.4237 -0.3518
 7535TIP3    H244021   0.091   4.856   0.930  0.7181 -1.2272  0.3291
 7536TIP3   OH244022   0.414   3.559  12.350 -0.6428 -0.7534 -0.5504
 7536TIP3    H144023   0.384   3.574  12.260  0.1516 -2.5869 -1.1588
 7536TIP3    H244024   0.509   3.559  12.344 -0.4904  1.4591  0.7532
 7537TIP3   OH244025   2.644   6.270   2.711  0.3071  0.0664  0.1256
 7537TIP3    H144026   2.629   6.344   2.770  0.3462 -0.1215  0.3686
 7537TIP3    H244027   2.589   6.200   2.746 -1.3777  0.5915 -1.2783
 7538TIP3   OH244028   4.368   2.672  15.636 -0.1558 -0.2611  0.4089
 7538TIP3    H144029   4.398   2.581  15.635 -1.9172 -0.9211 -2.0644
 7538TIP3    H244030   4.291   2.672  15.579 -0.1589  2.8145  0.2792
 7539TIP3   OH244031   2.571   4.818  16.660  0.5024 -0.0001 -0.0351
 7539TIP3    H144032   2.485   4.837  16.623  0.6001 -1.2627 -0.9602
 7539TIP3    H244033   2.623   4.785  16.586  1.5611  0.0329  0.6615
 7540TIP3   OH244034   2.639   0.333  11.503 -0.6880  0.2013 -0.0734
 7540TIP3    H144035   2.582   0.408  11.493 -1.3087 -0.1305  0.8836
 7540TIP3    H244036   2.581   0.260  11.524  0.0953 -0.0995  1.1521
 7541TIP3   OH244037   3.984   0.378   4.055 -0.0095 -0.0631  0.0748
 7541TIP3    H144038   3.900   0.412   4.084 -0.4038  0.3292 -1.4030
 7541TIP3    H244039   4.049   0.438   4.092 -0.5140  0.6688 -0.1927
 7542TIP3   OH244040   1.235   1.020   0.745 -0.8396 -0.3633 -0.3311
 7542TIP3    H144041   1.252   1.006   0.652 -1.0539 -0.2877 -0.3837
 7542TIP3    H244042   1.307   0.977   0.790 -1.1065 -1.0051 -0.5102
 7543TIP3   OH244043   2.539   3.792   4.903 -0.5901  0.6304 -0.6543
 7543TIP3    H144044   2.632   3.782   4.882 -0.8472  0.3150 -1.7120
 7543TIP3    H244045   2.538   3.842   4.984  0.5292 -0.2578 -0.0560
 7544TIP3   OH244046   5.091   3.252   4.976 -0.1913 -0.8240  0.3727
 7544TIP3    H144047   5.158   3.199   4.934  0.1987 -0.3571  0.3994
 7544TIP3    H244048   5.049   3.193   5.039 -1.6897 -1.9379 -1.5697
 7545TIP3   OH244049   5.315   1.601   6.446 -0.0783  0.1776 -0.2441
 7545TIP3    H144050   5.353   1.670   6.392 -0.0187  0.5182  0.2261
 7545TIP3    H244051   5.364   1.522   6.423  1.9980  0.8779  1.4261
 7546TIP3   OH244052   4.415   4.035   3.677 -0.3668 -0.3552 -0.0291
 7546TIP3    H144053   4.399   4.103   3.743  0.8440  0.5542 -0.6214
 7546TIP3    H244054   4.359   3.962   3.703 -1.2535  0.6425  0.9785
 7547TIP3   OH244055   4.443   3.282   0.258  0.0446 -0.1085  0.2630
 7547TIP3    H144056   4.470   3.288   0.166  0.4339  1.9179  0.4741
 7547TIP3    H244057   4.524   3.265   0.305 -0.1813 -1.3253  0.2382
 7548TIP3   OH244058   6.663   0.828  13.657 -0.4997  0.4923 -0.4382
 7548TIP3    H144059   6.591   0.819  13.720 -0.2662 -1.4798 -0.3806
 7548TIP3    H244060   6.731   0.876  13.704 -0.4746 -0.6237  0.7137
 7549TIP3   OH244061   1.216   0.388   2.515  0.2243 -0.0145 -0.3259
 7549TIP3    H144062   1.279   0.411   2.447  2.0092 -0.5021  1.0983
 7549TIP3    H244063   1.196   0.471   2.558  0.4774  0.0235 -0.2826
 7550TIP3   OH244064   4.763   0.028   3.191  0.0546  0.1227  0.1732
 7550TIP3    H144065   4.720  -0.057   3.188  1.6845 -0.7516  0.0818
 7550TIP3    H244066   4.775   0.046   3.284 -0.7745  0.5199  0.2066
 7551TIP3   OH244067   3.551   1.476  11.007 -0.4394  0.2330 -0.0931
 7551TIP3    H144068   3.577   1.549  10.950  2.2338  0.8418  1.7129
 7551TIP3    H244069   3.577   1.398  10.959  0.6919  0.6854 -0.2433
 7552TIP3   OH244070   6.109   1.413  15.892 -0.6778  0.3065 -0.1023
 7552TIP3    H144071   6.201   1.441  15.899 -0.3989 -0.5014 -0.3761
 7552TIP3    H244072   6.079   1.451  15.809 -0.0731 -0.7860 -0.8567
 7553TIP3   OH244073   1.196   1.751  11.400 -0.0439  0.5213  0.1389
 7553TIP3    H144074   1.222   1.842  11.384 -1.2135  0.7648 -0.4920
 7553TIP3    H244075   1.277   1.701  11.396  0.3040  1.1769 -2.1365
 7554TIP3   OH244076   4.120   1.930   2.364 -0.0084  0.6625  0.1903
 7554TIP3    H144077   4.170   1.858   2.402 -2.3683 -0.9604  0.4359
 7554TIP3    H244078   4.072   1.967   2.437 -1.5029  0.1326 -0.4845
 7555TIP3   OH244079   0.991   4.922   1.628  0.1682  0.2102  1.0473
 7555TIP3    H144080   1.085   4.940   1.636 -0.2280  3.2455  0.3522
 7555TIP3    H244081   0.954   4.952   1.711 -0.1859 -1.5617  1.5740
 7556TIP3   OH244082   3.076   2.833  16.476 -0.5617 -0.1413 -0.6157
 7556TIP3    H144083   3.064   2.776  16.399 -1.0540 -1.9183  0.7090
 7556TIP3    H244084   3.006   2.808  16.535 -0.0168  0.9912  0.5500
 7557TIP3   OH244085   0.181   4.556  15.869 -0.3764 -0.0604 -0.0953
 7557TIP3    H144086   0.239   4.604  15.928  0.8252 -2.1415  0.5074
 7557TIP3    H244087   0.125   4.624  15.830  1.3248  1.8190  0.5699
 7558TIP3   OH244088   0.529   6.246  14.852 -0.5447  0.4647  0.4242
 7558TIP3    H144089   0.550   6.243  14.946 -1.6649  0.5338  0.6854
 7558TIP3    H244090   0.576   6.172  14.815  1.1159  1.2921  0.7739
 7559TIP3   OH244091   3.026   4.717  11.091 -0.4527  0.2306  0.0298
 7559TIP3    H144092   3.062   4.677  11.011 -3.1600 -0.4491 -0.9771
 7559TIP3    H244093   3.020   4.810  11.070 -0.2812  0.1907 -0.2100
 7560TIP3   OH244094   3.114   0.856  11.610  0.5144  0.1993 -1.0114
 7560TIP3    H144095   3.176   0.886  11.543  2.7096  1.7272  1.4834
 7560TIP3    H244096   3.093   0.936  11.659  0.8356 -1.1471  1.4617
 7561TIP3   OH244097   2.644   4.880  11.178  0.1019  0.5751 -0.5911
 7561TIP3    H144098   2.665   4.923  11.260  0.2168  0.6879 -0.6813
 7561TIP3    H244099   2.574   4.933  11.140 -1.2040 -0.4514  0.2767
 7562TIP3   OH244100   2.768   3.752  12.851 -0.5442 -0.1712 -0.8095
 7562TIP3    H144101   2.793   3.749  12.759 -0.0166 -0.6318 -0.6538
 7562TIP3    H244102   2.776   3.844  12.875  0.0949 -0.1697 -1.0127
 7563TIP3   OH244103   1.541   5.426   2.663  0.0083  0.4645  0.0836
 7563TIP3    H144104   1.520   5.493   2.598  0.9928  0.1931 -0.5419
 7563TIP3    H244105   1.573   5.474   2.739  1.0820  0.7036 -0.5054
 7564TIP3   OH244106   4.474   4.726  11.710  0.7594 -0.0717 -0.0457
 7564TIP3    H144107   4.556   4.701  11.667  0.6038 -1.8623  0.5888
 7564TIP3    H244108   4.450   4.649  11.763 -1.4336  0.3168 -0.3664
 7565TIP3   OH244109   3.668   1.854   5.942  0.3086 -0.6738  0.0568
 7565TIP3    H144110   3.637   1.784   6.000  0.0606  0.5752  1.4833
 7565TIP3    H244111   3.603   1.856   5.872 -0.2950 -1.1383  0.5840
 7566TIP3   OH244112   5.597   2.591   5.408  0.3242  0.2016 -0.3411
 7566TIP3    H144113   5.623   2.659   5.471  0.2644  1.4117 -1.5776
 7566TIP3    H244114   5.605   2.509   5.457  0.8523  1.0464  1.0567
 7567TIP3   OH244115   4.253   2.596   2.677 -0.1171 -0.6034  0.2057
 7567TIP3    H144116   4.326   2.639   2.634  0.4007 -1.3852  0.2774
 7567TIP3    H244117   4.218   2.661   2.738 -1.9530  1.1971 -2.5033
 7568TIP3   OH244118   6.078   1.117   4.424 -0.6674  0.5020 -0.1278
 7568TIP3    H144119   6.117   1.032   4.402  1.4707  1.2837  0.4319
 7568TIP3    H244120   5.996   1.095   4.468 -0.7408 -1.2324 -1.0309
 7569TIP3   OH244121   4.154   6.673  12.521 -0.2024 -0.0110 -0.1428
 7569TIP3    H144122   4.236   6.626  12.502  0.3281  0.8018  0.1037
 7569TIP3    H244123   4.182   6.754  12.562 -1.1220  0.4821 -0.4717
 7570TIP3   OH244124   3.706   2.935   3.350  0.7905  0.1385  0.2588
 7570TIP3    H144125   3.720   2.875   3.423  1.0752  2.0011  1.8346
 7570TIP3    H244126   3.616   2.966   3.362  0.0276 -1.2073 -1.5582
 7571TIP3   OH244127   1.660   3.171  12.715  0.2590  0.0127 -0.3191
 7571TIP3    H144128   1.624   3.247  12.761  1.1456  0.1403  0.1974
 7571TIP3    H244129   1.754   3.175  12.732  0.3584 -1.0399 -0.5323
 7572TIP3   OH244130   6.372   3.332  17.086 -0.7237  0.1260  0.0132
 7572TIP3    H144131   6.356   3.244  17.120 -0.1162 -1.2477 -2.8767
 7572TIP3    H244132   6.285   3.370  17.075 -1.0330 -0.3540  0.7232
 7573TIP3   OH244133   5.953   3.283  11.108  0.5911 -0.1504  0.4467
 7573TIP3    H144134   5.906   3.298  11.190 -0.2938  0.0939 -0.0981
 7573TIP3    H244135   5.941   3.363  11.057  2.1025  0.1626  0.5200
 7574TIP3   OH244136   1.444   6.601  12.203  0.2214  0.4753 -0.3643
 7574TIP3    H144137   1.517   6.601  12.142 -0.1841 -0.4146 -0.8720
 7574TIP3    H244138   1.381   6.663  12.167 -0.7361 -1.2300 -1.7821
 7575TIP3   OH244139   3.992   6.805  13.693  0.4338  0.4795  0.4368
 7575TIP3    H144140   4.012   6.720  13.732 -0.3698 -1.1170 -2.3222
 7575TIP3    H244141   4.068   6.824  13.637 -0.2103  0.5907 -0.4268
 7576TIP3   OH244142   4.799   1.221   4.113  0.1675 -0.4207  0.4438
 7576TIP3    H144143   4.875   1.197   4.061 -1.6428 -1.7552 -1.8041
 7576TIP3    H244144   4.775   1.141   4.160  0.1233 -0.0316  1.0917
 7577TIP3   OH244145   2.339   4.092   1.457 -0.4159  0.0902  0.2647
 7577TIP3    H144146   2.317   4.117   1.547  0.6383 -0.8111  0.7920
 7577TIP3    H244147   2.376   4.172   1.419 -0.8904  0.4837  0.6135
 7578TIP3   OH244148   2.475   2.962  16.637 -0.5775 -0.1680 -0.1190
 7578TIP3    H144149   2.537   2.921  16.697  1.5437  0.3637 -1.8164
 7578TIP3    H244150   2.449   2.893  16.577  1.2847  0.3693 -1.6295
 7579TIP3   OH244151   6.450   4.943  13.949 -0.1127 -0.4413 -0.8896
 7579TIP3    H144152   6.410   4.858  13.932  0.9877 -0.9849 -0.8962
 7579TIP3    H244153   6.377   5.005  13.952 -0.9867 -1.4769 -0.2434
 7580TIP3   OH244154   1.533   3.288   0.197 -0.0051  0.4143  0.1860
 7580TIP3    H144155   1.501   3.200   0.176  0.7495 -0.1570  1.3417
 7580TIP3    H244156   1.606   3.302   0.136  0.1996  0.0192  0.3342
 7581TIP3   OH244157   4.894   3.078   1.811  0.3209  0.1726 -0.5217
 7581TIP3    H144158   4.827   3.137   1.777  0.4913  0.4542 -0.3661
 7581TIP3    H244159   4.877   2.995   1.766 -0.7125 -0.0328  0.1863
 7582TIP3   OH244160   6.644   5.103   6.167  0.4111 -0.0065 -0.8705
 7582TIP3    H144161   6.602   5.054   6.238  0.7588  0.1155 -0.5808
 7582TIP3    H244162   6.729   5.060   6.155  0.9618  0.8737 -0.2236
 7583TIP3   OH244163   0.014   4.676   2.023 -0.0789  0.5460  0.3238
 7583TIP3    H144164  -0.033   4.597   2.048  1.6536 -0.8951 -0.7062
 7583TIP3    H244165  -0.017   4.697   1.935  1.1012 -0.4010 -0.3532
 7584TIP3   OH244166   3.332   1.985   0.765 -0.3087  0.1855 -0.5483
 7584TIP3    H144167   3.324   2.080   0.775 -1.6976 -0.0187  0.6790
 7584TIP3    H244168   3.409   1.962   0.816  0.5558  0.7259 -1.5647
 7585TIP3   OH244169   5.352   6.462   2.209  0.3218  0.8911 -0.3586
 7585TIP3    H144170   5.367   6.393   2.145 -1.0732 -0.1730  0.4082
 7585TIP3    H244171   5.413   6.442   2.280 -0.8159 -0.2360  0.3448
 7586TIP3   OH244172   6.034   0.561   2.318 -0.7242  0.1268  0.0492
 7586TIP3    H144173   6.039   0.547   2.413 -2.6621 -0.7462  0.0649
 7586TIP3    H244174   6.000   0.478   2.284  0.1745  0.3503 -1.4528
 7587TIP3   OH244175   0.308   3.279  13.431  0.0044 -0.4669  0.4619
 7587TIP3    H144176   0.387   3.246  13.474 -0.6723 -0.8204  1.4777
 7587TIP3    H244177   0.272   3.202  13.386  1.5063  0.2151 -2.0980
 7588TIP3   OH244178   0.868   4.342   0.529 -0.2722  0.8714 -0.2694
 7588TIP3    H144179   0.877   4.250   0.555  0.4630  1.0405  0.1357
 7588TIP3    H244180   0.790   4.373   0.575 -0.0662  0.6532  0.2328
 7589TIP3   OH244181   4.774   5.728   6.029  0.1489  0.0349 -0.0645
 7589TIP3    H144182   4.709   5.714   6.098 -1.4775 -0.8514 -1.6723
 7589TIP3    H244183   4.785   5.823   6.024 -0.8162  0.1775  0.4417
 7590TIP3   OH244184   5.839   0.473  15.027 -0.2183  0.2818 -0.4540
 7590TIP3    H144185   5.921   0.471  15.076  0.3529  0.0962 -1.3818
 7590TIP3    H244186   5.853   0.412  14.954 -1.3556 -0.1058 -0.3728
 7591TIP3   OH244187   0.581   3.045  13.150  0.8290  0.0659  0.8005
 7591TIP3    H144188   0.588   2.990  13.228  0.2104  1.9312  2.2486
 7591TIP3    H244189   0.661   3.025  13.100  0.7555 -1.8915  1.3691
 7592TIP3   OH244190   1.616   4.257   5.929 -0.2255  0.5442  0.3255
 7592TIP3    H144191   1.583   4.279   6.016 -0.8092 -0.5101  0.3895
 7592TIP3    H244192   1.668   4.178   5.942 -0.4655  0.2695 -0.3036
 7593TIP3   OH244193   4.119   6.526  11.560  0.1377  0.5012  0.1384
 7593TIP3    H144194   4.050   6.486  11.613 -0.3455  0.9779 -0.1143
 7593TIP3    H244195   4.198   6.476  11.582 -0.2851 -0.0625  0.4268
 7594TIP3   OH244196   6.373   0.075  15.056 -0.2875  0.1329  0.3310
 7594TIP3    H144197   6.433   0.067  14.982 -1.2027 -0.1789 -0.4097
 7594TIP3    H244198   6.375  -0.010  15.099  1.0416  0.6353  1.3293
 7595TIP3   OH244199   0.930   3.642  13.095 -0.3164 -0.2171  0.1002
 7595TIP3    H144200   0.894   3.555  13.074 -1.7922  0.3321  0.2576
 7595TIP3    H244201   0.970   3.631  13.181  1.5491 -1.2775 -0.8080
 7596TIP3   OH244202   3.776   4.404  16.904  0.3611  0.4634 -0.7599
 7596TIP3    H144203   3.801   4.496  16.911 -1.4639  0.9016  0.6807
 7596TIP3    H244204   3.683   4.405  16.881  0.6245 -1.0524 -2.0688
 7597TIP3   OH244205   6.144   2.888   5.799  0.0319  0.4727 -0.2184
 7597TIP3    H144206   6.233   2.909   5.828  0.1628  0.5563 -0.6741
 7597TIP3    H244207   6.119   2.961   5.743  0.0910 -0.0811 -0.9761
 7598TIP3   OH244208   5.414   0.900   3.665  0.9295  0.4360 -0.5280
 7598TIP3    H144209   5.342   0.945   3.709  1.2275  0.1526  0.2830
 7598TIP3    H244210   5.458   0.851   3.735  0.5488 -1.2274 -1.4026
 7599TIP3   OH244211   3.590   0.355   0.843  0.6428 -0.3343 -1.1565
 7599TIP3    H144212   3.502   0.340   0.877  0.9175 -0.6370 -0.5387
 7599TIP3    H244213   3.633   0.269   0.849  0.7943 -0.3273 -2.0183
 7600TIP3   OH244214   6.673   2.566  12.001 -0.4896  0.2988 -0.1355
 7600TIP3    H144215   6.674   2.515  12.082  0.2273  0.1187 -0.2450
 7600TIP3    H244216   6.609   2.635  12.016 -2.3421 -1.2907 -0.4047
 7601TIP3   OH244217   1.103   6.021   1.950 -0.4703 -1.1187  1.1131
 7601TIP3    H144218   1.046   6.060   2.016 -1.9931  0.6433 -1.1011
 7601TIP3    H244219   1.044   5.968   1.896  0.2556 -0.5060 -0.3131
 7602TIP3   OH244220   0.698   3.578  12.398  0.5561 -0.2320  0.5604
 7602TIP3    H144221   0.712   3.651  12.459 -0.9691  1.9628 -1.5308
 7602TIP3    H244222   0.784   3.564  12.358  0.7339  0.9599  0.4758
 7603TIP3   OH244223   1.087   0.779  17.095  0.3870  0.8934 -0.6498
 7603TIP3    H144224   1.132   0.847  17.046 -0.7428  0.2667 -2.6419
 7603TIP3    H244225   0.995   0.802  17.091 -0.0511 -0.8710 -1.6232
 7604TIP3   OH244226   5.069   5.325  10.856 -0.3137  0.5025  0.1641
 7604TIP3    H144227   5.093   5.417  10.845  1.9352  0.2236  2.0872
 7604TIP3    H244228   5.152   5.277  10.851 -1.3767 -1.4226 -0.3665
 7605TIP3   OH244229   0.392   2.575  10.428 -0.4695 -0.2850  0.1756
 7605TIP3    H144230   0.480   2.557  10.460  0.7931  0.8633 -2.3391
 7605TIP3    H244231   0.375   2.666  10.454  0.1959  0.3494 -1.4631
 7606TIP3   OH244232   5.274   4.220  15.683  0.2897  0.4281  0.1427
 7606TIP3    H144233   5.205   4.156  15.700  1.0965 -1.2696 -2.3209
 7606TIP3    H244234   5.339   4.204  15.751 -0.1841 -0.4091  0.4189
 7607TIP3   OH244235   5.710   0.515   3.276  0.0342  0.1288  0.2202
 7607TIP3    H144236   5.703   0.605   3.244 -0.9769 -0.4428 -1.2440
 7607TIP3    H244237   5.760   0.469   3.209  0.7357 -0.3698  1.0674
 7608TIP3   OH244238   3.439   4.797   2.194  0.0121 -0.1377  0.1101
 7608TIP3    H144239   3.422   4.799   2.100 -3.2330  0.6388  0.6142
 7608TIP3    H244240   3.487   4.878   2.211  0.1169 -0.0059 -0.7747
 7609TIP3   OH244241   4.321   0.767   5.360 -0.2684 -0.3877  0.1496
 7609TIP3    H144242   4.341   0.676   5.383  0.7358 -0.3258 -0.3814
 7609TIP3    H244243   4.356   0.819   5.432 -0.3104 -0.3999  0.1780
 7610TIP3   OH244244   0.944   2.185  14.638 -0.3816 -0.4559  0.7481
 7610TIP3    H144245   1.009   2.188  14.709 -0.2149  2.6359  0.5798
 7610TIP3    H244246   0.996   2.169  14.559 -0.1537 -0.5556  0.9156
 7611TIP3   OH244247   6.274   1.359   0.768  0.7779 -0.5728 -0.1794
 7611TIP3    H144248   6.275   1.265   0.790  0.8588 -0.5171  0.0620
 7611TIP3    H244249   6.283   1.361   0.673  1.7392 -0.7862 -0.1053
 7612TIP3   OH244250   2.635   1.179   0.184  0.9282 -0.1595 -0.1222
 7612TIP3    H144251   2.649   1.144   0.273 -0.7171  1.0013  0.6355
 7612TIP3    H244252   2.622   1.273   0.197 -0.2106 -0.1015 -1.4927
 7613TIP3   OH244253   3.456   5.196  15.550 -0.2128 -0.3081 -0.8637
 7613TIP3    H144254   3.434   5.254  15.477 -0.3256 -1.2156 -1.5617
 7613TIP3    H244255   3.513   5.130  15.512  1.9874  0.7191  0.4383
 7614TIP3   OH244256   3.227   0.479  15.480 -0.6333 -0.0157 -0.1881
 7614TIP3    H144257   3.244   0.573  15.473  2.9246 -0.4660  0.3869
 7614TIP3    H244258   3.223   0.462  15.575  1.3822 -0.6982 -0.1624
 7615TIP3   OH244259   4.332   5.314  14.460  0.1131  0.5529  0.1038
 7615TIP3    H144260   4.251   5.273  14.490  0.7588 -0.7213  0.1536
 7615TIP3    H244261   4.394   5.242  14.451  1.5233  1.6013  0.9433
 7616TIP3   OH244262   6.038   3.924   2.631  0.0414  0.1686  0.3788
 7616TIP3    H144263   5.950   3.949   2.657 -0.8129 -0.5526 -1.6434
 7616TIP3    H244264   6.047   3.955   2.541  1.3454 -0.9364  0.0883
 7617TIP3   OH244265   0.506   2.241   1.654  0.3939  0.7783  0.0086
 7617TIP3    H144266   0.598   2.261   1.635  0.5122 -0.6269 -1.1436
 7617TIP3    H244267   0.478   2.189   1.579 -1.5641  1.7763  0.0120
 7618TIP3   OH244268   1.347   5.336  15.999  0.2302 -0.1185 -0.3513
 7618TIP3    H144269   1.322   5.429  16.001 -2.3004 -0.6309 -2.7582
 7618TIP3    H244270   1.432   5.335  15.956  0.3688  1.0703 -0.1393
 7619TIP3   OH244271   1.369   5.689   6.375  0.1882  0.2092  0.4254
 7619TIP3    H144272   1.306   5.618   6.360  0.4768  0.1926 -0.7340
 7619TIP3    H244273   1.437   5.648   6.429  0.2296 -0.3369 -0.0263
 7620TIP3   OH244274   0.512   4.994   5.380  0.3436  0.0079  0.5591
 7620TIP3    H144275   0.605   5.000   5.402  0.6418 -0.2656 -0.5185
 7620TIP3    H244276   0.512   4.973   5.286 -0.7875 -1.3036  0.8245
 7621TIP3   OH244277   3.644   1.776  13.791  0.0046 -0.7169 -0.0102
 7621TIP3    H144278   3.554   1.802  13.774  0.5285  0.7189 -0.7454
 7621TIP3    H244279   3.646   1.753  13.884 -0.6758  1.2544  0.5345
 7622TIP3   OH244280   5.985   1.235   4.787  0.2191  0.3348  0.2174
 7622TIP3    H144281   5.928   1.193   4.851  0.9598 -0.2611  0.4985
 7622TIP3    H244282   5.948   1.323   4.776  0.2106  0.5224  1.6236
 7623TIP3   OH244283   4.819   0.402   3.887 -0.4624 -0.1371  0.0991
 7623TIP3    H144284   4.852   0.491   3.904 -0.2192 -0.2763  0.3591
 7623TIP3    H244285   4.803   0.365   3.974  0.5924 -0.7826  0.0265
 7624TIP3   OH244286   3.426   4.478   3.871  0.0467  0.0178  0.1726
 7624TIP3    H144287   3.477   4.411   3.827  0.3091 -0.4163  1.0988
 7624TIP3    H244288   3.485   4.513   3.938  0.2411  1.8675 -0.9230
 7625TIP3   OH244289   3.398   5.172  10.886 -1.0096 -0.0503 -0.2161
 7625TIP3    H144290   3.439   5.190  10.971  0.9745 -1.0280 -0.8951
 7625TIP3    H244291   3.429   5.084  10.864 -1.9741 -0.0420 -1.7015
 7626TIP3   OH244292   5.789   5.024   3.216 -0.1996 -0.0169  0.2808
 7626TIP3    H144293   5.814   5.060   3.131  1.7173 -1.6826  0.0636
 7626TIP3    H244294   5.809   5.094   3.278  3.2560 -0.4544 -0.1517
 7627TIP3   OH244295   0.598   3.553  11.076  0.3956  0.4167  0.0103
 7627TIP3    H144296   0.586   3.628  11.134  1.0751  1.2626 -0.8916
 7627TIP3    H244297   0.592   3.590  10.988 -1.1445 -0.9080 -0.5004
 7628TIP3   OH244298   2.764   1.281  11.651 -0.7258 -0.2655 -0.1134
 7628TIP3    H144299   2.755   1.331  11.732  1.3439  0.2796 -0.1764
 7628TIP3    H244300   2.691   1.311  11.596 -0.9610  0.8501  0.7778
 7629TIP3   OH244301   0.703   4.733  11.397 -0.5682  0.5172  0.1466
 7629TIP3    H144302   0.646   4.749  11.321 -2.1588 -1.2777  0.8874
 7629TIP3    H244303   0.693   4.639  11.414  2.7384  0.0920  0.2689
 7630TIP3   OH244304   2.525   5.767   0.732  0.8712 -0.1107  0.9411
 7630TIP3    H144305   2.499   5.778   0.823 -1.2449  1.4456  0.2437
 7630TIP3    H244306   2.602   5.823   0.722 -0.4151  1.8396  1.2519
 7631TIP3   OH244307   1.275   0.223   3.492  0.5782  0.0069 -0.0090
 7631TIP3    H144308   1.287   0.291   3.558  0.7258  0.1151 -0.1474
 7631TIP3    H244309   1.341   0.157   3.514  2.2821  1.1440 -1.4762
 7632TIP3   OH244310   3.814   5.617   3.798 -0.1804  0.6485  0.5672
 7632TIP3    H144311   3.869   5.619   3.719 -0.1588 -2.5463  0.3524
 7632TIP3    H244312   3.726   5.635   3.765 -0.1192 -0.3096 -0.1877
 7633TIP3   OH244313   6.728   3.844   5.262 -0.1664  0.4399  0.4293
 7633TIP3    H144314   6.777   3.778   5.213 -0.9665  0.9611 -1.1696
 7633TIP3    H244315   6.735   3.817   5.353  3.0218  0.4866  0.3062
 7634TIP3   OH244316   4.335   5.819  12.977 -0.2497 -0.0670 -0.0006
 7634TIP3    H144317   4.257   5.867  13.007 -1.6452 -1.4240 -1.2439
 7634TIP3    H244318   4.318   5.728  13.003  2.4750  0.0280  2.5854
 7635TIP3   OH244319   5.018   6.211   4.700  0.0217 -0.0182  0.4033
 7635TIP3    H144320   5.109   6.191   4.677  0.1210 -0.4318  1.1209
 7635TIP3    H244321   5.017   6.307   4.709  0.6025 -0.0647  1.1906
 7636TIP3   OH244322   4.008   2.997   2.656  0.0102  0.3454 -0.6320
 7636TIP3    H144323   4.049   3.013   2.571  1.2141  0.8448  0.0073
 7636TIP3    H244324   3.989   3.085   2.690 -0.1610  0.1615 -0.2458
 7637TIP3   OH244325   3.097   4.977  11.275  0.3501  0.2870 -0.1465
 7637TIP3    H144326   3.077   4.956  11.367  0.4107  1.0599  0.0505
 7637TIP3    H244327   3.182   4.937  11.259  1.7311  2.5543  1.0264
 7638TIP3   OH244328   3.779   4.250   5.329  0.7561  0.4098  0.1948
 7638TIP3    H144329   3.781   4.162   5.366  0.0459 -0.5520 -1.9202
 7638TIP3    H244330   3.700   4.289   5.366  0.6418 -0.1121  0.5232
 7639TIP3   OH244331   0.876   5.899   3.357  0.7226  0.2651 -0.1465
 7639TIP3    H144332   0.918   5.973   3.400  0.1093  0.5264  0.0195
 7639TIP3    H244333   0.929   5.823   3.382  0.3187  0.3972  1.1711
 7640TIP3   OH244334   3.757   2.708  15.504 -0.3268  0.0455 -0.2494
 7640TIP3    H144335   3.826   2.762  15.541  1.6909  1.2588 -5.1531
 7640TIP3    H244336   3.685   2.768  15.488 -0.5057 -0.0979  0.0008
 7641TIP3   OH244337   4.650   3.651  14.446 -0.0658  0.4728  0.3394
 7641TIP3    H144338   4.717   3.661  14.514 -0.1674 -0.1438  0.5399
 7641TIP3    H244339   4.665   3.724  14.386  0.7534  0.3739  0.4091
 7642TIP3   OH244340   0.762   1.029   1.959 -0.0852  0.2595  0.2733
 7642TIP3    H144341   0.852   1.055   1.942 -0.7530  2.4964 -0.2062
 7642TIP3    H244342   0.716   1.046   1.877 -1.2751  0.9382  1.0458
 7643TIP3   OH244343   4.597   2.781  13.484  0.0377 -0.7868  0.3745
 7643TIP3    H144344   4.548   2.766  13.403  1.0534  2.1925 -0.9406
 7643TIP3    H244345   4.670   2.720  13.479  0.3880 -0.2892 -1.3146
 7644TIP3   OH244346   2.803   0.525  15.702 -0.4839  0.1029  0.4248
 7644TIP3    H144347   2.766   0.473  15.631  0.3529  0.3410 -0.1977
 7644TIP3    H244348   2.868   0.581  15.660 -1.1039  1.4004  1.1333
 7645TIP3   OH244349   0.772   1.814   4.725  0.2378 -0.2874 -0.0762
 7645TIP3    H144350   0.784   1.906   4.750  0.3928 -1.1116  3.3772
 7645TIP3    H244351   0.686   1.791   4.761  0.0488 -1.4161 -1.2029
 7646TIP3   OH244352   3.357   2.302  14.530 -0.2318  0.1729  0.1736
 7646TIP3    H144353   3.434   2.268  14.484  0.4209  0.7248  0.8290
 7646TIP3    H244354   3.384   2.308  14.622 -1.4470 -0.7397  0.6165
 7647TIP3   OH244355   1.299   3.478  14.757  0.0973  0.1610 -0.0707
 7647TIP3    H144356   1.322   3.571  14.765 -1.6668  0.6862 -0.5883
 7647TIP3    H244357   1.382   3.434  14.742  1.2900  1.3364  2.4909
 7648TIP3   OH244358   0.907   4.441  16.754  0.2423 -0.2733 -0.1615
 7648TIP3    H144359   0.850   4.493  16.698 -0.4402  0.5833  1.2538
 7648TIP3    H244360   0.952   4.505  16.809  2.0360 -0.9876 -0.7345
 7649TIP3   OH244361   4.743   6.566   3.518 -0.1424  0.3044  0.1541
 7649TIP3    H144362   4.809   6.497   3.517 -0.8431 -0.4074 -1.3882
 7649TIP3    H244363   4.702   6.559   3.604 -0.0088 -1.0273  0.1379
 7650TIP3   OH244364   4.249   4.761  16.191  0.2163 -0.0001  0.0424
 7650TIP3    H144365   4.217   4.690  16.246 -0.2301  1.2194  1.4466
 7650TIP3    H244366   4.315   4.805  16.246  1.1070  0.1518 -1.1262
 7651TIP3   OH244367   6.233   4.043  11.502 -0.1823  0.5340 -0.2739
 7651TIP3    H144368   6.206   3.962  11.460 -0.3369  0.9422 -0.9818
 7651TIP3    H244369   6.250   4.019  11.593 -0.4176 -0.2471 -0.4317
 7652TIP3   OH244370   1.659   2.062   2.959  0.6783 -0.5781  0.7413
 7652TIP3    H144371   1.728   2.035   3.020  1.0867 -2.0581 -0.3228
 7652TIP3    H244372   1.683   2.021   2.876 -0.3036  0.7200 -0.2247
 7653TIP3   OH244373   0.245   1.785   1.209  0.2542  0.1397 -0.3171
 7653TIP3    H144374   0.177   1.736   1.163  0.7303 -0.9701  0.1172
 7653TIP3    H244375   0.308   1.718   1.237  0.8860  0.9947  0.3709
 7654TIP3   OH244376   2.212   4.797   5.503 -0.9262  0.8168  0.2139
 7654TIP3    H144377   2.295   4.769   5.466 -0.8824  1.9682 -0.6219
 7654TIP3    H244378   2.230   4.810   5.596 -0.9434 -1.7730  0.6517
 7655TIP3   OH244379   2.592   5.552   0.345 -0.3082  0.4744 -0.2484
 7655TIP3    H144380   2.676   5.557   0.300 -0.8034 -2.0333 -1.6442
 7655TIP3    H244381   2.527   5.573   0.278 -0.8782  1.1827  0.5006
 7656TIP3   OH244382   5.870   3.415  10.493  0.0456 -0.1350 -0.2528
 7656TIP3    H144383   5.914   3.391  10.411  0.8277  1.9228 -0.5049
 7656TIP3    H244384   5.942   3.438  10.552 -0.5186 -1.5452  1.0297
 7657TIP3   OH244385   3.708   5.038   0.485 -0.2621 -0.3432 -0.4897
 7657TIP3    H144386   3.681   4.946   0.492 -0.4626 -0.1824  4.8638
 7657TIP3    H244387   3.627   5.086   0.467 -0.8846 -0.9801  0.5436
 7658TIP3   OH244388   4.751   1.176  11.401  0.7179 -0.0401 -0.5519
 7658TIP3    H144389   4.809   1.107  11.371  0.8389 -0.8474  1.3716
 7658TIP3    H244390   4.682   1.182  11.335  0.7973 -1.8957 -0.8358
 7659TIP3   OH244391   6.763   6.641  14.649  0.8851 -0.0744  0.3901
 7659TIP3    H144392   6.704   6.691  14.593  1.0303 -0.1070  0.2086
 7659TIP3    H244393   6.851   6.670  14.623  1.0953 -1.9320 -1.2064
 7660TIP3   OH244394   3.605   4.813   0.636 -0.1411  0.1632 -0.3477
 7660TIP3    H144395   3.556   4.894   0.653 -1.1753 -0.9074  2.4051
 7660TIP3    H244396   3.537   4.748   0.620  0.6186 -0.4485 -1.1551
 7661TIP3   OH244397   4.797   2.007   2.199  0.1542  0.7585 -0.3704
 7661TIP3    H144398   4.735   2.052   2.256  2.3243  1.0685  1.9329
 7661TIP3    H244399   4.800   1.918   2.233  1.8692  1.0818  0.4240
 7662TIP3   OH244400   3.332   6.664  13.590  0.3724 -0.5410 -0.4622
 7662TIP3    H144401   3.380   6.744  13.615  0.4859 -0.5649 -0.6071
 7662TIP3    H244402   3.241   6.693  13.581  0.4546 -0.3727 -0.7709
 7663TIP3   OH244403   4.814   4.657  15.692  0.2948  0.1405  0.1506
 7663TIP3    H144404   4.774   4.600  15.757 -0.1135  0.1443 -0.0898
 7663TIP3    H244405   4.893   4.612  15.664 -0.3805 -0.6583 -0.5453
 7664TIP3   OH244406   2.145   1.515  14.179 -0.1164  0.0813  0.0498
 7664TIP3    H144407   2.141   1.609  14.197 -1.0860  0.3736 -1.5233
 7664TIP3    H244408   2.085   1.476  14.242 -2.8611  0.9992 -1.7981
 7665TIP3   OH244409   2.197   4.163  16.746  0.5912  0.3417  1.0559
 7665TIP3    H144410   2.137   4.091  16.730  1.2561 -0.2061  1.0137
 7665TIP3    H244411   2.155   4.213  16.817 -0.1426  0.2449  0.7020
 7666TIP3   OH244412   0.271   4.349   2.147  0.2428 -0.1253  0.1388
 7666TIP3    H144413   0.233   4.403   2.216  1.2069  0.8207 -0.0481
 7666TIP3    H244414   0.244   4.259   2.169 -0.3343  0.2849  1.1478
 7667TIP3   OH244415   3.869   0.420   5.532 -0.0727  0.0077  0.0539
 7667TIP3    H144416   3.894   0.328   5.547  0.3971  0.0782 -0.2831
 7667TIP3    H244417   3.952   0.467   5.524 -0.3117  0.5059  0.4591
 7668TIP3   OH244418   4.378   4.661   1.422 -0.1928  0.0796  0.3733
 7668TIP3    H144419   4.427   4.584   1.449 -1.5308 -0.7379  0.5854
 7668TIP3    H244420   4.379   4.719   1.498 -1.5438 -0.9813  1.2618
 7669TIP3   OH244421   6.464   1.902   0.799 -0.4131 -0.0717 -0.3836
 7669TIP3    H144422   6.500   1.962   0.864  1.5999 -1.4633 -0.0940
 7669TIP3    H244423   6.540   1.850   0.772 -1.4183 -0.2556 -3.0654
 7670TIP3   OH244424   0.798   0.242   0.244 -0.6517 -0.5298 -0.3164
 7670TIP3    H144425   0.878   0.293   0.230 -0.7370  0.0435  1.0612
 7670TIP3    H244426   0.809   0.203   0.331 -1.7513 -0.6499 -0.2126
 7671TIP3   OH244427   4.890   2.358  11.523 -0.0275 -0.2265 -0.4534
 7671TIP3    H144428   4.866   2.295  11.592  0.8650 -0.5889 -0.4612
 7671TIP3    H244429   4.819   2.422  11.524  0.5538  0.4941  1.6903
 7672TIP3   OH244430   3.299   3.507  13.455 -0.4590  0.2172  0.4564
 7672TIP3    H144431   3.325   3.591  13.418 -0.2436 -0.4806 -1.0745
 7672TIP3    H244432   3.362   3.491  13.525 -0.4071  1.2499  0.6588
 7673TIP3   OH244433   4.255   5.435  16.992 -0.2578  0.1263  0.3304
 7673TIP3    H144434   4.247   5.340  16.997 -0.7985  0.2209  1.7463
 7673TIP3    H244435   4.234   5.466  17.080 -1.9077  1.6901 -0.5321
 7674TIP3   OH244436   3.579   3.247   1.772 -0.4984  0.0319 -0.6971
 7674TIP3    H144437   3.654   3.242   1.831 -1.4946 -0.0512  0.6291
 7674TIP3    H244438   3.610   3.298   1.698  0.4529  1.2769  0.5018
 7675TIP3   OH244439   3.042   2.862  13.160  0.6195  0.3059 -0.0182
 7675TIP3    H144440   2.991   2.782  13.171  2.4747 -1.3726 -2.5008
 7675TIP3    H244441   3.132   2.832  13.149  1.2334  2.6188 -2.1869
 7676TIP3   OH244442   1.450   6.340  15.401 -0.1348 -0.3636  0.1482
 7676TIP3    H144443   1.498   6.315  15.322 -0.4016 -1.4947  0.3377
 7676TIP3    H244444   1.475   6.432  15.415  2.4013 -1.0173  0.5172
 7677TIP3   OH244445   5.033   1.672  14.157  0.3549 -0.0670  0.0285
 7677TIP3    H144446   5.014   1.647  14.247 -0.1294 -1.2533 -0.3808
 7677TIP3    H244447   4.957   1.641  14.107 -0.7009  2.9687 -0.4509
 7678TIP3   OH244448   5.480   1.277   3.817 -0.5345  0.2464 -0.3345
 7678TIP3    H144449   5.523   1.362   3.825 -0.3114  0.2132 -1.1186
 7678TIP3    H244450   5.398   1.295   3.773 -0.5701  0.0750 -0.3389
 7679TIP3   OH244451   3.529   4.993  15.354 -0.1840 -0.7831  0.2093
 7679TIP3    H144452   3.591   5.045  15.303 -0.4537  0.5430  1.1756
 7679TIP3    H244453   3.576   4.911  15.373  0.3687 -0.7821 -1.0807
 7680TIP3   OH244454   3.921   5.042  13.780  0.0723 -0.8687  0.4839
 7680TIP3    H144455   3.982   4.973  13.755  0.9882 -0.9469  2.6963
 7680TIP3    H244456   3.850   5.036  13.716  3.2712  0.6957 -3.6223
 7681TIP3   OH244457   3.981   6.217   6.559 -0.0237  0.1827 -0.7469
 7681TIP3    H144458   3.907   6.160   6.535 -0.4290  0.5041 -0.2679
 7681TIP3    H244459   3.941   6.299   6.586  0.4027 -0.2036  1.1786
 7682TIP3   OH244460   3.301   3.208   1.796  0.2908 -0.3394 -0.4339
 7682TIP3    H144461   3.274   3.277   1.735 -0.2565 -1.7560 -1.8528
 7682TIP3    H244462   3.391   3.187   1.770  1.2190  1.1750  1.3117
 7683TIP3   OH244463   6.341   3.686   2.400 -0.1769  0.4000  0.1647
 7683TIP3    H144464   6.334   3.593   2.374  1.5124 -0.0320  1.1298
 7683TIP3    H244465   6.338   3.734   2.317 -2.0864 -0.4035 -0.2969
 7684TIP3   OH244466   0.520   5.854  17.064 -0.6278 -0.4158 -0.1152
 7684TIP3    H144467   0.467   5.775  17.062  0.3846 -1.2179  1.8966
 7684TIP3    H244468   0.482   5.908  17.133  1.3171 -1.2018  1.6821
 7685TIP3   OH244469   5.451   5.410   4.161  0.2295  0.6790 -0.4610
 7685TIP3    H144470   5.458   5.455   4.077 -1.2391 -0.3632 -1.1769
 7685TIP3    H244471   5.382   5.457   4.208  0.5440  0.8072 -0.1197
 7686TIP3   OH244472   5.116   1.331   1.853 -0.4319 -0.3646  0.2809
 7686TIP3    H144473   5.117   1.413   1.902  1.8819 -0.8388  1.1161
 7686TIP3    H244474   5.122   1.263   1.920 -0.4340 -1.1553 -0.5015
 7687TIP3   OH244475   0.716   6.540  15.958 -0.1379  0.2522 -0.1764
 7687TIP3    H144476   0.762   6.482  16.018 -0.5722  1.9903  2.0012
 7687TIP3    H244477   0.625   6.539  15.989 -0.2552  1.6494 -0.3939
 7688TIP3   OH244478   0.104   4.297   5.618 -0.1955  0.0799  0.3976
 7688TIP3    H144479   0.130   4.365   5.555 -1.0819  0.4649  0.4337
 7688TIP3    H244480   0.104   4.342   5.703 -2.3500  0.5006  0.2279
 7689TIP3   OH244481   1.068   0.768   4.759  0.3924 -0.6106  0.0244
 7689TIP3    H144482   1.105   0.842   4.712 -0.5397  1.5284  2.4123
 7689TIP3    H244483   0.975   0.787   4.764  0.6624  0.5699  4.5200
 7690TIP3   OH244484   2.768   4.304   5.059 -0.7511  0.5195 -0.0863
 7690TIP3    H144485   2.701   4.364   5.026 -1.6568  0.8565  2.2145
 7690TIP3    H244486   2.838   4.360   5.091 -0.2244  0.2132 -0.6600
 7691TIP3   OH244487   4.717   4.401  12.185 -0.2137 -0.2677  0.4911
 7691TIP3    H144488   4.745   4.379  12.096 -0.0180 -2.9803  1.1210
 7691TIP3    H244489   4.781   4.464  12.215 -0.1007  0.4699 -1.1688
 7692TIP3   OH244490   2.315   5.808   2.776 -0.3119 -0.1971 -0.5074
 7692TIP3    H144491   2.319   5.727   2.725 -1.8490 -0.9138  0.4225
 7692TIP3    H244492   2.398   5.811   2.824 -0.5167 -1.6196 -0.0184
 7693TIP3   OH244493   2.633   0.698  14.568 -0.0380  0.5309  0.0899
 7693TIP3    H144494   2.546   0.683  14.605 -0.9605  3.4536 -0.6563
 7693TIP3    H244495   2.689   0.635  14.613 -1.6893  1.5325  3.9364
 7694TIP3   OH244496   5.258   0.985   6.085 -0.3027  0.7166 -0.4664
 7694TIP3    H144497   5.219   0.923   6.146 -1.2655  1.6124 -0.1453
 7694TIP3    H244498   5.280   1.061   6.138  0.4902  0.8212 -0.9240
 7695TIP3   OH244499   3.654   2.234   2.963 -0.0604 -0.0441  0.1491
 7695TIP3    H144500   3.709   2.309   2.940 -0.0302  0.6617  2.3231
 7695TIP3    H244501   3.713   2.159   2.960  0.4234  0.3355  0.0488
 7696TIP3   OH244502   2.556   5.330  12.576 -0.6469 -0.3231  0.4030
 7696TIP3    H144503   2.485   5.359  12.634 -0.8896 -0.2938  0.0904
 7696TIP3    H244504   2.534   5.239  12.556 -1.8422  0.3229 -1.5280
 7697TIP3   OH244505   2.837   6.769  13.883 -0.7339 -0.1212  0.2891
 7697TIP3    H144506   2.923   6.803  13.858 -0.6242 -0.4466  0.2282
 7697TIP3    H244507   2.779   6.795  13.812 -1.0667  1.6704  1.1527
 7698TIP3   OH244508   4.377   2.067  15.235 -0.2712  0.1497  0.0797
 7698TIP3    H144509   4.409   2.101  15.319  2.5408  0.2079 -0.8988
 7698TIP3    H244510   4.456   2.033  15.192 -1.8745 -1.2532 -1.9238
 7699TIP3   OH244511   4.464   6.800  16.388  0.7054 -0.3737  0.2988
 7699TIP3    H144512   4.448   6.853  16.311  0.3120 -0.8386  0.0577
 7699TIP3    H244513   4.380   6.796  16.433  0.2680 -2.2308 -0.6006
 7700TIP3   OH244514   0.466   4.804  16.495 -0.2358  0.2790 -0.2724
 7700TIP3    H144515   0.406   4.853  16.439 -0.7162 -0.2135 -0.1908
 7700TIP3    H244516   0.529   4.765  16.434 -1.0293 -0.6355 -0.5171
 7701TIP3   OH244517   3.370   1.156  13.126  0.5348  0.3678 -0.2277
 7701TIP3    H144518   3.448   1.136  13.076  0.0688 -0.5211 -0.6150
 7701TIP3    H244519   3.374   1.098  13.202  0.0349  0.0009 -0.4772
 7702TIP3   OH244520   5.278   0.642   0.911 -0.1577  0.3731  0.0011
 7702TIP3    H144521   5.284   0.643   1.007  2.2936  0.2794 -0.0980
 7702TIP3    H244522   5.229   0.721   0.889 -2.6946 -0.6822  1.3611
 7703TIP3   OH244523   0.275   3.613   4.749  0.5658  0.4864 -0.4049
 7703TIP3    H144524   0.270   3.614   4.844  1.6249 -0.5538 -0.3085
 7703TIP3    H244525   0.216   3.682   4.720 -2.4083 -1.3524  0.8720
 7704TIP3   OH244526   1.089   1.398   1.896 -0.9007  0.0117 -0.4791
 7704TIP3    H144527   1.096   1.455   1.972  2.2106  1.2406 -1.5431
 7704TIP3    H244528   1.028   1.442   1.837 -0.2985  1.0635 -0.3246
 7705TIP3   OH244529   5.803   2.961   0.464 -0.6553  0.3401 -0.2269
 7705TIP3    H144530   5.753   2.900   0.411  0.5895 -2.0303  1.1267
 7705TIP3    H244531   5.883   2.978   0.413 -1.0438  0.9332 -0.6450
 7706TIP3   OH244532   4.960   6.791  13.329 -0.3502  0.4159 -0.2808
 7706TIP3    H144533   4.896   6.854  13.362  0.0268  1.1810 -0.9830
 7706TIP3    H244534   4.998   6.833  13.252  0.3433 -0.4180 -0.4107
 7707TIP3   OH244535   6.420   5.952  16.556  0.1143  0.8094 -0.3362
 7707TIP3    H144536   6.341   5.931  16.506 -0.8067  1.7745  0.6426
 7707TIP3    H244537   6.448   6.038  16.524  2.3330 -0.5893 -2.4879
 7708TIP3   OH244538   6.688   0.194  16.694  0.2828 -0.0427 -0.2162
 7708TIP3    H144539   6.738   0.192  16.612 -1.6871 -1.8657 -1.4709
 7708TIP3    H244540   6.597   0.184  16.666 -0.4365 -0.7751  2.2032
 7709TIP3   OH244541   5.510   6.443  11.488 -0.5089  0.7767  0.7888
 7709TIP3    H144542   5.533   6.536  11.488 -0.8326  0.8602  1.0811
 7709TIP3    H244543   5.416   6.442  11.471 -0.1385  0.3816 -1.6137
 7710TIP3   OH244544   1.247   2.647   4.881 -0.3677  0.2007 -0.5404
 7710TIP3    H144545   1.306   2.709   4.925 -0.3409 -0.4458  0.3463
 7710TIP3    H244546   1.185   2.621   4.948  1.3082 -2.9244 -0.0246
 7711TIP3   OH244547   6.518   1.942  13.504 -0.4227  0.5414  0.2573
 7711TIP3    H144548   6.466   1.888  13.444 -3.0609  1.4996  1.5529
 7711TIP3    H244549   6.604   1.947  13.462 -1.0287 -1.9560 -1.5031
 7712TIP3   OH244550   1.076   0.043  14.660  0.3067  0.1109  0.1001
 7712TIP3    H144551   1.144   0.046  14.593 -0.3856 -1.8281 -0.7447
 7712TIP3    H244552   1.119   0.076  14.739  2.7489 -2.5075 -0.0012
 7713TIP3   OH244553   2.060   2.525  13.370  0.2268 -0.3551  0.4584
 7713TIP3    H144554   2.127   2.532  13.302 -0.2451  1.0656  0.0984
 7713TIP3    H244555   2.098   2.570  13.445 -0.6980  1.4405 -0.0919
 7714TIP3   OH244556   1.753   6.588   1.921 -0.1345  0.2197 -0.0152
 7714TIP3    H144557   1.842   6.572   1.890 -0.0818 -0.5975  0.5356
 7714TIP3    H244558   1.720   6.501   1.944 -0.5654  0.6741  1.1532
 7715TIP3   OH244559   1.268   0.020   5.598 -0.6399  0.1933 -0.3759
 7715TIP3    H144560   1.227   0.098   5.561  2.0632  2.1434  0.4356
 7715TIP3    H244561   1.333  -0.006   5.532  1.2784  1.1732  1.0102
 7716TIP3   OH244562   4.207   1.701  16.620  0.1834  0.0628  0.2855
 7716TIP3    H144563   4.141   1.743  16.565  1.3166 -0.3382 -1.4473
 7716TIP3    H244564   4.276   1.767  16.630  0.3167 -0.1225  0.6402
 7717TIP3   OH244565   6.787   6.447   1.484  0.7450 -0.2134 -0.2712
 7717TIP3    H144566   6.711   6.455   1.542  0.5446 -2.5434 -0.1154
 7717TIP3    H244567   6.828   6.534   1.485 -1.6251  0.9703  0.0100
 7718TIP3   OH244568   2.419   5.673   4.619 -0.5664  0.2813  0.5332
 7718TIP3    H144569   2.443   5.597   4.566 -0.3972  0.5593  0.2021
 7718TIP3    H244570   2.424   5.642   4.709 -0.1571 -0.0068  0.4151
 7719TIP3   OH244571   3.544   3.062   1.486  0.2732  0.1554 -0.3458
 7719TIP3    H144572   3.599   3.138   1.470 -1.4641  1.2765 -1.3065
 7719TIP3    H244573   3.593   2.989   1.449  1.3385  1.0245 -0.7043
 7720TIP3   OH244574   6.134   5.648  11.795  0.1922 -0.3303 -0.1186
 7720TIP3    H144575   6.164   5.568  11.753  0.4649 -0.5567  0.4948
 7720TIP3    H244576   6.054   5.622  11.842 -0.2112 -0.0398 -0.6340
 7721TIP3   OH244577   1.703   0.291   3.339  0.6543  0.2587 -0.6189
 7721TIP3    H144578   1.688   0.375   3.382 -0.7170 -1.1512  1.8942
 7721TIP3    H244579   1.739   0.314   3.254  1.4436  3.3383  0.4120
 7722TIP3   OH244580   4.288   4.138  12.890  0.0226  0.1907 -1.2657
 7722TIP3    H144581   4.366   4.153  12.944  0.2202 -0.3591 -1.3864
 7722TIP3    H244582   4.224   4.202  12.922 -0.7838 -1.7614  1.4633
 7723TIP3   OH244583   0.643   4.498  14.694  0.8616  0.0971  0.5132
 7723TIP3    H144584   0.680   4.472  14.609 -2.2659  0.3672 -1.0507
 7723TIP3    H244585   0.652   4.419  14.748 -0.9053 -1.6149 -1.4937
 7724TIP3   OH244586   1.574   0.253   2.341 -0.1767  0.1851  0.3974
 7724TIP3    H144587   1.585   0.311   2.266  1.1151  0.4665  0.7833
 7724TIP3    H244588   1.588   0.310   2.417 -1.4635 -0.0926  0.8767
 7725TIP3   OH244589   2.168   0.003  17.043  0.0910  1.0227  0.4735
 7725TIP3    H144590   2.075   0.023  17.052 -0.1316 -0.8113  3.5086
 7725TIP3    H244591   2.213   0.079  17.081 -0.1653  1.5137 -0.1830
 7726TIP3   OH244592   4.790   0.955   1.383  0.2142  0.0280 -0.2990
 7726TIP3    H144593   4.720   0.891   1.369 -0.2596  0.5901 -0.5505
 7726TIP3    H244594   4.781   0.980   1.475  1.0092 -0.9546  0.0756
 7727TIP3   OH244595   1.402   5.430   0.197 -0.2023 -0.2724  0.0676
 7727TIP3    H144596   1.376   5.504   0.251  0.2270 -1.4169  1.9191
 7727TIP3    H244597   1.387   5.460   0.107 -2.8340  0.9990  0.8213
 7728TIP3   OH244598   2.167   1.699  10.411  0.3852  0.2526 -0.8140
 7728TIP3    H144599   2.252   1.681  10.453  1.7093  1.3394 -2.8385
 7728TIP3    H244600   2.158   1.630  10.345  0.0413  0.5536 -1.0826
 7729TIP3   OH244601   0.789   0.695   3.099 -0.1617 -0.5270 -0.5464
 7729TIP3    H144602   0.809   0.674   3.007  0.7052  0.7442 -0.6678
 7729TIP3    H244603   0.838   0.630   3.149 -0.9904 -1.5136 -0.9646
 7730TIP3   OH244604   5.551   4.136  14.285  0.5975 -0.1380 -0.1867
 7730TIP3    H144605   5.585   4.215  14.327  0.7380  1.0860 -2.4495
 7730TIP3    H244606   5.479   4.167  14.229 -0.0174 -1.7643 -0.3588
 7731TIP3   OH244607   4.318   4.091  10.340 -0.5830  0.4321  0.1034
 7731TIP3    H144608   4.332   4.140  10.421  1.5791 -0.5223  0.3641
 7731TIP3    H244609   4.245   4.032  10.362 -1.1252  1.3129  0.7865
 7732TIP3   OH244610   3.172   5.691   2.404  0.3189 -0.2502 -0.0483
 7732TIP3    H144611   3.187   5.764   2.344  0.8491 -1.7965 -1.9072
 7732TIP3    H244612   3.081   5.701   2.432  0.2266  0.8360 -0.6702
 7733TIP3   OH244613   1.511   0.486   1.624  0.1067 -0.8423 -0.3680
 7733TIP3    H144614   1.452   0.557   1.648  0.6174 -0.7195  0.5554
 7733TIP3    H244615   1.569   0.525   1.558  0.0765 -0.5417 -0.2184
 7734TIP3   OH244616   0.320   2.378   0.778 -0.0659 -0.1852 -0.0275
 7734TIP3    H144617   0.237   2.416   0.749  0.3579  1.1228  0.4132
 7734TIP3    H244618   0.294   2.305   0.834 -0.9078 -0.0778 -0.2621
 7735TIP3   OH244619   1.577   2.393   4.428  0.0137  0.1733 -0.0311
 7735TIP3    H144620   1.625   2.426   4.505  1.0830  0.1344 -0.6508
 7735TIP3    H244621   1.632   2.322   4.395 -0.2560  0.4054 -1.0156
 7736TIP3   OH244622   6.779   3.047  12.185  0.3651  0.1005  0.4588
 7736TIP3    H144623   6.814   3.009  12.265  1.5314 -0.0006 -0.0798
 7736TIP3    H244624   6.846   3.031  12.119 -2.2903 -3.8915 -1.7174
 7737TIP3   OH244625   0.684   4.311   5.772  0.1737 -0.2191  0.1943
 7737TIP3    H144626   0.649   4.339   5.856  0.1528  0.8787 -0.1714
 7737TIP3    H244627   0.652   4.376   5.709  1.8734  0.1595 -0.3337
 7738TIP3   OH244628   2.801   5.778  12.007  0.1683  0.0431  0.3377
 7738TIP3    H144629   2.761   5.737  11.930  0.9163  0.4476 -0.2871
 7738TIP3    H244630   2.858   5.846  11.970 -0.0902  0.8009  1.2880
 7739TIP3   OH244631   2.747   3.205   3.626  0.5276  0.4021 -0.1721
 7739TIP3    H144632   2.677   3.143   3.607  0.0837  1.0499 -0.6813
 7739TIP3    H244633   2.807   3.156   3.683 -0.7491  0.1126  0.9582
 7740TIP3   OH244634   4.857   0.328   0.270  0.1593  0.3884 -0.4999
 7740TIP3    H144635   4.937   0.356   0.225 -0.9708  1.2290 -2.1073
 7740TIP3    H244636   4.790   0.329   0.201 -0.5672 -3.8694 -0.1125
 7741TIP3   OH244637   5.795   3.185  15.865  0.0908  0.6384 -0.4638
 7741TIP3    H144638   5.870   3.126  15.872 -0.1492  0.3585 -0.1952
 7741TIP3    H244639   5.789   3.226  15.951 -1.6690 -1.3271  0.4342
 7742TIP3   OH244640   1.732   5.666   3.645 -0.0288  0.8544  0.1642
 7742TIP3    H144641   1.700   5.580   3.673  0.2301  0.3269 -1.0619
 7742TIP3    H244642   1.653   5.718   3.634 -0.3838  0.1085 -1.1045
 7743TIP3   OH244643   0.839   4.935   1.091  0.0332 -0.2323 -0.4157
 7743TIP3    H144644   0.859   4.929   0.997  1.5856 -0.3791 -0.0894
 7743TIP3    H244645   0.797   4.851   1.111  2.5159 -1.5590 -0.3686
 7744TIP3   OH244646   3.749   1.331  16.773  0.3199  0.2897  0.0725
 7744TIP3    H144647   3.747   1.269  16.846 -1.4953 -0.1665 -0.3280
 7744TIP3    H244648   3.809   1.292  16.710  1.4033  0.3683  1.0053
 7745TIP3   OH244649   5.771   6.618   2.105 -0.2560 -0.1827 -0.4717
 7745TIP3    H144650   5.715   6.623   2.183  1.3228 -1.3470  0.8187
 7745TIP3    H244651   5.843   6.560   2.131  2.3018  2.2465 -1.5441
 7746TIP3   OH244652   1.457   4.155   6.590 -0.2980 -0.3283 -0.1953
 7746TIP3    H144653   1.424   4.152   6.680 -0.8052 -4.8897 -0.2909
 7746TIP3    H244654   1.378   4.156   6.535 -0.0456 -0.0603 -0.5575
 7747TIP3   OH244655   4.364   3.265   3.251  0.6404  0.1021 -0.0157
 7747TIP3    H144656   4.340   3.284   3.342 -0.3994 -0.0595 -0.2416
 7747TIP3    H244657   4.392   3.174   3.253 -0.7145 -0.3429 -0.0787
 7748TIP3   OH244658   0.959   5.877   1.778  0.1170  0.5825  0.3872
 7748TIP3    H144659   0.873   5.900   1.743 -0.1997 -0.8676  0.1338
 7748TIP3    H244660   1.015   5.871   1.700  0.2094  0.5609  0.4555
 7749TIP3   OH244661   3.066   4.657  12.221  0.7805  0.6338  0.0439
 7749TIP3    H144662   3.043   4.745  12.251 -0.8567  0.5265 -0.8112
 7749TIP3    H244663   3.146   4.636  12.270 -0.2105  1.5590  2.2007
 7750TIP3   OH244664   0.090   6.694  12.754  0.2995 -0.0619  0.0305
 7750TIP3    H144665   0.109   6.619  12.809  1.2691  0.3986  0.3363
 7750TIP3    H244666   0.116   6.770  12.806  0.5322  0.4176 -0.7598
 7751TIP3   OH244667   4.237   5.396   6.007  0.4616  0.3678 -0.6171
 7751TIP3    H144668   4.234   5.327   6.073 -2.4767 -0.0719 -1.0632
 7751TIP3    H244669   4.250   5.350   5.924  2.2111  0.7499 -0.5947
 7752TIP3   OH244670   1.904   2.938  11.349 -0.4853  0.4519  0.0210
 7752TIP3    H144671   1.977   2.975  11.299  0.2487  1.8849  2.0082
 7752TIP3    H244672   1.837   3.006  11.348 -1.0365 -0.0809 -0.1696
 7753TIP3   OH244673   1.190   3.350  12.253 -0.0353  0.0645 -0.2921
 7753TIP3    H144674   1.201   3.445  12.253  1.7001 -0.0851 -1.2166
 7753TIP3    H244675   1.178   3.327  12.345 -0.8035  1.1955 -0.0885
 7754TIP3   OH244676   5.303   6.707   0.844 -0.4214 -0.0559 -0.3049
 7754TIP3    H144677   5.298   6.764   0.920 -1.0932  1.1444 -1.2071
 7754TIP3    H244678   5.287   6.765   0.769 -3.1246 -1.6881 -1.1552
 7755TIP3   OH244679   4.881   5.175  14.960 -0.6920 -0.4178  0.1946
 7755TIP3    H144680   4.840   5.138  15.038 -2.4545 -2.1059 -1.4103
 7755TIP3    H244681   4.880   5.103  14.896  1.9060  0.4826 -1.0028
 7756TIP3   OH244682   1.625   6.038  13.660 -0.1943 -0.2649  0.4796
 7756TIP3    H144683   1.546   6.019  13.610  1.3918 -1.2504 -1.8038
 7756TIP3    H244684   1.662   6.116  13.619  0.8585 -0.7674  0.4279
 7757TIP3   OH244685   5.420   3.954   4.044  0.1291  0.4520 -0.5266
 7757TIP3    H144686   5.407   3.860   4.035  0.9117  0.4433 -1.9076
 7757TIP3    H244687   5.422   3.969   4.138 -3.3916 -0.3851 -0.1721
 7758TIP3   OH244688   1.520   1.726   2.925 -0.5172  0.0843 -0.2089
 7758TIP3    H144689   1.466   1.802   2.905 -1.9969 -0.6178  0.8678
 7758TIP3    H244690   1.462   1.651   2.910  0.6943 -0.8122 -0.6192
 7759TIP3   OH244691   5.038   5.108  13.791 -0.8327  0.0034 -0.5163
 7759TIP3    H144692   5.127   5.093  13.759 -1.4654  0.4792 -2.6594
 7759TIP3    H244693   5.041   5.195  13.830 -0.3463 -0.0108 -0.5165
 7760TIP3   OH244694   0.055   3.655   5.143 -0.3568 -0.1187 -0.3322
 7760TIP3    H144695   0.129   3.594   5.143 -0.3080 -0.1032  1.1794
 7760TIP3    H244696  -0.018   3.603   5.110  0.1618 -0.3443 -1.1478
 7761TIP3   OH244697   4.919   4.723  13.197 -0.5592 -0.1794 -0.3599
 7761TIP3    H144698   4.976   4.673  13.139 -0.0042 -0.0119  0.0359
 7761TIP3    H244699   4.894   4.661  13.265  0.8572  0.2944  0.6358
 7762TIP3   OH244700   3.748   1.151  12.185  0.2983  0.0064  0.0970
 7762TIP3    H144701   3.741   1.058  12.203 -1.1048  0.4562  2.1338
 7762TIP3    H244702   3.841   1.164  12.165  0.8228 -1.5847  1.2677
 7763TIP3   OH244703   0.842   2.089   4.790 -0.7868  0.3329 -0.3359
 7763TIP3    H144704   0.937   2.094   4.800 -0.6279  0.1339 -1.5495
 7763TIP3    H244705   0.822   2.148   4.717 -1.2547 -1.5451 -1.8034
 7764TIP3   OH244706   5.738   6.465  12.721 -0.2848 -0.4713  0.4426
 7764TIP3    H144707   5.760   6.459  12.628 -1.3343 -1.1729  0.2116
 7764TIP3    H244708   5.730   6.374  12.750 -0.2981 -0.2589  1.1349
 7765TIP3   OH244709   1.024   4.843   4.096 -0.1462 -0.3329 -0.0274
 7765TIP3    H144710   1.077   4.919   4.118  0.1630 -0.3785 -0.5869
 7765TIP3    H244711   0.934   4.875   4.096 -0.1085 -0.2177  0.7752
 7766TIP3   OH244712   4.526   2.214  12.216 -0.4462  0.0081 -0.3237
 7766TIP3    H144713   4.472   2.204  12.294 -0.6595 -1.5620 -0.6237
 7766TIP3    H244714   4.489   2.152  12.153  1.5260 -0.9690 -0.6276
 7767TIP3   OH244715   2.808   0.051  11.273  0.7248  0.3866  0.0511
 7767TIP3    H144716   2.853   0.084  11.351 -0.7619  0.0921  1.0808
 7767TIP3    H244717   2.876   0.004  11.225  1.5378 -0.0475  1.5484
 7768TIP3   OH244718   5.754   6.135   2.299  0.3833 -0.5627 -0.4645
 7768TIP3    H144719   5.722   6.202   2.238  0.1988 -1.9193 -1.9285
 7768TIP3    H244720   5.695   6.139   2.373  0.0935  0.5746 -0.7396
 7769TIP3   OH244721   3.943   5.479   1.974  0.7023  0.4660  0.0022
 7769TIP3    H144722   3.974   5.469   2.064 -0.2051 -0.8102  0.2089
 7769TIP3    H244723   4.008   5.536   1.932  0.1078  2.8163  1.9780
 7770TIP3   OH244724   1.377   2.388  11.624  0.0398 -0.1323 -0.3407
 7770TIP3    H144725   1.292   2.421  11.593  0.9592  0.5571 -2.3174
 7770TIP3    H244726   1.431   2.466  11.632  0.4492 -0.5443  1.1218
 7771TIP3   OH244727   5.909   5.196  14.916  0.1202 -0.1956  0.3284
 7771TIP3    H144728   5.814   5.199  14.921 -0.0487 -1.6490 -1.1340
 7771TIP3    H244729   5.932   5.109  14.951  0.9677  0.3188  1.1158
 7772TIP3   OH244730   5.179   1.552   0.458 -0.2584 -0.2976 -0.0483
 7772TIP3    H144731   5.101   1.598   0.427  0.8068  1.4211 -0.3394
 7772TIP3    H244732   5.155   1.460   0.458 -1.9929  0.1179 -0.9893
 7773TIP3   OH244733   6.779   2.551  10.583  0.4210  0.3861 -0.2582
 7773TIP3    H144734   6.851   2.610  10.605  0.7940  0.2338 -1.0348
 7773TIP3    H244735   6.791   2.532  10.490 -0.9996  0.8640 -0.5608
 7774TIP3   OH244736   5.506   5.927   1.328 -0.2082  0.9559 -0.4467
 7774TIP3    H144737   5.475   6.010   1.290 -0.9248  0.7330 -0.3775
 7774TIP3    H244738   5.547   5.952   1.411 -0.2338  1.2639 -0.5248
 7775TIP3   OH244739   0.029   4.607   3.465  0.5614  0.1153 -0.1730
 7775TIP3    H144740  -0.060   4.580   3.440  0.9624 -1.4044 -0.0668
 7775TIP3    H244741   0.085   4.571   3.397  1.1364  0.8646 -0.1090
 7776TIP3   OH244742   0.300   0.336  15.032  0.2706 -0.0961 -0.7817
 7776TIP3    H144743   0.362   0.269  15.063 -0.9610 -0.6779  0.5510
 7776TIP3    H244744   0.220   0.287  15.012  0.2257  0.6227 -2.6056
 7777TIP3   OH244745   2.543   4.797  12.538 -0.2079 -0.4066 -0.2243
 7777TIP3    H144746   2.501   4.713  12.553 -0.7678  0.1276  1.4859
 7777TIP3    H244747   2.636   4.776  12.526 -0.1251 -1.1991  1.5253
 7778TIP3   OH244748   1.285   0.267   1.971 -0.1977 -0.2024 -0.1952
 7778TIP3    H144749   1.281   0.333   2.040  0.1174  1.6081 -1.8126
 7778TIP3    H244750   1.193   0.245   1.954 -0.3363  0.2051  0.0024
 7779TIP3   OH244751   3.141   0.392  10.884  0.2429  0.2607 -0.2645
 7779TIP3    H144752   3.211   0.333  10.911 -0.8550 -0.3333  1.5151
 7779TIP3    H244753   3.065   0.335  10.873 -1.0015  1.2860  2.0767
 7780TIP3   OH244754   0.316   5.997  11.793  0.6561 -0.5128 -0.2342
 7780TIP3    H144755   0.245   6.061  11.780  0.1054 -0.7872  1.2327
 7780TIP3    H244756   0.307   5.936  11.719 -1.7978 -1.5627  0.8046
 7781TIP3   OH244757   5.051   3.280   5.361  0.1881  0.5571  0.0370
 7781TIP3    H144758   5.137   3.322   5.357  1.6935 -2.1249  1.3180
 7781TIP3    H244759   5.047   3.242   5.448 -1.5292 -0.9056 -0.6087
 7782TIP3   OH244760   2.667   2.203  12.242 -0.1470 -0.2817 -0.4446
 7782TIP3    H144761   2.731   2.225  12.175 -0.3722 -1.3294 -1.0236
 7782TIP3    H244762   2.710   2.137  12.297 -0.3766 -0.2777 -0.2548
 7783TIP3   OH244763   1.840   4.349  15.834  0.9110 -0.0717  0.3299
 7783TIP3    H144764   1.751   4.321  15.813  1.1994 -0.8231  0.0451
 7783TIP3    H244765   1.832   4.397  15.916  0.1211  0.6313 -0.1410
 7784TIP3   OH244766   3.492   0.462   6.103 -0.2660  0.3903 -0.0468
 7784TIP3    H144767   3.410   0.415   6.088  1.2471 -2.0551 -1.2571
 7784TIP3    H244768   3.507   0.511   6.022 -1.4278  2.4725  0.9099
 7785TIP3   OH244769   5.713   6.632   1.044 -0.5258  0.3980 -0.5130
 7785TIP3    H144770   5.789   6.645   0.988 -1.6400  2.2672 -1.6858
 7785TIP3    H244771   5.703   6.715   1.091 -1.1993 -0.2061  0.4517
 7786TIP3   OH244772   3.645   1.373   0.188  0.2475 -0.1604 -0.2487
 7786TIP3    H144773   3.656   1.468   0.189  1.5119 -0.2814 -0.8623
 7786TIP3    H244774   3.636   1.348   0.280 -0.5977  0.5961 -0.1194
 7787TIP3   OH244775   2.219   1.184   1.369 -0.5752 -0.4443 -0.1232
 7787TIP3    H144776   2.302   1.226   1.392 -1.3067  1.3289 -0.5238
 7787TIP3    H244777   2.227   1.095   1.402  0.9779  0.0677  1.0059
 7788TIP3   OH244778   1.990   6.355   5.439  0.4281 -0.4808  0.2424
 7788TIP3    H144779   1.984   6.331   5.532 -0.8402 -0.2614  0.2266
 7788TIP3    H244780   2.072   6.315   5.410  1.4781  0.4467  1.7443
 7789TIP3   OH244781   5.899   2.579   2.755 -0.8592  0.2880  0.1673
 7789TIP3    H144782   5.981   2.539   2.784 -0.2472  0.4259 -1.2908
 7789TIP3    H244783   5.921   2.671   2.740 -0.9980  0.1282 -1.1677
 7790TIP3   OH244784   0.812   3.458  16.254  0.0048  0.5148  0.2726
 7790TIP3    H144785   0.886   3.441  16.197 -0.3273 -0.7742  0.2121
 7790TIP3    H244786   0.822   3.397  16.327 -0.9938  0.3021  0.2574
 7791TIP3   OH244787   3.102   1.073  15.790 -0.0858  0.2121  1.0133
 7791TIP3    H144788   3.146   1.090  15.873 -0.2256 -1.8075  1.5362
 7791TIP3    H244789   3.128   0.985  15.766 -0.5727  0.5184 -0.7777
 7792TIP3   OH244790   5.354   2.204   1.365  0.0609 -0.0545  0.3173
 7792TIP3    H144791   5.381   2.221   1.455  0.3647  1.5747 -0.0590
 7792TIP3    H244792   5.362   2.288   1.320  0.4439 -0.9395 -1.3769
 7793TIP3   OH244793   6.054   4.794   4.277 -0.0382  0.1068  0.1171
 7793TIP3    H144794   6.111   4.750   4.340  0.4229 -0.7486 -0.8697
 7793TIP3    H244795   6.109   4.804   4.198 -0.9586  0.0862 -0.5389
 7794TIP3   OH244796   3.233   1.348  13.024 -0.4465  0.2619 -0.5405
 7794TIP3    H144797   3.310   1.405  13.022  1.0771 -1.6977 -1.7780
 7794TIP3    H244798   3.258   1.276  13.082 -0.8638 -0.9769 -1.8290
 7795TIP3   OH244799   0.151   1.146  10.617  0.0099  0.1170 -0.1187
 7795TIP3    H144800   0.189   1.207  10.554 -1.2762  1.2537  0.1452
 7795TIP3    H244801   0.102   1.084  10.563 -0.7223  0.8213 -0.2865
 7796TIP3   OH244802   0.091   6.778   2.017 -0.0465  0.3730 -0.1820
 7796TIP3    H144803  -0.003   6.780   1.995 -0.2367  2.0604  0.6276
 7796TIP3    H244804   0.099   6.711   2.084 -0.4962 -0.4476 -0.9243
 7797TIP3   OH244805   0.182   3.014  12.037  0.1008  0.0205 -0.1063
 7797TIP3    H144806   0.261   3.005  12.090  0.3387  0.9137 -0.3014
 7797TIP3    H244807   0.212   3.003  11.947 -0.1972 -0.8319 -0.1122
 7798TIP3   OH244808   3.194   0.741  15.104 -0.0328 -0.1720 -0.0716
 7798TIP3    H144809   3.286   0.714  15.101  0.1089  0.3463 -0.6754
 7798TIP3    H244810   3.197   0.836  15.102 -0.5746 -0.1434  0.3339
 7799TIP3   OH244811   2.388   5.742  13.074 -0.0416 -0.7252 -1.0188
 7799TIP3    H144812   2.325   5.699  13.017  0.3599 -2.6057 -0.1201
 7799TIP3    H244813   2.417   5.673  13.134 -0.7076  1.1996  1.7112
 7800TIP3   OH244814   2.203   4.616  16.363 -0.8540  0.1350  0.0035
 7800TIP3    H144815   2.180   4.678  16.432  0.9534 -0.1825  0.9483
 7800TIP3    H244816   2.248   4.669  16.297 -0.3795  0.0335  0.2431
 7801TIP3   OH244817   6.447   1.596  11.489  0.3844 -0.2166 -0.2813
 7801TIP3    H144818   6.411   1.587  11.401 -0.3356  1.6137 -0.2240
 7801TIP3    H244819   6.432   1.511  11.530 -1.8330 -0.2458 -1.0183
 7802TIP3   OH244820   1.469   2.158   0.387 -0.3084 -0.0801  0.1744
 7802TIP3    H144821   1.524   2.233   0.408 -0.8153  0.1626  0.6385
 7802TIP3    H244822   1.391   2.196   0.345 -0.6306 -0.3329  0.5394
 7803TIP3   OH244823   0.302   0.947   4.294 -0.2120  0.6129  0.3855
 7803TIP3    H144824   0.311   0.901   4.211 -0.7247  2.4116 -0.7021
 7803TIP3    H244825   0.239   1.017   4.277 -0.2124  1.1202  2.2412
 7804TIP3   OH244826   3.652   1.051   3.857 -0.1263 -0.0973 -0.3390
 7804TIP3    H144827   3.681   1.138   3.830 -1.3153  0.6552  0.6701
 7804TIP3    H244828   3.630   1.061   3.950  0.1858 -1.6051 -0.0849
 7805TIP3   OH244829   0.129   1.122   3.977 -0.2634 -0.0513 -0.5934
 7805TIP3    H144830   0.198   1.138   3.912 -0.8443 -0.3411 -1.2961
 7805TIP3    H244831   0.124   1.203   4.027 -0.9456  0.8116 -1.9958
 7806TIP3   OH244832   4.849   4.646   4.198 -0.4114  0.1211  0.3383
 7806TIP3    H144833   4.888   4.694   4.272 -2.7913 -0.5550  2.1555
 7806TIP3    H244834   4.849   4.555   4.226 -2.2136 -0.0320 -0.0430
 7807TIP3   OH244835   3.198   1.475  10.944 -0.4240  0.5373 -0.6646
 7807TIP3    H144836   3.276   1.513  10.983 -0.0824 -0.3695 -0.4318
 7807TIP3    H244837   3.226   1.388  10.915 -0.6228  1.2033 -3.0700
 7808TIP3   OH244838   5.534   5.754  12.188  0.0483 -0.3905  0.1945
 7808TIP3    H144839   5.508   5.826  12.246  2.0639  0.9504 -0.4719
 7808TIP3    H244840   5.610   5.715  12.231  1.8223  0.8747 -1.6473
 7809TIP3   OH244841   1.715   3.266   1.427  1.0533  0.0177  0.0002
 7809TIP3    H144842   1.799   3.221   1.432  0.3631 -1.2949  0.2166
 7809TIP3    H244843   1.676   3.236   1.345  0.9610  0.9309 -0.2978
 7810TIP3   OH244844   5.093   0.877  13.245 -0.2324  0.8186 -0.1242
 7810TIP3    H144845   5.104   0.884  13.150 -2.6094 -2.7829 -0.8525
 7810TIP3    H244846   5.004   0.906  13.262 -0.0613  0.7903  0.8914
 7811TIP3   OH244847   3.296   0.733   1.035  0.3879 -0.1389  0.2829
 7811TIP3    H144848   3.247   0.659   1.070 -0.1015  0.8391  1.7874
 7811TIP3    H244849   3.344   0.697   0.961 -0.9182 -1.6256  0.0975
 7812TIP3   OH244850   0.050   5.000  12.373  0.0958 -0.7201  0.1079
 7812TIP3    H144851  -0.012   4.948  12.322 -0.0728  0.1178 -0.5542
 7812TIP3    H244852   0.081   4.939  12.441 -2.1363 -0.9219  1.0487
 7813TIP3   OH244853   2.357   5.102   0.614  0.4775  0.0740 -0.5036
 7813TIP3    H144854   2.332   5.099   0.522 -1.4828 -0.6187 -0.0004
 7813TIP3    H244855   2.336   5.191   0.643 -0.6563 -0.2422 -0.3055
 7814TIP3   OH244856   0.547   0.649  13.513  0.3002  0.0861 -0.3684
 7814TIP3    H144857   0.630   0.609  13.489  0.3842  1.0263 -1.8149
 7814TIP3    H244858   0.490   0.634  13.437 -0.1823  1.2079 -0.2554
 7815TIP3   OH244859   3.968   1.413  13.767 -0.0447  0.4080 -0.7422
 7815TIP3    H144860   3.915   1.410  13.847  0.8277  0.9988 -0.1231
 7815TIP3    H244861   3.927   1.482  13.714 -0.0921  0.6497 -0.3998
 7816TIP3   OH244862   1.770   6.294   5.762 -0.1296 -0.6011  0.0629
 7816TIP3    H144863   1.826   6.221   5.789 -2.0364 -2.2842 -0.2739
 7816TIP3    H244864   1.702   6.298   5.830 -0.6897  0.1134 -0.5292
 7817TIP3   OH244865   3.739   0.023  12.123  0.1801 -1.1078 -0.4538
 7817TIP3    H144866   3.650   0.000  12.151  0.6349 -0.9076  1.2670
 7817TIP3    H244867   3.737   0.118  12.112  0.8004 -0.7058  2.2220
 7818TIP3   OH244868   1.525   0.952   3.829 -0.3643  0.2186  0.2493
 7818TIP3    H144869   1.481   0.875   3.795  1.6197 -0.8544 -0.0816
 7818TIP3    H244870   1.507   1.021   3.765  0.5626 -0.8823 -1.2674
 7819TIP3   OH244871   4.725   1.836  12.044  0.4227  0.9944  0.3086
 7819TIP3    H144872   4.804   1.782  12.041 -0.8193 -1.0693  1.9928
 7819TIP3    H244873   4.671   1.804  11.972  0.4094  1.2474  0.2046
 7820TIP3   OH244874   6.194   4.462   2.267  0.1806  0.2237  0.2286
 7820TIP3    H144875   6.198   4.554   2.239  0.1755 -0.1576 -1.1024
 7820TIP3    H244876   6.116   4.458   2.323 -0.0925  0.9374 -0.0805
 7821TIP3   OH244877   6.290   6.660  12.737 -0.9898  0.0539 -0.1207
 7821TIP3    H144878   6.231   6.731  12.762 -1.8911 -1.3322  2.0139
 7821TIP3    H244879   6.243   6.580  12.761  1.3341 -1.1531  0.7827
 7822TIP3   OH244880   3.314   3.819  15.545 -0.0892  0.2197  1.1497
 7822TIP3    H144881   3.234   3.871  15.543 -0.0523  0.2767 -0.6457
 7822TIP3    H244882   3.286   3.729  15.526  0.2147  0.1757  0.8822
 7823TIP3   OH244883   5.997   6.289   1.936  0.1977 -0.4217 -0.0684
 7823TIP3    H144884   5.992   6.265   2.029 -0.2978 -0.2799 -0.0585
 7823TIP3    H244885   6.074   6.241   1.904 -0.2326 -1.2965  0.1742
 7824TIP3   OH244886   5.053   1.953   3.153  0.6970 -0.1189 -0.0199
 7824TIP3    H144887   5.080   1.909   3.073  1.3517 -0.0421  0.1540
 7824TIP3    H244888   5.069   1.888   3.222  0.3131 -0.1190  0.0701
 7825TIP3   OH244889   3.502   2.580  11.949  0.6357 -0.0616 -0.8685
 7825TIP3    H144890   3.519   2.591  11.856 -1.1373 -1.3809 -1.3951
 7825TIP3    H244891   3.468   2.665  11.977  0.8921  0.2484 -1.4754
 7826TIP3   OH244892   2.296   1.175  16.634 -0.2873 -0.3809 -0.0455
 7826TIP3    H144893   2.222   1.181  16.574 -0.9183  0.5751  0.7895
 7826TIP3    H244894   2.267   1.112  16.701  0.2434 -1.1175 -0.4961
 7827TIP3   OH244895   0.951   4.022  16.224  0.0581 -0.2384 -0.0179
 7827TIP3    H144896   1.038   4.062  16.225 -0.1463  0.2087  0.3029
 7827TIP3    H244897   0.965   3.933  16.255  0.1700  0.3326  1.7000
 7828TIP3   OH244898   1.514   4.811   4.850 -0.9710 -0.1643  0.2287
 7828TIP3    H144899   1.470   4.732   4.881 -1.9691  0.3256  0.0974
 7828TIP3    H244900   1.539   4.858   4.929 -0.5204 -0.5227  0.3044
 7829TIP3   OH244901   1.099   2.201  11.786 -0.6411 -0.4004  0.2594
 7829TIP3    H144902   1.157   2.202  11.710 -1.1016  0.8663 -0.1022
 7829TIP3    H244903   1.026   2.145  11.760 -1.3642  0.9272 -0.7038
 7830TIP3   OH244904   6.275   5.185   1.757 -0.4141  0.3392  0.2021
 7830TIP3    H144905   6.358   5.176   1.803 -0.3285  1.5024  0.2964
 7830TIP3    H244906   6.268   5.105   1.705  0.9792  0.4275 -0.1623
 7831TIP3   OH244907   5.360   2.727   2.777  0.0352  0.3034  0.2724
 7831TIP3    H144908   5.317   2.746   2.861 -1.5581 -0.5144 -0.3219
 7831TIP3    H244909   5.386   2.635   2.784 -1.1568 -0.1197 -0.5314
 7832TIP3   OH244910   1.291   5.675   2.747 -0.1632 -0.1777  0.4519
 7832TIP3    H144911   1.303   5.751   2.804  2.1381  0.9287 -1.3345
 7832TIP3    H244912   1.358   5.685   2.679  0.1597 -3.7725  0.0562
 7833TIP3   OH244913   6.697   4.805  12.281  0.1167  0.0381  0.3533
 7833TIP3    H144914   6.662   4.785  12.368 -0.4134  0.7376  0.3121
 7833TIP3    H244915   6.626   4.784  12.221  0.7710 -1.2390 -0.0009
 7834TIP3   OH244916   4.839   2.992  15.996  0.0853 -0.5524  0.0821
 7834TIP3    H144917   4.895   3.060  16.034 -1.9532 -0.1351  2.6516
 7834TIP3    H244918   4.751   3.030  16.000 -0.8244 -2.5074 -0.5098
 7835TIP3   OH244919   1.361   2.226   2.453  0.2414  0.1000 -0.7100
 7835TIP3    H144920   1.349   2.320   2.464  1.2508  0.1966 -0.3320
 7835TIP3    H244921   1.393   2.195   2.538  1.1166 -0.3654 -1.1906
 7836TIP3   OH244922   6.073   5.634  14.878  0.5938  0.1499  0.0686
 7836TIP3    H144923   6.069   5.539  14.876  0.2013  0.1675 -0.0500
 7836TIP3    H244924   6.163   5.655  14.852  1.9733 -0.2991  3.7869
 7837TIP3   OH244925   1.226   1.818   6.010  0.0194 -0.1685  0.2040
 7837TIP3    H144926   1.138   1.810   6.046 -0.8989 -0.6382 -1.9510
 7837TIP3    H244927   1.214   1.804   5.916  2.5150 -1.0468 -0.0576
 7838TIP3   OH244928   2.564   6.390   3.788 -0.2225 -0.1904  0.0135
 7838TIP3    H144929   2.538   6.474   3.749 -1.8927  0.1370  1.6725
 7838TIP3    H244930   2.577   6.410   3.880  1.9858 -1.2775  0.0061
 7839TIP3   OH244931   3.049   0.173  12.727  0.4516  0.3761 -0.7586
 7839TIP3    H144932   3.025   0.128  12.646  1.4249 -0.8442 -0.3986
 7839TIP3    H244933   3.145   0.165  12.732  0.5138  1.3406 -0.0091
 7840TIP3   OH244934   4.981   1.016   4.611 -0.8405 -0.4682 -0.0828
 7840TIP3    H144935   5.075   1.006   4.626 -0.5618  3.1621  1.6654
 7840TIP3    H244936   4.940   0.945   4.660  0.9236 -0.7874  0.9819
 7841TIP3   OH244937   5.132   5.990  17.018  0.1448  0.3072 -0.6151
 7841TIP3    H144938   5.040   5.983  16.992  0.1108  0.5656 -0.5704
 7841TIP3    H244939   5.137   6.074  17.065 -0.2996 -1.1295  2.2264
 7842TIP3   OH244940   6.590   2.723   2.405  0.3234  0.0664 -0.8448
 7842TIP3    H144941   6.540   2.729   2.324  0.0732  0.7515 -0.6476
 7842TIP3    H244942   6.597   2.813   2.436  1.3066 -0.0616 -0.6388
 7843TIP3   OH244943   1.763   2.154   2.022 -0.2233 -0.1423  0.2460
 7843TIP3    H144944   1.767   2.208   2.100  0.3043 -0.1789  0.2491
 7843TIP3    H244945   1.843   2.175   1.974  1.2335 -2.5861  1.3777
 7844TIP3   OH244946   5.775   3.874  12.690 -0.3493  0.5185  0.1466
 7844TIP3    H144947   5.717   3.872  12.613 -0.9529 -0.3500  0.6054
 7844TIP3    H244948   5.832   3.798  12.679 -0.5587  0.2837  0.6355
 7845TIP3   OH244949   5.513   5.603   5.948 -0.2907  0.2555  0.1034
 7845TIP3    H144950   5.564   5.536   5.994  0.7697  1.9177  1.4494
 7845TIP3    H244951   5.423   5.571   5.951  0.1753 -1.0588  0.7982
 7846TIP3   OH244952   5.602   4.760   5.012 -0.5422 -0.3595  0.0810
 7846TIP3    H144953   5.635   4.841   5.051 -1.2577 -0.3170  0.6079
 7846TIP3    H244954   5.678   4.722   4.968 -0.5732  1.5127 -1.7777
 7847TIP3   OH244955   1.821   3.649  12.049 -0.6150  0.1513  0.0184
 7847TIP3    H144956   1.895   3.679  12.102  0.8154 -1.8978 -0.6936
 7847TIP3    H244957   1.747   3.699  12.083  0.9175  1.7214  1.3075
 7848TIP3   OH244958   3.536   5.184   5.126 -0.1919  0.3214 -0.4786
 7848TIP3    H144959   3.514   5.267   5.084 -0.9301 -0.9162 -2.7138
 7848TIP3    H244960   3.486   5.184   5.207 -2.8399  0.6968 -2.0015
 7849TIP3   OH244961   4.033   3.815  12.956 -0.3282 -0.1145  0.1199
 7849TIP3    H144962   4.078   3.877  13.013 -0.0481 -0.1234 -0.0904
 7849TIP3    H244963   3.991   3.870  12.889 -1.6144 -0.0111  0.9763
 7850TIP3   OH244964   6.589   0.955  11.327  0.9293 -0.4775  0.3387
 7850TIP3    H144965   6.615   0.928  11.239  0.8259 -0.8562  0.4250
 7850TIP3    H244966   6.630   0.892  11.385  0.0427 -0.9278  0.4924
 7851TIP3   OH244967   2.017   2.035  14.439 -0.3213  0.0252  0.0922
 7851TIP3    H144968   1.992   2.058  14.529 -0.5763  0.2413 -0.0337
 7851TIP3    H244969   2.046   2.117  14.401 -0.2708 -0.0565 -0.0435
 7852TIP3   OH244970   1.000   0.991   2.241 -0.5696 -0.1605  0.0212
 7852TIP3    H144971   1.046   1.069   2.273 -0.2427 -0.5775  0.5875
 7852TIP3    H244972   0.983   1.010   2.149  1.2397 -0.2223 -0.3558
 7853TIP3   OH244973   4.169   5.549   1.026 -0.3022  0.0857 -0.0283
 7853TIP3    H144974   4.175   5.561   0.931 -2.0227  0.2333 -0.1488
 7853TIP3    H244975   4.169   5.638   1.061 -0.8408  0.0669  0.0198
 7854TIP3   OH244976   4.014   2.685  12.095 -0.1682  0.0311  0.0098
 7854TIP3    H144977   3.937   2.639  12.127  0.5795 -1.2098  0.0706
 7854TIP3    H244978   4.010   2.677  12.000  0.9575 -1.8991  0.0744
 7855TIP3   OH244979   6.380   3.993  15.040  0.0273 -0.5308  0.0499
 7855TIP3    H144980   6.438   4.000  14.964 -1.9606 -0.5902 -1.5505
 7855TIP3    H244981   6.348   4.082  15.053 -1.6339 -0.9492 -0.8856
 7856TIP3   OH244982   4.785   1.925   6.086 -0.2234 -0.1369 -0.9281
 7856TIP3    H144983   4.765   1.843   6.131  5.6084 -1.0004  1.0325
 7856TIP3    H244984   4.799   1.988   6.156 -1.2509  1.6647 -2.2540
 7857TIP3   OH244985   1.214   5.542   4.933  0.3228  0.7697  0.4994
 7857TIP3    H144986   1.238   5.467   4.988  0.2856  0.5339  0.2010
 7857TIP3    H244987   1.246   5.618   4.980  0.0290  0.5949  0.9904
 7858TIP3   OH244988   1.335   2.095  13.381 -0.7335  0.4181  0.8708
 7858TIP3    H144989   1.338   2.191  13.377 -0.3631  0.4336  1.3615
 7858TIP3    H244990   1.408   2.071  13.438 -0.1147 -0.2288 -0.1617
 7859TIP3   OH244991   1.674   2.460  13.778 -0.0409  0.0801  0.4941
 7859TIP3    H144992   1.657   2.542  13.730 -1.1303  0.1555  0.9730
 7859TIP3    H244993   1.767   2.442  13.763  0.0975  1.1443 -0.0235
 7860TIP3   OH244994   3.966   5.983   3.978 -0.3559  0.1306 -0.3631
 7860TIP3    H144995   3.951   6.041   4.053  0.7601  1.5536 -1.1835
 7860TIP3    H244996   4.061   5.985   3.965 -0.3554 -1.4437 -0.7966
 7861TIP3   OH244997   4.440   3.677   5.955  0.2500 -0.3364 -0.0978
 7861TIP3    H144998   4.410   3.719   5.874  1.3030  1.6603  0.4982
 7861TIP3    H244999   4.367   3.621   5.981 -2.3889  2.9694  0.3365
 7862TIP3   OH245000   0.251   5.186   6.437  0.0655  0.1277 -0.4372
 7862TIP3    H145001   0.197   5.148   6.506 -0.5113 -1.7914 -1.8528
 7862TIP3    H245002   0.341   5.173   6.466 -0.1503  1.7542  1.1221
 7863TIP3   OH245003   6.051   4.081   2.380 -0.1031  0.3746 -0.6179
 7863TIP3    H145004   5.971   4.129   2.398  0.2103  0.8905 -0.5850
 7863TIP3    H245005   6.026   4.018   2.312 -0.4956  0.6393 -0.7245
 7864TIP3   OH245006   2.629   0.722  11.903 -0.2340  0.0957 -0.2089
 7864TIP3    H145007   2.679   0.798  11.934 -1.0260 -0.0375  1.5164
 7864TIP3    H245008   2.685   0.647  11.920 -0.2582  0.1141 -0.0510
 7865TIP3   OH245009   5.461   5.718  12.579  0.6346 -0.3680 -0.1260
 7865TIP3    H145010   5.413   5.702  12.660  1.0990  0.3178  0.2932
 7865TIP3    H245011   5.523   5.645  12.573 -1.7383 -2.4703 -1.7384
 7866TIP3   OH245012   5.422   2.814  10.597 -0.4883 -0.0839 -0.0652
 7866TIP3    H145013   5.383   2.899  10.577 -0.2080 -0.0067 -0.3039
 7866TIP3    H245014   5.452   2.822  10.688 -1.9412 -0.4996  0.4815
 7867TIP3   OH245015   2.794   5.047   5.257 -0.2633  0.4182  0.6664
 7867TIP3    H145016   2.720   5.065   5.315  0.3476  1.3276  1.1735
 7867TIP3    H245017   2.842   4.976   5.300 -0.5822  0.1342  0.5609
 7868TIP3   OH245018   0.915   6.429  16.788  0.4928 -0.9989  0.8384
 7868TIP3    H145019   0.865   6.461  16.863 -0.2856  1.4930 -0.6483
 7868TIP3    H245020   1.000   6.471  16.796  0.1776 -0.1789 -0.0198
 7869TIP3   OH245021   4.640   0.213  11.895 -0.6790  0.0929  0.1935
 7869TIP3    H145022   4.562   0.179  11.851 -0.0932 -1.5047  0.2962
 7869TIP3    H245023   4.689   0.134  11.921  0.9875  1.0387  0.0925
 7870TIP3   OH245024   3.091   0.976   5.474  0.3108  0.3730  0.3966
 7870TIP3    H145025   3.040   1.056   5.460 -1.0936 -0.7225 -1.1456
 7870TIP3    H245026   3.038   0.924   5.534 -0.0246 -0.4098 -0.5423
 7871TIP3   OH245027   2.277   1.530   1.541 -0.2806 -0.3175  0.3085
 7871TIP3    H145028   2.333   1.586   1.594  0.9209  0.2803 -1.4841
 7871TIP3    H245029   2.189   1.567   1.551  0.1099  0.4539  0.9799
 7872TIP3   OH245030   6.336   5.762   2.049 -0.4110 -0.5887  0.1557
 7872TIP3    H145031   6.425   5.784   2.023 -0.6516 -0.4862 -0.6322
 7872TIP3    H245032   6.326   5.670   2.023 -0.5595 -0.5701  0.1454
 7873TIP3   OH245033   1.425   6.160  11.850  0.0581 -0.6108  0.0906
 7873TIP3    H145034   1.512   6.142  11.813 -0.9238 -1.8445 -1.7566
 7873TIP3    H245035   1.373   6.191  11.777 -0.5109  2.4696  1.6401
 7874TIP3   OH245036   4.627   5.407  11.975 -0.2801  0.1597 -0.4377
 7874TIP3    H145037   4.620   5.361  11.891 -0.2167 -1.2544  0.3020
 7874TIP3    H245038   4.581   5.351  12.037  0.8197  0.5126  0.7306
 7875TIP3   OH245039   0.673   4.959   0.311  0.2745  0.3459 -0.1604
 7875TIP3    H145040   0.693   4.908   0.390 -0.4238 -1.9416 -1.3863
 7875TIP3    H245041   0.749   4.947   0.255 -0.6040 -0.8710 -1.1568
 7876TIP3   OH245042   1.748   6.637   4.692 -0.1108 -0.2111 -0.1414
 7876TIP3    H145043   1.824   6.631   4.749  0.6863 -1.8663 -1.3101
 7876TIP3    H245044   1.699   6.557   4.710  0.4170 -1.0168 -2.0921
 7877TIP3   OH245045   6.319   3.787  13.507 -0.0347 -1.0324 -0.3646
 7877TIP3    H145046   6.388   3.735  13.464  2.0788  0.1468  1.3778
 7877TIP3    H245047   6.343   3.785  13.599 -2.0787 -0.0833  0.2209
 7878TIP3   OH245048   4.872   0.571  16.237 -0.1064 -0.5972 -0.4057
 7878TIP3    H145049   4.875   0.594  16.329 -0.7172  0.2870 -0.5888
 7878TIP3    H245050   4.827   0.486  16.234 -0.7462 -0.2806  0.0590
 7879TIP3   OH245051   3.927   2.636   3.241  0.0419  0.1034 -0.0380
 7879TIP3    H145052   3.982   2.594   3.176 -0.7290 -1.1623  0.0974
 7879TIP3    H245053   3.849   2.664   3.193  0.7274  1.8339 -0.2171
 7880TIP3   OH245054   6.536   0.685   3.647 -0.0642 -0.0218  1.0821
 7880TIP3    H145055   6.514   0.593   3.653 -1.5178  0.1030 -1.2470
 7880TIP3    H245056   6.476   0.721   3.582  1.6868  2.1634  0.5158
 7881TIP3   OH245057   3.536   0.251   1.200 -0.0072  0.5641 -0.0035
 7881TIP3    H145058   3.495   0.164   1.205  0.1672  0.4428 -0.6162
 7881TIP3    H245059   3.566   0.268   1.289  0.4589 -0.2557  0.0136
 7882TIP3   OH245060   5.753   5.940  15.823 -0.1594 -0.0742 -0.3794
 7882TIP3    H145061   5.839   5.918  15.788  0.8957  0.5030  1.6596
 7882TIP3    H245062   5.745   5.888  15.903 -2.0502 -0.6570 -0.8910
 7883TIP3   OH245063   0.356   2.856  13.107 -0.0392 -0.0927 -0.0422
 7883TIP3    H145064   0.408   2.916  13.055  0.2590  1.4526  1.9330
 7883TIP3    H245065   0.393   2.861  13.195 -2.2098 -0.4729  0.9769
 7884TIP3   OH245066   3.466   5.533   1.646  0.1994 -0.0889  0.2120
 7884TIP3    H145067   3.447   5.441   1.665  1.1545 -0.1693  0.8364
 7884TIP3    H245068   3.551   5.549   1.687  0.0481  1.0736  0.0983
 7885TIP3   OH245069   4.754   4.337  11.446 -0.0423  0.3619  0.3799
 7885TIP3    H145070   4.699   4.414  11.432  1.4035  1.4173  0.2882
 7885TIP3    H245071   4.765   4.299  11.359 -1.5450 -0.5481  0.5509
 7886TIP3   OH245072   3.165   4.634   0.788 -0.2946  0.1198  0.2150
 7886TIP3    H145073   3.104   4.667   0.853  0.0789 -0.7497  1.0312
 7886TIP3    H245074   3.210   4.562   0.831 -0.3766 -0.8037 -1.1700
 7887TIP3   OH245075   6.130   4.980  16.671 -0.1589  0.1733 -0.3723
 7887TIP3    H145076   6.159   4.983  16.580 -2.6455 -1.2087 -1.3243
 7887TIP3    H245077   6.039   5.009  16.668 -0.3773 -0.1605  1.6374
 7888TIP3   OH245078   1.575   6.327   3.825 -0.4594  0.5702  0.2229
 7888TIP3    H145079   1.649   6.341   3.884 -0.2987 -2.3269  0.9002
 7888TIP3    H245080   1.574   6.232   3.811 -2.8742  0.7391 -1.3550
 7889TIP3   OH245081   2.271   0.732  16.878 -0.6404 -0.2446  0.2918
 7889TIP3    H145082   2.187   0.757  16.917 -0.8646  0.1646 -0.4438
 7889TIP3    H245083   2.302   0.811  16.834  1.2231  0.2967  2.3884
 7890TIP3   OH245084   1.602   2.803  11.720  0.0295 -0.2663  0.2205
 7890TIP3    H145085   1.527   2.827  11.774  0.0035 -0.9001  0.4757
 7890TIP3    H245086   1.636   2.886  11.687 -0.4344  0.0654  0.5728
 7891TIP3   OH245087   4.070   2.298   6.374  0.0141 -0.3623 -0.2992
 7891TIP3    H145088   4.055   2.259   6.288 -1.6708  0.4884 -0.4278
 7891TIP3    H245089   4.145   2.249   6.409 -0.3390 -1.8871 -1.5308
 7892TIP3   OH245090   1.749   3.309   1.854 -0.2890 -0.0406  0.1959
 7892TIP3    H145091   1.808   3.278   1.922 -0.1885  0.2291  0.2318
 7892TIP3    H245092   1.705   3.385   1.892 -1.5146 -0.9090  0.5992
 7893TIP3   OH245093   5.472   4.313   0.679  0.5856 -0.2287 -0.4325
 7893TIP3    H145094   5.532   4.375   0.638  0.7557 -1.0509 -1.4922
 7893TIP3    H245095   5.387   4.358   0.679  0.9360  0.4322 -0.1410
 7894TIP3   OH245096   5.664   6.070  10.511 -0.0077 -0.0137  0.0125
 7894TIP3    H145097   5.758   6.071  10.495  0.2585 -0.6378  1.4210
 7894TIP3    H245098   5.642   6.160  10.535  0.5016 -0.1560  1.0644
 7895TIP3   OH245099   2.887   0.711  16.095  0.1977  0.3176  0.3368
 7895TIP3    H145100   2.801   0.678  16.121 -0.9641  1.1306 -2.1931
 7895TIP3    H245101   2.900   0.788  16.149 -1.1373  0.7466  0.0846
 7896TIP3   OH245102   2.264   6.264  16.321  0.3515 -0.3878  0.8780
 7896TIP3    H145103   2.341   6.269  16.264 -0.8464 -2.1677 -1.0657
 7896TIP3    H245104   2.247   6.354  16.347  0.7733  0.6040 -1.9450
 7897TIP3   OH245105   6.158   0.439  13.319 -0.1048 -0.1762 -0.3225
 7897TIP3    H145106   6.090   0.507  13.318  0.4044  0.4862  2.7878
 7897TIP3    H245107   6.227   0.474  13.262 -1.3712  0.1335 -1.7519
 7898TIP3   OH245108   5.051   1.196   1.043  0.6468  0.2794 -0.6273
 7898TIP3    H145109   5.031   1.232   0.957 -0.3801 -0.7396 -0.8438
 7898TIP3    H245110   4.965   1.189   1.086  1.2312  1.7786  0.9085
 7899TIP3   OH245111   1.048   5.081  13.003 -0.1136 -0.1467  0.0550
 7899TIP3    H145112   1.037   4.990  13.032  0.2635 -0.3905 -0.5397
 7899TIP3    H245113   1.131   5.080  12.955  0.6938  0.8519  1.3685
 7900TIP3   OH245114   3.241   5.875   3.108  0.1780 -0.2445  0.1905
 7900TIP3    H145115   3.278   5.789   3.090  0.1417  0.1041 -1.8296
 7900TIP3    H245116   3.284   5.904   3.189 -1.0005 -2.7893  1.8452
 7901TIP3   OH245117   1.534   3.650  10.857  0.1339  0.1971 -0.4050
 7901TIP3    H145118   1.552   3.672  10.948  0.0611 -1.0575 -0.0668
 7901TIP3    H245119   1.491   3.565  10.861  1.3451 -0.5173 -1.6744
 7902TIP3   OH245120   6.282   5.511  11.319 -0.7669  0.5500  0.4341
 7902TIP3    H145121   6.277   5.596  11.276  0.3656 -0.1181 -1.1002
 7902TIP3    H245122   6.191   5.481  11.322 -0.7890 -0.0882 -3.1087
 7903TIP3   OH245123   5.732   5.284   2.722 -0.0319 -0.7175 -0.1256
 7903TIP3    H145124   5.697   5.355   2.777 -0.2042 -1.4766  0.7533
 7903TIP3    H245125   5.720   5.205   2.774  0.0677 -1.4179 -1.1441
 7904TIP3   OH245126   0.841   4.843  11.903  0.4707  0.4363  0.0846
 7904TIP3    H145127   0.751   4.827  11.932  0.4677  0.6500  0.1964
 7904TIP3    H245128   0.893   4.775  11.945  0.3224  0.1478 -0.1940
 7905TIP3   OH245129   3.012   3.966   1.697 -0.8937 -0.2308  0.0990
 7905TIP3    H145130   2.927   3.925   1.711 -0.9690  0.8570  3.9348
 7905TIP3    H245131   2.993   4.048   1.652 -1.8495 -0.2316  0.4855
 7906TIP3   OH245132   6.072   1.344   4.239  0.0648  0.2492 -0.0971
 7906TIP3    H145133   6.083   1.260   4.284  1.0960  0.9605  1.0183
 7906TIP3    H245134   5.978   1.362   4.243 -0.5070 -1.7842 -2.1281
 7907TIP3   OH245135   4.265   5.725  16.800 -0.0606  0.1924 -0.0354
 7907TIP3    H145136   4.192   5.697  16.744  0.4588 -1.6679  0.1713
 7907TIP3    H245137   4.268   5.660  16.870  0.6089  1.3325  1.0391
 7908TIP3   OH245138   6.078   3.204   5.135 -0.0231  0.6913  0.1424
 7908TIP3    H145139   6.169   3.235   5.136  0.0286  0.5347  0.2677
 7908TIP3    H245140   6.085   3.109   5.145 -0.1744  0.6215 -0.3882
 7909TIP3   OH245141   0.139   4.960  14.843  0.2670 -0.0628 -0.1368
 7909TIP3    H145142   0.201   4.894  14.812 -0.2586 -0.9073  0.5366
 7909TIP3    H245143   0.126   5.019  14.769  1.7375  0.0305 -0.3348
 7910TIP3   OH245144   6.589   1.224   3.552 -0.2948 -0.5446 -0.2525
 7910TIP3    H145145   6.648   1.264   3.489  0.3582 -0.5870  0.3148
 7910TIP3    H245146   6.647   1.173   3.609 -0.9727 -1.2616 -0.1930
 7911TIP3   OH245147   0.228   6.206   4.714 -0.1649 -0.5895 -0.4110
 7911TIP3    H145148   0.305   6.204   4.772 -0.4099 -0.6392 -0.0817
 7911TIP3    H245149   0.241   6.285   4.661  0.6926 -1.2263 -1.1717
 7912TIP3   OH245150   3.107   1.407  11.783  0.0169 -0.4734 -0.0763
 7912TIP3    H145151   3.049   1.396  11.859  0.8573 -0.0153  0.6478
 7912TIP3    H245152   3.105   1.501  11.766 -0.7543 -0.6579 -1.1148
 7913TIP3   OH245153   3.815   5.140  16.402 -0.0646  0.4622 -0.4490
 7913TIP3    H145154   3.812   5.045  16.399  2.4925  0.3207 -0.0261
 7913TIP3    H245155   3.771   5.163  16.485  1.7064 -0.5519  0.8292
 7914TIP3   OH245156   5.287   6.624   5.565  0.2048  0.3169  0.3507
 7914TIP3    H145157   5.213   6.682   5.553  0.2375  0.6129  1.4542
 7914TIP3    H245158   5.363   6.675   5.535  0.1260  0.5171  0.4925
 7915TIP3   OH245159   2.021   4.859  12.511 -0.1363  0.2122 -0.3694
 7915TIP3    H145160   1.934   4.835  12.480 -0.7983  1.6159  0.2771
 7915TIP3    H245161   2.051   4.925  12.449 -0.6566  1.6032  0.7683
 7916TIP3   OH245162   3.957   4.214  10.431 -0.3529  0.0226  0.0043
 7916TIP3    H145163   3.883   4.274  10.431  0.6375  1.2714  0.0094
 7916TIP3    H245164   4.030   4.266  10.399  0.9227 -0.7012  1.6104
 7917TIP3   OH245165   4.702   4.401  15.825  0.2238 -0.1103  0.2013
 7917TIP3    H145166   4.693   4.340  15.752 -0.0821  0.6038 -0.3696
 7917TIP3    H245167   4.778   4.369  15.874  2.2344  0.9985 -2.0194
 7918TIP3   OH245168   2.705   2.153  10.137  0.3891  0.5705  0.2117
 7918TIP3    H145169   2.623   2.110  10.163 -0.1535  0.8815 -0.9329
 7918TIP3    H245170   2.726   2.210  10.211  0.1913 -0.3481  1.0061
 7919TIP3   OH245171   0.037   4.956   3.162 -0.0678  0.0819  0.4783
 7919TIP3    H145172   0.018   4.945   3.255 -0.0490 -4.0408  0.1681
 7919TIP3    H245173   0.112   4.899   3.146 -0.3004  0.3898 -2.1423
 7920TIP3   OH245174   0.317   6.244   4.247 -0.6486  0.1374 -0.5033
 7920TIP3    H145175   0.307   6.150   4.264 -1.1799  0.0520 -1.2025
 7920TIP3    H245176   0.229   6.272   4.222 -0.5595  0.8939  0.0261
 7921TIP3   OH245177   2.284   4.266   5.113 -0.2646 -0.4637 -0.2021
 7921TIP3    H145178   2.268   4.337   5.176 -2.0207 -1.0529  0.0571
 7921TIP3    H245179   2.323   4.196   5.165 -0.8041 -0.5860  0.0412
 7922TIP3   OH245180   1.266   2.449  12.068 -0.2710 -0.0832  1.1267
 7922TIP3    H145181   1.286   2.510  12.139  0.1866  1.3612 -0.1785
 7922TIP3    H245182   1.350   2.432  12.026 -0.4426 -1.3836  1.2654
 7923TIP3   OH245183   6.533   3.550  14.740  0.3075 -0.7670 -0.2596
 7923TIP3    H145184   6.593   3.615  14.777 -1.8134  2.6694 -2.2634
 7923TIP3    H245185   6.486   3.515  14.816  0.8765  0.8129  0.8770
 7924TIP3   OH245186   0.115   2.244  14.770  0.0566  0.2764  0.4750
 7924TIP3    H145187   0.202   2.260  14.807  0.2063 -2.8780  1.8176
 7924TIP3    H245188   0.058   2.230  14.845 -0.9991 -0.3424 -0.3950
 7925TIP3   OH245189   2.763   1.800   4.128 -0.6163  0.1953  0.0347
 7925TIP3    H145190   2.679   1.780   4.086 -0.9332  0.6646  0.4311
 7925TIP3    H245191   2.781   1.725   4.184 -0.3559 -0.2843 -0.6787
 7926TIP3   OH245192   6.793   3.149   4.888 -0.2163  0.7703 -0.4834
 7926TIP3    H145193   6.871   3.171   4.939 -0.3471 -0.5696  0.3479
 7926TIP3    H245194   6.731   3.116   4.953 -1.5956  2.0282 -1.0936
 7927TIP3   OH245195   3.589   5.072  15.823 -0.2769  0.2447 -0.2132
 7927TIP3    H145196   3.674   5.031  15.837  0.5023  1.5873 -0.8528
 7927TIP3    H245197   3.609   5.154  15.779 -1.9723  0.2094 -1.1226
 7928TIP3   OH245198   3.422   1.142   0.381 -0.8109  0.1523  0.4146
 7928TIP3    H145199   3.474   1.101   0.450  1.4547 -1.9731 -2.3290
 7928TIP3    H245200   3.464   1.226   0.366 -1.0053  0.4050  1.2375
 7929TIP3   OH245201   4.744   2.419   4.658 -0.0635 -0.0009 -0.4433
 7929TIP3    H145202   4.728   2.471   4.737 -2.2345 -1.2401  0.0351
 7929TIP3    H245203   4.783   2.338   4.690 -0.7678 -0.4278 -0.6248
 7930TIP3   OH245204   5.412   1.392  14.710 -0.2441 -0.1288 -0.3215
 7930TIP3    H145205   5.487   1.374  14.653 -0.4233 -1.0616 -0.2812
 7930TIP3    H245206   5.449   1.389  14.798 -0.5620 -1.9996 -0.2174
 7931TIP3   OH245207   0.922   6.007  12.311 -0.0094  0.2612  0.8976
 7931TIP3    H145208   1.011   6.041  12.299  0.1670 -0.9452 -1.8613
 7931TIP3    H245209   0.869   6.086  12.327  1.1332  1.3246 -0.2841
 7932TIP3   OH245210   1.920   6.299   3.744  0.3386  0.1309  0.0653
 7932TIP3    H145211   1.890   6.369   3.803 -0.0254  0.0230  0.0109
 7932TIP3    H245212   1.901   6.332   3.656  1.9518  0.7992 -0.0694
 7933TIP3   OH245213   2.322   2.872   1.012 -0.0699  0.2143 -0.3246
 7933TIP3    H145214   2.290   2.935   0.948  0.9084  0.0751 -0.9704
 7933TIP3    H245215   2.280   2.790   0.988 -0.7440  0.4397  0.0458
 7934TIP3   OH245216   3.134   1.094   0.412 -0.4599  1.1863  0.3478
 7934TIP3    H145217   3.087   1.093   0.496 -0.8305  2.1100  0.1593
 7934TIP3    H245218   3.221   1.060   0.434 -1.5891 -2.0251  0.4253
 7935TIP3   OH245219   5.701   6.264  11.339 -0.4179  0.1933 -0.4165
 7935TIP3    H145220   5.768   6.277  11.406 -0.4127 -0.5163 -0.2713
 7935TIP3    H245221   5.630   6.323  11.363  0.6312  1.8761 -1.2529
 7936TIP3   OH245222   5.053   6.380   1.337  0.2816 -0.7508  0.5061
 7936TIP3    H145223   5.018   6.330   1.263  0.3148 -0.2626  0.1553
 7936TIP3    H245224   5.049   6.471   1.309 -0.5285 -0.4805  1.4474
 7937TIP3   OH245225   2.742   1.395   2.736  0.5133 -0.2218  0.0768
 7937TIP3    H145226   2.695   1.319   2.701 -0.0294 -0.7107  1.7968
 7937TIP3    H245227   2.737   1.385   2.831 -0.4545  2.5075  0.4043
 7938TIP3   OH245228   2.833   1.530  12.297 -0.5011 -0.2050 -0.4927
 7938TIP3    H145229   2.802   1.507  12.384  0.2018 -1.2510 -0.4885
 7938TIP3    H245230   2.770   1.593  12.264  0.5742  2.1826  1.7275
 7939TIP3   OH245231   4.687   1.186  13.257 -0.3042  0.6730  0.5539
 7939TIP3    H145232   4.621   1.226  13.314 -1.8254 -1.4456  0.4054
 7939TIP3    H245233   4.638   1.150  13.184  1.1734  0.0492 -0.1779
 7940TIP3   OH245234   5.808   4.225  15.943 -0.3090 -0.2554  1.1172
 7940TIP3    H145235   5.898   4.198  15.926 -0.6967 -0.8055 -0.2437
 7940TIP3    H245236   5.776   4.162  16.008 -0.0865 -0.8445  0.6668
 7941TIP3   OH245237   0.155   5.843  15.448 -0.0193 -0.0846  0.7385
 7941TIP3    H145238   0.069   5.846  15.490  0.2630 -0.6702  1.3586
 7941TIP3    H245239   0.171   5.750  15.431  0.6046 -0.0017  0.8543
 7942TIP3   OH245240   5.163   0.877  12.431 -0.6993 -0.2972 -0.0667
 7942TIP3    H145241   5.171   0.819  12.355  0.6753  1.7766 -1.6055
 7942TIP3    H245242   5.233   0.848  12.490 -1.7870 -1.9343  0.4906
 7943TIP3   OH245243   1.984   5.040  12.297 -0.2688  0.1849 -0.2945
 7943TIP3    H145244   1.927   5.066  12.369 -1.2615  0.5098 -1.1595
 7943TIP3    H245245   1.924   5.003  12.232  0.5769  0.0538 -1.0162
 7944TIP3   OH245246   2.572   3.208  16.268  0.6007  0.0735 -0.1262
 7944TIP3    H145247   2.666   3.190  16.267  0.7402  0.6909 -2.0263
 7944TIP3    H245248   2.531   3.125  16.244  0.6608 -0.1023  0.3600
 7945TIP3   OH245249   3.325   1.239  14.383 -0.2675 -0.0570 -0.6400
 7945TIP3    H145250   3.376   1.176  14.433  0.0022  0.7818  0.1785
 7945TIP3    H245251   3.236   1.202  14.382 -0.2461 -0.1722  0.3467
 7946TIP3   OH245252   5.269   6.183  16.801 -0.3675 -0.3752  0.4787
 7946TIP3    H145253   5.336   6.236  16.757 -0.2707  1.2757  2.4373
 7946TIP3    H245254   5.301   6.173  16.891 -1.2697 -2.2781  0.6390
 7947TIP3   OH245255   6.015   2.129  12.105 -0.3382 -0.3695 -0.2705
 7947TIP3    H145256   6.088   2.080  12.067 -2.5787 -0.3764 -5.2377
 7947TIP3    H245257   6.004   2.205  12.048 -4.3180 -0.5162  0.0133
 7948TIP3   OH245258   5.371   0.336   5.961  0.0816  0.0113 -0.1956
 7948TIP3    H145259   5.362   0.328   6.056  1.3844  0.2044 -0.0346
 7948TIP3    H245260   5.338   0.423   5.941 -1.8146 -0.6621 -0.1761
 7949TIP3   OH245261   6.194   5.429  11.645 -0.6013 -0.0094 -0.0552
 7949TIP3    H145262   6.283   5.431  11.610 -0.4869  2.7454  0.1861
 7949TIP3    H245263   6.139   5.413  11.569  0.0096 -0.6614 -0.3766
 7950TIP3   OH245264   5.798   2.966  11.928  0.4157  0.1871  1.2084
 7950TIP3    H145265   5.777   2.875  11.909  0.2185  0.0509  2.0272
 7950TIP3    H245266   5.713   3.007  11.945  0.3775  0.8346 -0.3608
 7951TIP3   OH245267   5.607   2.352   4.134  0.3476  0.1248 -0.2829
 7951TIP3    H145268   5.524   2.382   4.171 -0.0555  0.5949 -1.5066
 7951TIP3    H245269   5.673   2.407   4.175 -0.0276  0.2862  0.1123
 7952TIP3   OH245270   2.115   2.472  17.013  0.8562  0.1793  0.3549
 7952TIP3    H145271   2.124   2.500  16.922 -3.1907 -0.3173 -0.3783
 7952TIP3    H245272   2.101   2.377  17.008  0.8945  0.1018  1.5095
 7953TIP3   OH245273   3.805   4.551   3.479 -0.1144 -0.8354 -0.4555
 7953TIP3    H145274   3.778   4.507   3.560 -0.1357 -0.3584 -0.1962
 7953TIP3    H245275   3.802   4.483   3.412  0.1824 -1.3056  0.0018
 7954TIP3   OH245276   6.591   1.726  15.168 -0.7339  0.1212 -0.2298
 7954TIP3    H145277   6.676   1.700  15.204 -0.0102  1.4418 -0.8831
 7954TIP3    H245278   6.586   1.681  15.084 -0.4550  0.4142 -0.4047
 7955TIP3   OH245279   5.083   0.205  14.070 -0.3588  0.4973  0.3099
 7955TIP3    H145280   5.108   0.293  14.041  0.2039  0.1260 -0.3593
 7955TIP3    H245281   5.040   0.166  13.994 -0.3172  0.0839  0.4945
 7956TIP3   OH245282   0.226   0.947  12.891  0.5386 -0.2429  0.0847
 7956TIP3    H145283   0.304   0.891  12.891 -0.2433 -1.4086 -1.4211
 7956TIP3    H245284   0.158   0.894  12.933 -0.0192 -0.1353 -0.6602
 7957TIP3   OH245285   5.775   1.814  14.374 -0.2613  0.3155  0.0216
 7957TIP3    H145286   5.681   1.818  14.391 -0.2368  2.0484 -0.0637
 7957TIP3    H245287   5.782   1.818  14.278 -0.1366 -2.0348 -0.1288
 7958TIP3   OH245288   1.819   5.054   3.149 -0.2278 -0.0136  0.4097
 7958TIP3    H145289   1.831   4.975   3.202  1.0420  0.2314  0.5387
 7958TIP3    H245290   1.898   5.106   3.166  1.3355 -0.8430 -3.2584
 7959TIP3   OH245291   6.044   6.300  16.796 -0.3696 -0.7566  0.3989
 7959TIP3    H145292   6.103   6.274  16.867  0.9575  0.9336  0.0061
 7959TIP3    H245293   6.003   6.219  16.767  0.2603 -1.7042  2.0333
 7960TIP3   OH245294   6.570   1.171  12.257 -0.1747  0.3263 -0.2222
 7960TIP3    H145295   6.587   1.242  12.196 -0.9067  0.1163 -0.6732
 7960TIP3    H245296   6.571   1.213  12.343  1.2359  0.5587 -0.3237
 7961TIP3   OH245297   3.452   1.401  14.009  0.4665 -0.6121  0.0317
 7961TIP3    H145298   3.424   1.455  14.083 -1.3041 -2.4508  0.7815
 7961TIP3    H245299   3.403   1.435  13.934 -0.9122 -1.3673  0.5713
 7962TIP3   OH245300   5.864   6.381  14.656 -0.1053 -0.2128  0.6586
 7962TIP3    H145301   5.891   6.403  14.745 -1.5509 -0.7137  1.2525
 7962TIP3    H245302   5.922   6.433  14.600  0.8122  0.1286  1.8794
 7963TIP3   OH245303   2.333   6.580   5.213 -0.7792 -0.0241 -0.1999
 7963TIP3    H145304   2.370   6.609   5.296 -0.0988  0.5677 -0.6881
 7963TIP3    H245305   2.306   6.661   5.170  0.7620 -0.0934 -1.4091
 7964TIP3   OH245306   0.311   5.472   0.566 -0.2899 -0.6570  0.1662
 7964TIP3    H145307   0.218   5.494   0.572 -0.3437 -0.6757 -0.4705
 7964TIP3    H245308   0.352   5.518   0.640 -0.5273  0.8907 -0.6135
 7965TIP3   OH245309   2.691   6.181  15.291  0.6086  0.3275  0.1139
 7965TIP3    H145310   2.625   6.244  15.260  0.8633  0.3866 -0.3221
 7965TIP3    H245311   2.667   6.099  15.247  1.3755  0.5744 -0.7999
 7966TIP3   OH245312   4.732   1.694   4.260  0.2122  0.1497  0.0665
 7966TIP3    H145313   4.760   1.784   4.271  1.3450 -0.2216  0.3466
 7966TIP3    H245314   4.685   1.693   4.176  1.4776  0.7162 -0.6794
 7967TIP3   OH245315   0.326   4.711  10.923  0.1280 -0.2832 -0.2274
 7967TIP3    H145316   0.328   4.755  10.838 -1.0683  1.8139  0.7529
 7967TIP3    H245317   0.305   4.620  10.902 -2.1128  0.5513 -2.1075
 7968TIP3   OH245318   0.557   6.051   3.154  0.0134  0.3354 -0.0262
 7968TIP3    H145319   0.579   5.958   3.164  0.6724  0.6246  1.5770
 7968TIP3    H245320   0.640   6.092   3.129 -0.3098  0.4819 -0.8790
 7969TIP3   OH245321   1.109   3.266   0.658  0.3554  0.3276 -0.5600
 7969TIP3    H145322   1.017   3.243   0.660  0.8329 -1.9259 -1.4813
 7969TIP3    H245323   1.120   3.313   0.575 -0.2232  2.0920  0.3182
 7970TIP3   OH245324   2.006   4.414   3.495  0.3405 -0.0918  0.1411
 7970TIP3    H145325   1.967   4.483   3.549 -0.8761 -0.2150 -0.5413
 7970TIP3    H245326   1.934   4.383   3.441  0.8342 -1.9886  0.5051
 7971TIP3   OH245327   4.021   5.627  12.871  0.2967  0.4026 -0.2870
 7971TIP3    H145328   4.049   5.674  12.792 -1.9753  1.9527 -0.2686
 7971TIP3    H245329   4.006   5.697  12.935  2.0108 -0.8121  1.5633
 7972TIP3   OH245330   2.426   0.893   3.860 -0.2506  0.2569 -0.0245
 7972TIP3    H145331   2.469   0.848   3.787 -0.0552 -0.8410  0.7382
 7972TIP3    H245332   2.394   0.822   3.916  0.6000  1.0576  1.5502
 7973TIP3   OH245333   5.512   0.927   4.627  0.1278  0.2847  0.2265
 7973TIP3    H145334   5.540   0.850   4.677  1.3328  0.0015 -0.8228
 7973TIP3    H245335   5.419   0.938   4.649 -0.0550 -1.4357  0.4454
 7974TIP3   OH245336   6.361   5.045   4.591  0.2838  0.0914  0.1920
 7974TIP3    H145337   6.358   4.960   4.634  1.8452 -0.2387 -0.3016
 7974TIP3    H245338   6.424   5.034   4.520 -0.8865  1.1274 -1.0777
 7975TIP3   OH245339   2.077   3.917   4.445 -0.2797  0.1022 -0.3115
 7975TIP3    H145340   2.126   3.976   4.502 -0.2118  0.7710 -1.0484
 7975TIP3    H245341   2.029   3.860   4.505  1.9365 -1.0767  0.4658
 7976TIP3   OH245342   1.317   0.021  10.994 -0.2200  0.1534  0.6639
 7976TIP3    H145343   1.262   0.034  10.917 -0.0027 -0.6539  0.3648
 7976TIP3    H245344   1.278   0.078  11.061 -1.5895 -0.6086  0.5481
 7977TIP3   OH245345   3.060   6.810   1.802 -0.5300  0.0271  0.0482
 7977TIP3    H145346   2.982   6.839   1.755 -0.0222  0.2501 -0.6833
 7977TIP3    H245347   3.132   6.858   1.760  0.0272 -0.3597  0.5480
 7978TIP3   OH245348   5.740   3.567   3.125  0.2103 -0.0227  0.4169
 7978TIP3    H145349   5.646   3.559   3.107  0.4058 -0.4850 -0.4388
 7978TIP3    H245350   5.747   3.646   3.179 -0.6090  0.3445  0.0117
 7979TIP3   OH245351   6.221   6.496   5.378 -0.0735  0.5066  0.5640
 7979TIP3    H145352   6.244   6.407   5.405 -1.8805 -0.4216 -0.7010
 7979TIP3    H245353   6.142   6.485   5.325  0.2190  2.7725 -0.4746
 7980TIP3   OH245354   1.129   2.546   3.999 -0.8008  0.5871 -0.3484
 7980TIP3    H145355   1.119   2.615   3.933 -0.8595  1.5711  0.6702
 7980TIP3    H245356   1.067   2.570   4.068  1.3184  1.2087  1.4260
 7981TIP3   OH245357   4.058   5.419  13.088  0.0933  0.1477  0.1692
 7981TIP3    H145358   4.077   5.335  13.045  3.3705  1.2923 -0.9681
 7981TIP3    H245359   4.014   5.471  13.021  0.0612  0.0466  0.1114
 7982TIP3   OH245360   1.294   3.785  14.856 -0.1765  0.4020 -0.0634
 7982TIP3    H145361   1.282   3.721  14.926 -0.4109 -0.0892 -0.5416
 7982TIP3    H245362   1.268   3.868  14.895  1.0124  0.3626  0.8388
 7983TIP3   OH245363   0.608   0.934   5.129 -0.0101 -0.0491 -0.0882
 7983TIP3    H145364   0.622   0.925   5.035 -0.7210  0.2271 -0.2281
 7983TIP3    H245365   0.548   1.008   5.137  1.6068  1.2170  0.7181
 7984TIP3   OH245366   6.282   3.031   0.051 -0.0443 -0.5458 -0.1574
 7984TIP3    H145367   6.233   2.952   0.029 -1.4749 -0.0811  1.1409
 7984TIP3    H245368   6.241   3.062   0.132  1.4354  0.7314  0.1518
 7985TIP3   OH245369   6.028   6.604   2.988  0.3151  0.4276 -0.0757
 7985TIP3    H145370   5.947   6.654   2.995 -0.8342 -1.1868 -1.0496
 7985TIP3    H245371   6.049   6.577   3.077  0.4508  1.8458  0.3303
 7986TIP3   OH245372   3.080   3.622   1.988 -0.2971  0.0885 -0.3504
 7986TIP3    H145373   3.116   3.601   2.075 -0.6469  0.7848 -0.0342
 7986TIP3    H245374   3.154   3.608   1.929 -0.2742 -1.1944 -0.0610
 7987TIP3   OH245375   2.383   0.207  14.480  0.1322  0.1943  0.3811
 7987TIP3    H145376   2.452   0.142  14.462 -0.9840 -1.0082  0.3217
 7987TIP3    H245377   2.373   0.206  14.575  2.0892  2.4301  0.7128
 7988TIP3   OH245378   2.327   3.568  15.608 -0.2260 -0.0379 -0.1364
 7988TIP3    H145379   2.338   3.647  15.556  1.7431  0.5406  1.0389
 7988TIP3    H245380   2.242   3.577  15.650  0.5425  2.2330  1.1155
 7989TIP3   OH245381   5.489   5.426  13.581  0.3638  0.0126 -0.2385
 7989TIP3    H145382   5.546   5.411  13.657  1.0327  1.5341 -0.3856
 7989TIP3    H245383   5.518   5.362  13.517  0.4282 -0.6742  0.4576
 7990TIP3   OH245384   4.498   2.872   1.834  0.2673  0.0753  0.3339
 7990TIP3    H145385   4.545   2.812   1.776  0.2851  0.1384  0.2822
 7990TIP3    H245386   4.411   2.833   1.844 -0.2098  0.7611 -0.8599
 7991TIP3   OH245387   1.949   2.564   5.196  0.0479 -0.4844  0.1985
 7991TIP3    H145388   1.922   2.556   5.104 -1.1957 -1.8913  0.6566
 7991TIP3    H245389   1.868   2.555   5.246  0.8975 -1.1883  1.4927
 7992TIP3   OH245390   5.995   6.743  13.474  0.5080 -0.5562  0.6038
 7992TIP3    H145391   6.024   6.757  13.565 -0.5645 -1.0914  1.0448
 7992TIP3    H245392   6.033   6.816  13.425  0.1929  0.3676  1.6929
 7993TIP3   OH245393   4.332   3.207  10.987 -0.1560  0.5887  0.7684
 7993TIP3    H145394   4.241   3.222  10.960  0.6421  0.7658 -2.1977
 7993TIP3    H245395   4.325   3.159  11.069 -2.9545  0.0713  0.3321
 7994TIP3   OH245396   3.456   0.410  12.576 -0.1535  0.5724  0.2146
 7994TIP3    H145397   3.405   0.474  12.626  0.4370  0.3797  1.1035
 7994TIP3    H245398   3.482   0.456  12.496 -0.0322  1.3339  0.6849
 7995TIP3   OH245399   2.857   1.502   3.544 -0.0574  0.6011 -0.2722
 7995TIP3    H145400   2.859   1.493   3.639  0.4691 -0.7258 -0.3921
 7995TIP3    H245401   2.885   1.591   3.528  2.9355 -0.0722  0.6940
 7996TIP3   OH245402   1.553   4.037  13.510 -0.2754 -0.0963  0.1650
 7996TIP3    H145403   1.613   4.056  13.582 -0.2736  2.1727 -0.3622
 7996TIP3    H245404   1.473   4.085  13.532 -0.0749  1.1374 -1.5671
 7997TIP3   OH245405   2.906   6.277   5.698  1.2020 -0.5389 -0.6010
 7997TIP3    H145406   2.984   6.228   5.725  0.8513 -0.1859  1.1971
 7997TIP3    H245407   2.844   6.263   5.769  0.5773  1.3389 -0.7364
 7998TIP3   OH245408   2.541   0.080  11.389  0.2108 -0.0568  0.2272
 7998TIP3    H145409   2.555  -0.012  11.412 -1.8345 -0.4989 -0.1447
 7998TIP3    H245410   2.627   0.110  11.358  1.9036 -0.7743  3.6866
 7999TIP3   OH245411   5.826   5.729  12.895 -0.5419  0.2509  0.1228
 7999TIP3    H145412   5.902   5.689  12.937  0.0475  0.2234 -0.9247
 7999TIP3    H245413   5.751   5.680  12.928  0.0732 -1.0153 -0.3026
 8000TIP3   OH245414   2.187   3.352   4.324  0.3446  0.2180 -0.5177
 8000TIP3    H145415   2.123   3.285   4.347 -2.0393  2.1852 -0.9949
 8000TIP3    H245416   2.246   3.357   4.399 -0.9790 -0.6243  0.6104
 8001TIP3   OH245417   1.054   6.755   3.572 -0.2790 -0.7120  0.2964
 8001TIP3    H145418   1.131   6.707   3.603  0.0153 -0.6154 -0.2715
 8001TIP3    H245419   1.053   6.835   3.626  2.4012  1.3069 -2.2901
 8002TIP3   OH245420   2.798   3.270   2.362  0.4092 -0.0967  0.2376
 8002TIP3    H145421   2.758   3.212   2.297  1.6076 -1.0641  0.3120
 8002TIP3    H245422   2.727   3.289   2.423 -0.1680 -1.0686 -0.0926
 8003TIP3   OH245423   5.660   1.843   5.569  0.1862  0.0489 -1.2339
 8003TIP3    H145424   5.705   1.760   5.552  1.1064  0.3980 -0.5433
 8003TIP3    H245425   5.567   1.819   5.572  0.4728 -1.0633 -0.4572
 8004TIP3   OH245426   2.585   0.149   5.181 -0.0112  0.2922 -0.1738
 8004TIP3    H145427   2.640   0.200   5.240 -0.1929 -1.1565  1.2926
 8004TIP3    H245428   2.611   0.058   5.195 -3.0731 -0.5282  0.9784
 8005TIP3   OH245429   5.335   5.731   5.373  0.6687 -0.0175 -0.0811
 8005TIP3    H145430   5.284   5.670   5.319  2.0802 -0.6927 -0.7026
 8005TIP3    H245431   5.310   5.710   5.463  0.5042 -0.9304 -0.3304
 8006TIP3   OH245432   5.819   2.877   1.747 -0.2846 -0.4860 -0.6555
 8006TIP3    H145433   5.793   2.930   1.672 -0.2188  0.7670  0.1685
 8006TIP3    H245434   5.781   2.791   1.730 -1.6229  0.2121 -1.3575
 8007TIP3   OH245435   4.487   6.747   0.832  0.5489 -0.2812  0.2901
 8007TIP3    H145436   4.422   6.693   0.878  1.1151 -1.2838 -0.0659
 8007TIP3    H245437   4.492   6.709   0.744 -1.0279  2.0174 -0.9206
 8008TIP3   OH245438   2.911   0.764  12.241 -0.0153  0.0225 -0.1800
 8008TIP3    H145439   3.000   0.799  12.248  0.0561 -0.1059 -0.4627
 8008TIP3    H245440   2.893   0.762  12.147 -0.0312 -0.6810 -0.1679
 8009TIP3   OH245441   4.761   4.773  13.821 -0.0776 -0.0914 -0.8878
 8009TIP3    H145442   4.754   4.703  13.886  0.8541  1.0346  0.4982
 8009TIP3    H245443   4.702   4.842  13.853  2.5182  1.6806  0.5193
 8010TIP3   OH245444   1.152   4.857  13.711  0.6089 -0.1991 -0.3963
 8010TIP3    H145445   1.141   4.784  13.771  0.0129  0.5036  0.3705
 8010TIP3    H245446   1.141   4.819  13.624  0.4203 -1.0367 -0.0145
 8011TIP3   OH245447   3.809   3.877   5.582 -0.2888 -0.2230 -0.1237
 8011TIP3    H145448   3.878   3.937   5.556 -1.7323  1.0552 -1.2284
 8011TIP3    H245449   3.750   3.931   5.635 -0.1818 -1.4209  1.2495
 8012TIP3   OH245450   4.740   0.347  16.093  0.1523  0.5381  0.5312
 8012TIP3    H145451   4.820   0.294  16.104  0.5216  1.3574  2.1255
 8012TIP3    H245452   4.692   0.303  16.024  0.7961 -1.4771  1.2821
 8013TIP3   OH245453   0.472   5.681   5.175  0.1707  0.0909  0.3890
 8013TIP3    H145454   0.500   5.606   5.124 -0.3316  0.1126  0.0758
 8013TIP3    H245455   0.455   5.646   5.262  1.0539  0.0591  0.5621
 8014TIP3   OH245456   6.207   4.505   0.709  0.1965 -0.7050  0.5939
 8014TIP3    H145457   6.260   4.493   0.788  0.1847 -0.5519  0.6255
 8014TIP3    H245458   6.161   4.587   0.724  0.9171 -0.1775  0.0235
 8015TIP3   OH245459   4.202   6.115  13.056 -0.0810  0.0249 -0.1325
 8015TIP3    H145460   4.242   6.140  12.973 -1.3813 -0.6873 -1.0113
 8015TIP3    H245461   4.275   6.112  13.118  0.8975  0.6839 -1.2085
 8016TIP3   OH245462   1.882   0.101  16.920 -0.6623 -0.1224 -0.2732
 8016TIP3    H145463   1.851   0.192  16.917  1.1897  0.5700  0.4851
 8016TIP3    H245464   1.944   0.095  16.848 -0.6166 -0.7394 -0.1802
 8017TIP3   OH245465   4.728   2.920   2.301 -0.9441 -0.6220  0.6120
 8017TIP3    H145466   4.802   2.936   2.359 -0.5124  1.5973 -0.4427
 8017TIP3    H245467   4.654   2.906   2.360  0.0183 -1.4087  1.6695
 8018TIP3   OH245468   3.961   5.077  16.067  0.0929 -0.0874  0.0444
 8018TIP3    H145469   3.985   5.025  16.144  1.3895  1.1289  0.5267
 8018TIP3    H245470   4.006   5.161  16.081  0.9979 -0.0948 -2.4292
 8019TIP3   OH245471   6.211   3.499   4.489  0.3213 -0.3021  0.3064
 8019TIP3    H145472   6.171   3.420   4.453  1.0071 -0.5837  0.1552
 8019TIP3    H245473   6.304   3.480   4.491  0.7427  1.2486 -1.6163
 8020TIP3   OH245474   2.392   4.951   1.292  0.1462  0.4062  0.8291
 8020TIP3    H145475   2.370   4.958   1.200  0.0701 -0.3959  0.7847
 8020TIP3    H245476   2.329   4.889   1.328 -0.4502  1.4388  1.6360
 8021TIP3   OH245477   6.367   5.833  10.979  0.3261  0.2261 -0.2825
 8021TIP3    H145478   6.324   5.910  10.943  0.4371  1.2865  1.7135
 8021TIP3    H245479   6.461   5.848  10.966  0.4276  1.0904  1.2603
 8022TIP3   OH245480   6.017   1.717   3.648 -0.2858 -0.2680  0.4614
 8022TIP3    H145481   5.990   1.727   3.557 -1.6026  0.9334  0.9455
 8022TIP3    H245482   6.104   1.678   3.644  0.3217  1.1717 -1.3551
 8023TIP3   OH245483   6.316   1.840  13.686 -0.3590  0.4578 -0.3070
 8023TIP3    H145484   6.405   1.854  13.654 -0.6585 -1.0321 -1.8948
 8023TIP3    H245485   6.260   1.879  13.619 -0.9615 -1.4704 -0.9909
 8024TIP3   OH245486   6.587   3.171   1.720  0.2108 -0.3406 -0.0350
 8024TIP3    H145487   6.515   3.109   1.711  0.1800 -0.4313  0.7485
 8024TIP3    H245488   6.549   3.255   1.696 -0.7061 -0.0655  2.1747
 8025TIP3   OH245489   6.611   4.315  14.873  0.0740 -0.8179  0.0939
 8025TIP3    H145490   6.642   4.225  14.861  1.5772 -0.5493  1.5597
 8025TIP3    H245491   6.691   4.366  14.883 -0.7826  0.2172  2.1979
 8026TIP3   OH245492   3.636   4.545  14.312 -0.7538 -0.9913  0.4475
 8026TIP3    H145493   3.542   4.550  14.326 -0.6491 -0.3814  0.9850
 8026TIP3    H245494   3.673   4.609  14.373  0.0029 -1.1684  0.1895
 8027TIP3   OH245495   6.403   6.180  16.774  0.3859 -0.0804 -0.0003
 8027TIP3    H145496   6.367   6.110  16.829 -0.7461 -0.3794 -1.0862
 8027TIP3    H245497   6.365   6.261  16.809 -0.5241 -0.2933 -0.4744
 8028TIP3   OH245498   6.268   5.725   1.598  0.0425  0.3542 -0.7353
 8028TIP3    H145499   6.237   5.815   1.596  1.8611  1.0267 -0.6885
 8028TIP3    H245500   6.338   5.722   1.533  0.5163 -0.8223 -0.2084
 8029TIP3   OH245501   0.130   0.364   4.624 -0.2230 -0.3925 -0.1339
 8029TIP3    H145502   0.038   0.353   4.647 -0.4200 -2.5672 -1.6739
 8029TIP3    H245503   0.134   0.450   4.582 -1.1132  0.6125  1.7341
 8030TIP3   OH245504   5.754   0.244  12.146  0.2494  0.2323  0.5834
 8030TIP3    H145505   5.722   0.315  12.202  0.3957 -0.1485  1.1624
 8030TIP3    H245506   5.840   0.222  12.182  1.5238  1.6802 -1.3520
 8031TIP3   OH245507   2.738   0.045   0.765  0.0265 -0.0792 -0.1216
 8031TIP3    H145508   2.657   0.022   0.719 -0.2437 -1.6605  1.0664
 8031TIP3    H245509   2.795  -0.030   0.753 -0.6018 -1.2604  3.2679
 8032TIP3   OH245510   1.238   5.677   5.466  0.3943 -1.1073 -0.3352
 8032TIP3    H145511   1.219   5.583   5.470 -2.0723 -0.6528  0.0775
 8032TIP3    H245512   1.209   5.711   5.550 -2.8840  0.6178 -1.9986
 8033TIP3   OH245513   2.122   3.942   5.809 -0.2663 -0.1550  0.1938
 8033TIP3    H145514   2.190   3.981   5.864 -1.6872  1.1467  1.1137
 8033TIP3    H245515   2.052   3.921   5.870 -0.9514 -0.8746 -0.8167
 8034TIP3   OH245516   4.528   4.478   0.997 -0.2048  0.6337 -0.1730
 8034TIP3    H145517   4.579   4.398   0.984 -1.1332 -0.1038  0.5923
 8034TIP3    H245518   4.588   4.536   1.045  0.0356 -0.0858  0.4103
 8035TIP3   OH245519   0.429   3.270   0.853  1.2007 -0.2711  0.1410
 8035TIP3    H145520   0.502   3.279   0.915  0.6173  0.6151  0.7229
 8035TIP3    H245521   0.412   3.359   0.824  0.9200 -0.5840 -0.6722
 8036TIP3   OH245522   5.516   3.918   5.057  0.5125 -0.2412 -0.1286
 8036TIP3    H145523   5.542   4.003   5.022  1.5634  0.2667  1.7794
 8036TIP3    H245524   5.448   3.887   4.996  2.0613  0.6425 -2.4454
 8037TIP3   OH245525   6.086   6.442  14.039  0.3639  0.2170  0.0461
 8037TIP3    H145526   6.129   6.441  14.124  0.9984  0.7661 -0.2536
 8037TIP3    H245527   6.155   6.466  13.977 -0.1908  0.2977 -0.5625
 8038TIP3   OH245528   5.875   3.815   4.580  1.1123  0.0564 -0.1163
 8038TIP3    H145529   5.916   3.893   4.616  2.7902 -0.7061 -0.2405
 8038TIP3    H245530   5.918   3.742   4.626 -2.2049 -0.8147  1.8981
 8039TIP3   OH245531   0.864   0.813   5.171 -0.2732 -0.6717  0.5891
 8039TIP3    H145532   0.786   0.868   5.182 -0.4619 -0.7978 -0.0517
 8039TIP3    H245533   0.936   0.876   5.165 -0.3091 -0.5587  1.3035
 8040TIP3   OH245534   1.327   2.773   4.468  0.1112 -0.0830 -0.2536
 8040TIP3    H145535   1.253   2.809   4.418 -0.0540 -0.4950 -0.3099
 8040TIP3    H245536   1.373   2.717   4.406  1.9222  2.0506 -0.9470
 8041TIP3   OH245537   6.084   4.497  16.569  0.3773 -0.2837  0.2753
 8041TIP3    H145538   6.142   4.429  16.602 -0.9541 -0.8982  1.4976
 8041TIP3    H245539   6.086   4.488  16.474  2.2313 -0.2800  0.2786
 8042TIP3   OH245540   2.764   3.246  15.266  0.0791  0.0854 -0.3034
 8042TIP3    H145541   2.691   3.263  15.207  0.8317  1.8876 -0.7804
 8042TIP3    H245542   2.828   3.200  15.211 -0.2943 -0.6420 -0.1419
 8043TIP3   OH245543   5.556   2.158  14.390 -0.1147  0.0757  0.4188
 8043TIP3    H145544   5.590   2.144  14.302 -2.1061 -0.9638 -0.2524
 8043TIP3    H245545   5.583   2.247  14.413 -1.0506  1.0428 -1.9743
 8044TIP3   OH245546   5.688   4.110   1.992  0.6026 -0.1423  0.4493
 8044TIP3    H145547   5.781   4.112   1.966  0.2752  1.3818 -0.7175
 8044TIP3    H245548   5.649   4.186   1.949 -0.9199  0.0410  2.0359
 8045TIP3   OH245549   4.922   3.093   4.085 -0.5018 -0.2721  0.2270
 8045TIP3    H145550   5.011   3.093   4.052 -0.5734  1.1764 -0.0543
 8045TIP3    H245551   4.867   3.098   4.007 -0.7689  0.1485  0.4338
 8046TIP3   OH245552   3.396   5.631   5.154 -0.3052  0.0057 -0.0182
 8046TIP3    H145553   3.428   5.566   5.091 -1.2936  0.9587 -1.5573
 8046TIP3    H245554   3.302   5.639   5.135 -0.3403  1.3802  0.6015
 8047TIP3   OH245555   4.852   4.815   2.068  0.3814  0.3977 -0.5669
 8047TIP3    H145556   4.870   4.886   2.130 -0.0269 -0.1400  0.1966
 8047TIP3    H245557   4.789   4.853   2.006 -2.7126 -0.2247  1.8924
 8048TIP3   OH245558   5.864   0.930  14.097  0.2054 -0.7085  0.0128
 8048TIP3    H145559   5.882   0.962  14.186  1.5809  0.9634 -0.7969
 8048TIP3    H245560   5.886   1.004  14.041 -1.3480 -1.4918 -1.6986
 8049TIP3   OH245561   5.608   0.344  15.102  0.0499  0.2148 -0.2261
 8049TIP3    H145562   5.585   0.292  15.025  1.4448  0.2736 -0.6927
 8049TIP3    H245563   5.686   0.393  15.077  0.2473  0.6102  1.0643
 8050TIP3   OH245564   4.348   5.175   1.149  0.1369  0.0036  0.4819
 8050TIP3    H145565   4.409   5.120   1.100 -0.3690  0.4260 -0.6596
 8050TIP3    H245566   4.263   5.133   1.136  0.0559 -0.1342  1.3970
 8051TIP3   OH245567   2.886   5.688  15.593 -0.1151 -0.5867 -0.6258
 8051TIP3    H145568   2.928   5.633  15.527 -0.4852 -0.9658 -0.5464
 8051TIP3    H245569   2.881   5.774  15.552  0.9377 -0.4739 -0.5541
 8052TIP3   OH245570   4.641   4.882  10.697  0.3376  0.1819  0.6596
 8052TIP3    H145571   4.701   4.924  10.636 -2.4085  3.6344  0.0798
 8052TIP3    H245572   4.573   4.843  10.642  0.1903 -0.6690  1.4159
 8053TIP3   OH245573   1.900   0.724   2.701  0.1076 -0.1275  0.5565
 8053TIP3    H145574   1.829   0.687   2.648  0.2769 -0.8608  0.8267
 8053TIP3    H245575   1.923   0.806   2.657 -0.2123 -0.3913 -0.1213
 8054TIP3   OH245576   4.982   2.641   1.670 -0.4809  0.2471 -0.4301
 8054TIP3    H145577   4.976   2.734   1.648  1.0160  0.2608 -0.8805
 8054TIP3    H245578   4.953   2.595   1.591  2.3237  0.3273 -1.6023
 8055TIP3   OH245579   1.089   2.321  12.486  0.5589  0.3571 -0.3324
 8055TIP3    H145580   1.061   2.404  12.448  0.9793  1.1853  1.0971
 8055TIP3    H245581   1.184   2.320  12.476  0.6515  0.4938  0.5181
 8056TIP3   OH245582   0.722   6.004  12.096  0.4105 -0.2226  0.4563
 8056TIP3    H145583   0.719   5.975  12.004  1.2853  2.3744 -0.4882
 8056TIP3    H245584   0.798   5.959  12.132 -0.1597 -1.5661  0.0301
 8057TIP3   OH245585   1.440   1.167   2.798 -0.0212 -0.9016  0.1567
 8057TIP3    H145586   1.500   1.201   2.732 -0.0046 -1.4457 -0.1117
 8057TIP3    H245587   1.475   1.080   2.819  0.1577 -0.6113  1.1075
 8058TIP3   OH245588   2.007   3.220   1.529 -0.2233 -0.1130  0.3006
 8058TIP3    H145589   2.081   3.175   1.570  0.7911  1.4515  0.2436
 8058TIP3    H245590   2.027   3.219   1.435 -0.3137  0.2512  0.2776
 8059TIP3   OH245591   2.297   3.909   2.665  0.3395  0.6418 -0.0316
 8059TIP3    H145592   2.236   3.953   2.606  0.8594  1.1699 -0.1897
 8059TIP3    H245593   2.243   3.880   2.738 -0.6845 -1.7694 -1.6324
 8060TIP3   OH245594   0.988   1.347   4.835 -0.2242 -0.3800 -0.2447
 8060TIP3    H145595   0.909   1.318   4.882 -0.0377 -0.4743  0.0104
 8060TIP3    H245596   1.059   1.333   4.897 -0.1936  1.2590  0.1572
 8061TIP3   OH245597   0.426   0.635   4.873 -0.3743 -0.8969 -0.2432
 8061TIP3    H145598   0.520   0.650   4.861  0.2853 -2.9141  1.7222
 8061TIP3    H245599   0.397   0.708   4.929  0.4904 -1.2981  0.7639
 8062TIP3   OH245600   5.353   0.298  14.228  0.1570 -0.0235  0.0673
 8062TIP3    H145601   5.284   0.247  14.271 -0.9122  1.5284  0.2463
 8062TIP3    H245602   5.368   0.373  14.286  0.8295  0.5256 -0.7881
 8063TIP3   OH245603   5.745   6.096   4.299  0.3828 -0.3962  0.4134
 8063TIP3    H145604   5.681   6.025   4.305 -0.1310 -0.0168 -0.4109
 8063TIP3    H245605   5.706   6.168   4.349  0.7934 -0.6060  1.0463
 8064TIP3   OH245606   0.295   1.931  10.763  0.1320  0.2338 -0.6255
 8064TIP3    H145607   0.270   1.976  10.682  2.0184  0.0251 -1.3700
 8064TIP3    H245608   0.342   1.853  10.734 -0.6439 -0.7725  0.6881
 8065TIP3   OH245609   0.511   2.452  11.654 -0.3159 -0.7827  0.4969
 8065TIP3    H145610   0.449   2.388  11.691 -0.3087  0.6599  3.2610
 8065TIP3    H245611   0.457   2.506  11.597 -1.3441 -0.4997  1.6795
 8066TIP3   OH245612   4.010   5.812   4.766 -0.0009 -0.2431  0.5318
 8066TIP3    H145613   4.064   5.758   4.824  2.4749  0.6818 -0.7336
 8066TIP3    H245614   4.047   5.797   4.679 -2.4387 -0.2198 -0.5860
 8067TIP3   OH245615   0.303   6.594   1.013  0.0399  0.0174 -0.7574
 8067TIP3    H145616   0.305   6.637   0.927 -0.9576  2.7220  0.4417
 8067TIP3    H245617   0.212   6.602   1.042  0.0623 -2.0553  0.0275
 8068TIP3   OH245618   0.459   4.069   1.096  0.6145  0.5810  0.0634
 8068TIP3    H145619   0.482   3.977   1.108  0.9118  0.5396 -0.7134
 8068TIP3    H245620   0.540   4.116   1.118  0.2517  0.7141  1.1563
 8069TIP3   OH245621   2.798   2.861  16.083  0.0356 -0.2574 -0.6607
 8069TIP3    H145622   2.760   2.796  16.143  0.1991  1.3681  1.2933
 8069TIP3    H245623   2.880   2.886  16.124 -0.1693  1.4007 -1.2039
 8070TIP3   OH245624   3.028   0.013  12.111 -0.2642  0.2516 -0.0291
 8070TIP3    H145625   2.970  -0.053  12.150 -0.7058  1.9738  2.3915
 8070TIP3    H245626   2.992   0.026  12.023 -1.1439 -1.5297  0.0125
 8071TIP3   OH245627   1.386   1.978  14.833 -0.4018 -0.6281  0.3423
 8071TIP3    H145628   1.353   2.042  14.771 -1.4612 -0.7437  0.7552
 8071TIP3    H245629   1.324   1.982  14.907  0.9323 -0.3371  1.4838
 8072TIP3   OH245630   2.554   2.041   0.543  0.0941 -0.1354  1.0155
 8072TIP3    H145631   2.581   2.092   0.467  0.8031 -1.8136  0.1001
 8072TIP3    H245632   2.564   2.102   0.617  0.9518  1.0275 -0.0116
 8073TIP3   OH245633   0.957   5.430  15.033  0.4940  0.0110 -0.1073
 8073TIP3    H145634   1.038   5.479  15.050  0.6572 -0.7519  1.4944
 8073TIP3    H245635   0.919   5.473  14.956  2.2806  0.5569 -0.7419
 8074TIP3   OH245636   4.427   3.474  11.598  0.6567  0.0973  0.3664
 8074TIP3    H145637   4.407   3.445  11.509  0.5847 -2.5930  1.1815
 8074TIP3    H245638   4.342   3.500  11.634  0.4506 -0.2215  0.1152
 8075TIP3   OH245639   2.930   1.568   4.765  0.0952  0.1918  0.5877
 8075TIP3    H145640   3.005   1.625   4.747 -1.0280  1.4304 -0.4526
 8075TIP3    H245641   2.899   1.542   4.679 -0.3467 -0.7508  1.0242
 8076TIP3   OH245642   5.835   5.725   5.258  0.1221 -0.0714  0.1940
 8076TIP3    H145643   5.903   5.660   5.239 -0.3300 -1.1710  2.1355
 8076TIP3    H245644   5.767   5.708   5.192  0.3495 -1.0577  0.1962
 8077TIP3   OH245645   4.848   6.426  11.986  0.6283 -0.4520 -0.5363
 8077TIP3    H145646   4.837   6.331  11.981 -1.9195 -0.1975 -1.3022
 8077TIP3    H245647   4.770   6.456  12.033  2.1896  1.1713  1.1988
 8078TIP3   OH245648   0.270   3.359  11.457  0.0160 -0.0843 -0.5745
 8078TIP3    H145649   0.291   3.416  11.530 -2.6555  0.0366  0.2272
 8078TIP3    H245650   0.238   3.418  11.389  0.7631 -0.3538 -1.1779
 8079TIP3   OH245651   2.881   4.941   4.248 -0.5414  0.3480  0.2266
 8079TIP3    H145652   2.893   4.880   4.322 -0.4977  0.8823  0.6678
 8079TIP3    H245653   2.787   4.955   4.244 -0.4006  2.1408  1.7094
 8080TIP3   OH245654   5.919   6.519   1.348 -0.1647  0.6564  0.1155
 8080TIP3    H145655   5.826   6.515   1.367  0.1285  1.0502  1.8171
 8080TIP3    H245656   5.961   6.470   1.419  0.9479  0.8085 -0.4065
 8081TIP3   OH245657   3.605   6.217  15.059 -0.1477 -0.6589  0.6348
 8081TIP3    H145658   3.672   6.158  15.026 -1.0967 -1.1137 -0.5227
 8081TIP3    H245659   3.641   6.305  15.044  1.7673 -0.8451  3.4003
 8082TIP3   OH245660   5.222   4.070   0.298 -0.0889 -0.4623 -0.1106
 8082TIP3    H145661   5.274   4.062   0.218 -0.1201 -0.5589 -0.1212
 8082TIP3    H245662   5.149   4.126   0.274  0.6302  0.6374  0.2084
 8083TIP3   OH245663   1.208   6.501   4.641  0.2250  0.2089  0.1559
 8083TIP3    H145664   1.280   6.556   4.671  1.3908 -0.7263 -0.8644
 8083TIP3    H245665   1.156   6.558   4.585  1.2597  0.3671 -0.6601
 8084TIP3   OH245666   3.580   1.877  11.857  0.1639  0.0359  0.5986
 8084TIP3    H145667   3.610   1.887  11.767 -0.0643 -0.0600  0.5113
 8084TIP3    H245668   3.593   1.785  11.877  0.7618  0.1737  0.8625
 8085TIP3   OH245669   3.183   1.798   2.281 -0.5514  0.3310  0.2960
 8085TIP3    H145670   3.110   1.744   2.312 -0.2239  0.2608  0.9690
 8085TIP3    H245671   3.251   1.787   2.348 -0.8594  2.3717  1.0172
 8086TIP3   OH245672   5.175   1.745  13.153  0.5313  0.2668  0.9482
 8086TIP3    H145673   5.124   1.794  13.087 -0.6910 -0.5828  1.2330
 8086TIP3    H245674   5.265   1.770  13.135  0.1667  0.6624 -0.5596
 8087TIP3   OH245675   0.039   3.208  11.429  0.2076  0.3185 -0.2339
 8087TIP3    H145676  -0.026   3.278  11.424  0.1223  0.3608  1.1717
 8087TIP3    H245677   0.122   3.254  11.444  0.1867  0.1404  0.4557
 8088TIP3   OH245678   2.435   5.806  16.595 -0.4574 -0.3371 -0.1293
 8088TIP3    H145679   2.378   5.804  16.672  0.6366  0.1543  0.7266
 8088TIP3    H245680   2.390   5.750  16.531 -2.3187  0.7206  0.1778
 8089TIP3   OH245681   4.712   5.991  13.867 -0.0457  0.1865  0.0697
 8089TIP3    H145682   4.666   5.909  13.850  2.0294 -0.7139 -1.7340
 8089TIP3    H245683   4.672   6.054  13.806 -0.5306  0.0771  0.2724
 8090TIP3   OH245684   4.565   5.719   1.362  0.3575 -0.1455  0.1124
 8090TIP3    H145685   4.630   5.666   1.316  1.1394  0.1464  0.8657
 8090TIP3    H245686   4.519   5.657   1.419 -0.1791 -0.3886 -0.5667
 8091TIP3   OH245687   1.503   3.306   2.187  0.0226 -0.1211 -0.2396
 8091TIP3    H145688   1.471   3.218   2.207 -0.0001 -0.1420 -0.3638
 8091TIP3    H245689   1.584   3.291   2.138 -0.0788 -0.0766 -0.4226
 8092TIP3   OH245690   0.419   6.719  16.656 -0.3938 -0.2748 -0.3069
 8092TIP3    H145691   0.396   6.627  16.642  0.9246 -0.4653 -1.3982
 8092TIP3    H245692   0.511   6.718  16.680  0.0912  0.8358 -1.9171
 8093TIP3   OH245693   4.826   1.249   4.783  0.7578 -0.2257  0.2528
 8093TIP3    H145694   4.774   1.250   4.864 -1.8446 -1.9203 -1.2724
 8093TIP3    H245695   4.858   1.160   4.776  1.8339  0.1717 -0.1153
 8094TIP3   OH245696   4.951   0.652  14.120 -0.7332  0.2840  0.8531
 8094TIP3    H145697   4.956   0.644  14.215 -0.3641 -0.0639  0.8076
 8094TIP3    H245698   4.924   0.743  14.105  0.1965  0.6361  1.2625
 8095TIP3   OH245699   3.589   6.810  15.367  0.7031  0.5759 -0.9757
 8095TIP3    H145700   3.566   6.865  15.443  1.6497  1.6973 -1.4636
 8095TIP3    H245701   3.537   6.846  15.295  0.9155  0.4657 -1.1841
 8096TIP3   OH245702   0.707   1.534   4.356  0.0458 -0.0634 -0.6515
 8096TIP3    H145703   0.761   1.559   4.282  0.0033  0.9027 -0.3706
 8096TIP3    H245704   0.768   1.521   4.428 -0.0080  0.1469 -0.5650
 8097TIP3   OH245705   3.515   5.394  11.997  0.0119  0.1425  0.3960
 8097TIP3    H145706   3.561   5.310  12.007 -0.9691 -0.5030 -0.3682
 8097TIP3    H245707   3.523   5.415  11.904 -1.0055  0.1437  0.2962
 8098TIP3   OH245708   6.540   1.371  14.368  0.3728  0.0935  0.1982
 8098TIP3    H145709   6.491   1.453  14.366 -0.2520 -0.2778 -1.1819
 8098TIP3    H245710   6.500   1.322  14.440 -0.9842  0.0127 -0.5633
 8099TIP3   OH245711   6.224   5.767   6.722  0.2634  0.1153 -0.0192
 8099TIP3    H145712   6.197   5.834   6.785  2.4237  1.0834 -0.0339
 8099TIP3    H245713   6.160   5.775   6.651 -0.7439  0.7163  0.9067
 8100TIP3   OH245714   1.715   4.208   2.134 -0.1551 -0.1616  0.1175
 8100TIP3    H145715   1.758   4.133   2.175  1.9112  0.3382 -1.0048
 8100TIP3    H245716   1.669   4.171   2.058 -0.6366 -0.5099  0.5685
 8101TIP3   OH245717   2.414   2.192  16.714  0.1903 -0.4961 -0.0592
 8101TIP3    H145718   2.470   2.131  16.666 -0.8676 -0.5470 -1.3020
 8101TIP3    H245719   2.401   2.150  16.799  3.7002  0.5155  1.1598
 8102TIP3   OH245720   0.486   3.754   0.696  1.0359  0.3777 -0.4857
 8102TIP3    H145721   0.505   3.833   0.746  0.1844  1.1759 -1.3892
 8102TIP3    H245722   0.476   3.784   0.606 -1.1409 -0.4392 -0.5853
 8103TIP3   OH245723   2.457   0.698   2.533 -0.1526  0.3826 -0.0641
 8103TIP3    H145724   2.363   0.684   2.539 -0.1232 -0.3973 -1.1869
 8103TIP3    H245725   2.495   0.610   2.533  0.6118  0.6956  0.7812
 8104TIP3   OH245726   1.755   0.511  14.625 -0.5903  0.1350  0.4569
 8104TIP3    H145727   1.661   0.500  14.612 -0.5614 -0.6009  0.8654
 8104TIP3    H245728   1.788   0.537  14.538 -1.3090  1.4874  0.5595
 8105TIP3   OH245729   6.515   5.974  15.863 -0.0645 -0.3368  0.0163
 8105TIP3    H145730   6.608   5.974  15.886 -0.0101 -0.2009 -0.1973
 8105TIP3    H245731   6.492   6.067  15.861 -0.5117 -0.3943  1.2793
 8106TIP3   OH245732   5.629   4.390  11.560  0.0513  0.5997  0.2225
 8106TIP3    H145733   5.673   4.306  11.548  1.3067  1.0613  1.3774
 8106TIP3    H245734   5.625   4.428  11.473 -0.0649 -0.4203 -0.2335
 8107TIP3   OH245735   2.505   4.118   4.755  0.7805  0.3224 -0.1905
 8107TIP3    H145736   2.413   4.131   4.733  1.0759  0.6256 -1.3194
 8107TIP3    H245737   2.542   4.206   4.759  1.1362  0.1780 -0.2725
 8108TIP3   OH245738   6.134   1.036  15.768  0.2307  0.1129 -0.7656
 8108TIP3    H145739   6.084   1.092  15.828 -0.6036 -0.9064 -0.4728
 8108TIP3    H245740   6.129   0.949  15.807  0.7022 -0.3454 -1.6941
 8109TIP3   OH245741   4.364   1.459   4.452  0.5167  0.4123 -0.4349
 8109TIP3    H145742   4.360   1.373   4.410  0.8315  0.1996 -0.0342
 8109TIP3    H245743   4.322   1.446   4.537 -0.5375  0.9507 -0.8578
 8110TIP3   OH245744   3.768   6.708  15.773 -0.3385 -0.5539 -0.4336
 8110TIP3    H145745   3.738   6.722  15.863 -0.2735 -1.2460 -0.2958
 8110TIP3    H245746   3.743   6.617  15.754 -0.7713 -0.2734 -1.2766
 8111TIP3   OH245747   4.065   0.586   4.679 -0.0611 -0.8032  0.1055
 8111TIP3    H145748   3.975   0.602   4.652 -0.0706  0.6237  0.8558
 8111TIP3    H245749   4.058   0.539   4.762 -0.0861 -1.5347 -0.3027
 8112TIP3   OH245750   0.426   5.048   3.116  0.3855 -0.2275  0.1508
 8112TIP3    H145751   0.415   4.960   3.154  0.2592 -0.5859 -0.6971
 8112TIP3    H245752   0.481   5.034   3.039  0.0909  0.3895 -0.1777
 8113TIP3   OH245753   0.941   5.160  14.298  0.3554 -0.1159 -0.7661
 8113TIP3    H145754   1.030   5.185  14.273  0.2560 -0.4503 -1.4868
 8113TIP3    H245755   0.949   5.069  14.328  0.5292  0.3852  0.7745
 8114TIP3   OH245756   4.364   0.318   1.121 -0.0356  0.0988 -0.6691
 8114TIP3    H145757   4.288   0.313   1.179  0.5663 -0.5119  0.0917
 8114TIP3    H245758   4.343   0.259   1.049  1.4814 -3.7777  1.7212
 8115TIP3   OH245759   2.243   1.459   5.513 -0.6177  0.3109  0.3189
 8115TIP3    H145760   2.151   1.447   5.493 -0.1369 -0.9312 -1.3734
 8115TIP3    H245761   2.278   1.510   5.440 -0.2205  2.0649  1.6704
 8116TIP3   OH245762   4.318   4.232   0.446  0.5514  0.2347 -0.2529
 8116TIP3    H145763   4.406   4.204   0.471 -0.1902 -1.8080  0.1942
 8116TIP3    H245764   4.259   4.173   0.492 -1.1545  2.3374  0.4631
 8117TIP3   OH245765   0.558   5.783   2.082  0.7838  0.0835 -0.0603
 8117TIP3    H145766   0.463   5.773   2.096  0.9383 -0.2040  0.8672
 8117TIP3    H245767   0.583   5.704   2.035  0.7081 -0.2996  0.5213
 8118TIP3   OH245768   3.925   5.209   0.054  0.1461  0.1148 -0.1105
 8118TIP3    H145769   3.987   5.138   0.068  0.5935  0.6434  0.6991
 8118TIP3    H245770   3.936   5.266   0.130  0.3442  1.4448 -1.1031
 8119TIP3   OH245771   5.792   3.687   5.988  0.3932 -0.1600  0.5956
 8119TIP3    H145772   5.773   3.594   5.980 -1.5733  0.3583 -1.6866
 8119TIP3    H245773   5.760   3.710   6.076  1.8880 -1.7687  1.6305
 8120TIP3   OH245774   1.498   0.844   2.775  0.2006 -0.2681  0.1039
 8120TIP3    H145775   1.557   0.828   2.701  1.7425 -2.5975  1.7144
 8120TIP3    H245776   1.553   0.886   2.841 -0.5940 -0.1543  0.7075
 8121TIP3   OH245777   5.967   2.778  14.912 -0.0988  0.0486  0.2164
 8121TIP3    H145778   6.046   2.760  14.862 -0.3939  0.9776 -0.6028
 8121TIP3    H245779   5.900   2.721  14.873 -0.4971  1.2743 -0.9232
 8122TIP3   OH245780   5.726   6.627  14.856  0.0719  0.5546  0.1692
 8122TIP3    H145781   5.792   6.618  14.787  0.3739  0.1811  0.5011
 8122TIP3    H245782   5.777   6.639  14.936 -0.2705  0.4591  0.4039
 8123TIP3   OH245783   3.202   4.162   2.060 -0.2198  0.4572  0.1992
 8123TIP3    H145784   3.187   4.217   1.983 -0.0241  0.9177  0.4867
 8123TIP3    H245785   3.277   4.201   2.104 -1.2968  1.1582  1.4905
 8124TIP3   OH245786   2.333   6.568   1.792 -0.1024  0.0710  0.3194
 8124TIP3    H145787   2.370   6.521   1.868 -0.9314 -0.8120  0.2013
 8124TIP3    H245788   2.306   6.653   1.827 -1.1848 -0.6092  1.2237
 8125TIP3   OH245789   0.764   5.923   2.897 -0.0269  0.2869 -0.4069
 8125TIP3    H145790   0.701   5.853   2.915 -0.0872  0.0890 -1.3127
 8125TIP3    H245791   0.725   5.972   2.825 -0.4060  1.8192  0.7811
 8126TIP3   OH245792   4.981   5.155  11.316  0.1906 -0.6980 -0.2684
 8126TIP3    H145793   4.924   5.118  11.249  1.8902 -0.7514 -1.7747
 8126TIP3    H245794   5.056   5.188  11.268  1.2860 -0.3138  1.5886
 8127TIP3   OH245795   4.631   0.513   3.092 -0.1718 -0.4103 -0.7553
 8127TIP3    H145796   4.621   0.530   3.186  2.1178 -0.2352 -0.4948
 8127TIP3    H245797   4.722   0.537   3.072 -0.8308  0.3732 -3.2151
 8128TIP3   OH245798   5.912   2.689  16.465 -0.2510 -0.5690 -0.0013
 8128TIP3    H145799   5.948   2.729  16.387  0.8924 -0.8148  0.3787
 8128TIP3    H245800   5.885   2.762  16.520 -0.8223 -0.3928 -0.5098
 8129TIP3   OH245801   2.715   4.348   0.446  0.1407  0.1622 -0.1407
 8129TIP3    H145802   2.774   4.393   0.508  1.2280 -2.0981  0.5839
 8129TIP3    H245803   2.770   4.329   0.370 -0.0820 -0.5854 -0.1211
 8130TIP3   OH245804   1.442   0.975   1.823  0.0052 -0.1020  0.1203
 8130TIP3    H145805   1.532   1.006   1.811  0.1161 -0.4947 -0.0979
 8130TIP3    H245806   1.392   1.054   1.842  0.6305 -0.0500  1.6608
 8131TIP3   OH245807   0.301   1.634  11.483 -0.1196 -0.5782  0.1297
 8131TIP3    H145808   0.280   1.702  11.418 -0.6984 -1.2547 -0.4125
 8131TIP3    H245809   0.258   1.664  11.563 -1.7775 -1.0769 -0.5249
 8132TIP3   OH245810   0.991   0.924  10.707  0.3683 -0.0552 -0.0159
 8132TIP3    H145811   0.961   0.868  10.635 -0.6453  0.2670  0.1468
 8132TIP3    H245812   1.042   0.865  10.763  0.6393 -0.4513 -0.6630
 8133TIP3   OH245813   3.655   3.191   3.466 -0.1378 -0.3019 -0.3606
 8133TIP3    H145814   3.594   3.118   3.461 -2.2132  1.0771  2.3653
 8133TIP3    H245815   3.624   3.253   3.399  0.0225 -0.7607 -0.8710
 8134TIP3   OH245816   2.071   0.061  16.725 -0.2156 -0.0679 -0.0286
 8134TIP3    H145817   2.012   0.082  16.653 -0.3747  0.5029  0.2620
 8134TIP3    H245818   2.112  -0.021  16.699 -0.1821  0.1898 -0.8229
 8135TIP3   OH245819   1.223   0.837  11.486 -0.2263  0.0955 -0.6432
 8135TIP3    H145820   1.131   0.810  11.495 -0.3887  1.0057  0.7391
 8135TIP3    H245821   1.234   0.854  11.393 -1.4475 -0.1093 -0.8390
 8136TIP3   OH245822   2.215   5.366   0.662 -0.4790 -0.3649 -0.1730
 8136TIP3    H145823   2.151   5.436   0.649  0.7031  1.0049  0.9826
 8136TIP3    H245824   2.300   5.408   0.649  0.2376 -1.9161 -0.7438
 8137TIP3   OH245825   4.538   1.107  13.038 -0.0524 -0.1697  0.3576
 8137TIP3    H145826   4.608   1.092  12.973 -0.4599 -0.9625  0.0865
 8137TIP3    H245827   4.458   1.079  12.993 -0.6481  1.3681  0.4312
 8138TIP3   OH245828   6.296   6.135  15.338 -0.2333 -0.4200 -0.0562
 8138TIP3    H145829   6.338   6.122  15.423  2.4783  0.7962 -1.1088
 8138TIP3    H245830   6.336   6.070  15.281 -1.0085 -0.3058 -0.7531
 8139TIP3   OH245831   6.417   3.892   5.315 -0.1302 -0.4390  0.3829
 8139TIP3    H145832   6.506   3.861   5.298  0.5120  1.1443  0.6667
 8139TIP3    H245833   6.365   3.812   5.327 -0.0353 -1.8067 -5.4532
 8140TIP3   OH245834   2.024   5.873   3.242  0.8865 -0.5440 -0.0088
 8140TIP3    H145835   2.120   5.873   3.245  0.9843 -0.2034 -1.7680
 8140TIP3    H245836   1.997   5.851   3.331  2.5656  1.0004  0.9519
 8141TIP3   OH245837   1.931   5.548  15.145 -0.0691 -0.3446  0.4887
 8141TIP3    H145838   1.883   5.489  15.204  0.3094 -0.4798  0.6642
 8141TIP3    H245839   1.944   5.497  15.065 -0.0819 -0.3603  0.4966
 8142TIP3   OH245840   1.517   4.558   4.937 -0.3030 -0.1120  0.4935
 8142TIP3    H145841   1.476   4.471   4.936  1.3456 -1.0116  2.5405
 8142TIP3    H245842   1.597   4.545   4.988  0.3220  2.4970  0.2769
 8143TIP3   OH245843   6.461   0.183   4.846  0.3298 -0.3126  0.1289
 8143TIP3    H145844   6.401   0.167   4.773  0.1835  1.0414 -0.0734
 8143TIP3    H245845   6.406   0.220   4.915  1.0060  1.7114 -0.3471
 8144TIP3   OH245846   3.309   2.538  16.352  0.6874  0.6372 -0.4035
 8144TIP3    H145847   3.318   2.532  16.447 -0.4497 -0.8069 -0.3567
 8144TIP3    H245848   3.395   2.567  16.321  2.1639 -2.1815  0.8147
 8145TIP3   OH245849   5.334   2.480   1.280  0.2514 -0.1075 -0.1654
 8145TIP3    H145850   5.274   2.500   1.351  0.5728 -0.9280  0.3669
 8145TIP3    H245851   5.318   2.547   1.214 -0.5199  0.2788  0.4004
 8146TIP3   OH245852   0.010   5.730  12.063 -0.2216 -0.5798  0.1835
 8146TIP3    H145853   0.081   5.736  12.128  0.7696 -0.8377 -0.8565
 8146TIP3    H245854  -0.016   5.821  12.048 -0.0077 -0.4736  0.4463
 8147TIP3   OH245855   6.434   1.831   5.349 -0.0008  0.1527  0.1000
 8147TIP3    H145856   6.464   1.922   5.360  0.1422  0.3217 -1.4177
 8147TIP3    H245857   6.432   1.795   5.438  1.0085  1.3052  0.6180
 8148TIP3   OH245858   4.573   2.803   1.499 -0.2291  0.1610  0.4281
 8148TIP3    H145859   4.488   2.768   1.472 -0.0085 -0.2210  0.2271
 8148TIP3    H245860   4.602   2.745   1.569 -0.8379  1.1998  1.5772
 8149TIP3   OH245861   4.219   5.271  11.007  0.3284 -0.1269 -0.3198
 8149TIP3    H145862   4.289   5.326  10.973  1.5791  0.4833  2.8788
 8149TIP3    H245863   4.157   5.332  11.047 -0.8476 -0.8243 -0.9936
 8150TIP3   OH245864   6.807   6.753   4.020  0.2704 -0.4496 -0.4375
 8150TIP3    H145865   6.733   6.797   3.978 -0.1238 -0.8248 -0.1465
 8150TIP3    H245866   6.870   6.740   3.949 -0.4968 -1.3086 -0.9865
 8151TIP3   OH245867   2.355   6.045  12.325 -0.3022 -0.2897 -0.3439
 8151TIP3    H145868   2.278   5.991  12.308 -2.1302  2.3770 -1.1891
 8151TIP3    H245869   2.414   6.025  12.252 -1.3007 -0.5082 -1.1205
 8152TIP3   OH245870   3.221   6.684   5.166 -0.2953 -0.3805 -0.1452
 8152TIP3    H145871   3.315   6.680   5.184 -0.4941  0.9901  1.4020
 8152TIP3    H245872   3.215   6.712   5.075  0.7675 -2.0733 -0.7839
 8153TIP3   OH245873   1.549   5.910  16.142  0.1214 -0.4561  0.0902
 8153TIP3    H145874   1.556   5.999  16.108 -2.5298  0.5105  1.7627
 8153TIP3    H245875   1.461   5.906  16.180  0.6788 -3.3605  1.3156
 8154TIP3   OH245876   6.604   0.324   2.228  0.0186 -0.4862  0.2360
 8154TIP3    H145877   6.530   0.386   2.226  0.3960 -0.0439 -0.0996
 8154TIP3    H245878   6.603   0.283   2.142 -1.3427 -2.3013  1.0265
 8155TIP3   OH245879   2.896   1.146  13.927 -0.5909 -0.6410  0.2954
 8155TIP3    H145880   2.962   1.104  13.872 -1.3880 -1.7097  0.0975
 8155TIP3    H245881   2.897   1.096  14.009  0.4226  0.7935  1.1869
 8156TIP3   OH245882   6.389   2.487  14.001  0.4597 -0.1149  0.2116
 8156TIP3    H145883   6.399   2.393  13.986  0.2440  0.0436 -0.9938
 8156TIP3    H245884   6.373   2.494  14.095  0.7691 -1.2549  0.3711
 8157TIP3   OH245885   6.623   3.967  16.729 -0.2601 -0.6895 -0.1895
 8157TIP3    H145886   6.705   4.005  16.697  0.6697 -1.4654  1.1492
 8157TIP3    H245887   6.642   3.873  16.737 -1.3243 -0.8929  0.0258
 8158TIP3   OH245888   3.109   4.461  15.122 -0.0645 -0.1944 -0.1230
 8158TIP3    H145889   3.166   4.398  15.166  0.0019  0.5688  0.9296
 8158TIP3    H245890   3.055   4.498  15.192 -1.3145 -0.3221 -0.9801
 8159TIP3   OH245891   4.612   1.060   5.378  0.7241  0.5860  0.1150
 8159TIP3    H145892   4.670   1.136   5.386 -0.0928  1.6084 -2.4067
 8159TIP3    H245893   4.620   1.034   5.286 -1.7820 -0.0313 -0.0029
 8160TIP3   OH245894   2.750   4.129   6.325  0.7065 -0.0814  0.0220
 8160TIP3    H145895   2.812   4.168   6.387  1.0091 -1.0774  0.3621
 8160TIP3    H245896   2.716   4.051   6.371 -0.3773  0.1350 -0.3804
 8161TIP3   OH245897   5.075   1.329  15.643  0.0096  0.3983 -0.3810
 8161TIP3    H145898   5.109   1.239  15.650 -1.5539 -0.1034  2.0220
 8161TIP3    H245899   4.981   1.318  15.626 -0.3448  1.5251  0.6865
 8162TIP3   OH245900   1.867   3.862   2.674 -0.1456  0.1997  0.3873
 8162TIP3    H145901   1.846   3.769   2.666 -0.8105  0.3943 -0.2609
 8162TIP3    H245902   1.863   3.880   2.768  0.4350 -0.5198  0.5543
 8163TIP3   OH245903   5.856   0.293   1.521  0.0464 -0.0541 -0.1938
 8163TIP3    H145904   5.799   0.369   1.505  1.1159  0.9909  0.6830
 8163TIP3    H245905   5.942   0.321   1.489  0.2196 -1.3659 -0.9260
 8164TIP3   OH245906   1.217   3.850  16.293 -0.1766  0.1583 -0.5140
 8164TIP3    H145907   1.134   3.808  16.316 -0.9987  1.2471 -1.3977
 8164TIP3    H245908   1.281   3.809  16.352 -1.0661 -1.7104 -0.7645
 8165TIP3   OH245909   5.281   2.095  15.025 -0.2304 -0.0871 -0.6991
 8165TIP3    H145910   5.279   2.133  15.113  2.3044  2.8083 -1.6991
 8165TIP3    H245911   5.355   2.034  15.027 -0.6242 -0.5680 -0.6504
 8166TIP3   OH245912   5.399   6.704  16.368 -0.1110  0.2240  0.1046
 8166TIP3    H145913   5.330   6.659  16.320 -0.1407  0.7969 -0.4009
 8166TIP3    H245914   5.477   6.650  16.353 -0.6846 -1.1564  1.7682
 8167TIP3   OH245915   4.517   0.957   2.676 -0.2178 -0.1088  0.5563
 8167TIP3    H145916   4.493   1.038   2.631 -0.4729 -0.7069 -0.3959
 8167TIP3    H245917   4.448   0.945   2.741 -0.6140  0.0278  0.1680
 8168TIP3   OH245918   6.790   2.070  11.477 -0.2799  0.1685 -0.2770
 8168TIP3    H145919   6.789   2.161  11.448 -0.7111  0.0463 -0.6470
 8168TIP3    H245920   6.704   2.055  11.515 -0.2027 -0.0803 -0.1950
 8169TIP3   OH245921   4.655   3.465  12.319 -0.2853  0.2125  0.3458
 8169TIP3    H145922   4.682   3.475  12.411  0.3127  3.2302 -0.0423
 8169TIP3    H245923   4.560   3.463  12.322 -0.4243  3.0503  0.9871
 8170TIP3   OH245924   2.629   1.054   5.422 -0.1125  0.2371  0.3187
 8170TIP3    H145925   2.588   1.074   5.338 -1.9181  0.8169  1.2975
 8170TIP3    H245926   2.584   1.110   5.485 -0.1831 -1.5961  1.9889
 8171TIP3   OH245927   1.190   5.707  16.387 -0.6585 -0.6145  0.1202
 8171TIP3    H145928   1.103   5.737  16.363 -0.2796 -0.8538 -1.7400
 8171TIP3    H245929   1.250   5.764  16.338  0.1163 -2.5296 -1.2986
 8172TIP3   OH245930   3.605   2.570  11.642  0.2927  0.0418 -0.8035
 8172TIP3    H145931   3.599   2.646  11.583 -0.7709  1.2534  0.7883
 8172TIP3    H245932   3.554   2.502  11.598 -0.1243  0.7710 -1.4750
 8173TIP3   OH245933   1.092   0.856   4.312 -0.3286 -0.3417 -0.2526
 8173TIP3    H145934   1.020   0.799   4.286 -2.3188  1.6868  0.4740
 8173TIP3    H245935   1.160   0.840   4.246 -2.0251 -1.2504 -1.8902
 8174TIP3   OH245936   4.061   5.421   1.297 -0.1894 -0.0254 -0.5539
 8174TIP3    H145937   4.136   5.463   1.341  0.2096 -0.1496 -1.1032
 8174TIP3    H245938   4.092   5.404   1.208  0.0702 -2.5798 -0.0338
 8175TIP3   OH245939   3.277   0.077  16.409  0.4762 -0.0753  0.5537
 8175TIP3    H145940   3.222   0.017  16.359  1.2124 -1.2085  1.0824
 8175TIP3    H245941   3.223   0.156  16.418 -0.5992 -0.7274  0.0489
 8176TIP3   OH245942   5.911   5.729  15.664 -0.1295  0.0430 -0.2339
 8176TIP3    H145943   5.922   5.644  15.706 -0.2678 -0.5140 -1.2993
 8176TIP3    H245944   5.998   5.768  15.663  0.0280 -0.3124 -0.2210
 8177TIP3   OH245945   2.840   1.839   0.321  0.4563  0.4939 -0.6261
 8177TIP3    H145946   2.868   1.804   0.237 -0.0088  2.6265 -1.7306
 8177TIP3    H245947   2.905   1.905   0.344  0.3219  0.2768  0.4658
 8178TIP3   OH245948   0.140   4.063   2.184  0.5274 -0.2900 -0.2948
 8178TIP3    H145949   0.128   3.972   2.213  1.5761  0.1562  1.7260
 8178TIP3    H245950   0.051   4.095   2.169  0.0147 -1.1019  0.8053
 8179TIP3   OH245951   2.815   3.564   4.394  0.2923  0.1362 -0.9290
 8179TIP3    H145952   2.871   3.486   4.395  0.0680 -0.0292 -1.1816
 8179TIP3    H245953   2.864   3.627   4.340  0.6784  0.3269 -0.3631
 8180TIP3   OH245954   0.509   0.529  15.034  0.2359  0.1981 -0.1821
 8180TIP3    H145955   0.545   0.559  14.950  0.0837  1.1506  0.0801
 8180TIP3    H245956   0.461   0.450  15.012  1.4496 -0.4138 -0.7464
 8181TIP3   OH245957   1.317   3.601  13.673  0.4077 -0.3074  0.3473
 8181TIP3    H145958   1.339   3.647  13.591  0.4291 -1.5117 -0.3419
 8181TIP3    H245959   1.225   3.619  13.687 -0.2634 -2.1191 -1.3255
 8182TIP3   OH245960   2.274   6.725  11.661 -0.5134 -0.3986 -0.2641
 8182TIP3    H145961   2.338   6.792  11.683 -0.8542 -0.0977 -0.1873
 8182TIP3    H245962   2.193   6.773  11.644 -1.0270 -0.8512  0.7740
 8183TIP3   OH245963   3.867   3.532   4.108  0.2263 -0.4162 -0.0492
 8183TIP3    H145964   3.957   3.559   4.092  0.4021 -1.5803 -1.2542
 8183TIP3    H245965   3.821   3.551   4.026 -0.7339  0.5136  0.6768
 8184TIP3   OH245966   4.502   0.194   4.604 -0.0780  0.9224  0.4400
 8184TIP3    H145967   4.508   0.102   4.628 -2.5262  0.5260 -0.2826
 8184TIP3    H245968   4.511   0.241   4.687 -1.8806 -0.1344  1.2819
 8185TIP3   OH245969   6.761   2.794  11.379 -0.3053  0.2490 -0.3433
 8185TIP3    H145970   6.817   2.848  11.436 -0.5120 -1.1420  1.2637
 8185TIP3    H245971   6.822   2.755  11.316  0.2177  0.3650  0.0834
 8186TIP3   OH245972   6.157   4.081  12.932  0.0800  0.2537  0.0617
 8186TIP3    H145973   6.064   4.058  12.927  0.0181  0.3315  0.7331
 8186TIP3    H245974   6.157   4.177  12.941  0.3048  0.4891 -1.9609
 8187TIP3   OH245975   4.120   4.643   6.706 -0.9595  0.3235 -0.0550
 8187TIP3    H145976   4.200   4.605   6.672 -0.7953  0.6106  0.0028
 8187TIP3    H245977   4.069   4.569   6.739 -0.1861  0.2477  1.0227
 8188TIP3   OH245978   1.445   3.967  11.505 -0.1083  0.3240  0.4678
 8188TIP3    H145979   1.435   3.966  11.600  0.8789  0.5320  0.5795
 8188TIP3    H245980   1.537   3.986  11.490  0.0476 -1.0260 -0.5258
 8189TIP3   OH245981   2.711   5.853  16.161  0.1378  0.1354  0.2786
 8189TIP3    H145982   2.785   5.812  16.206  0.6705 -1.5845 -1.9287
 8189TIP3    H245983   2.740   5.861  16.070 -1.8596  0.8086 -0.3613
 8190TIP3   OH245984   5.901   2.869   1.244  0.0271  0.0032  0.2206
 8190TIP3    H145985   5.976   2.810   1.236 -0.9937 -1.2505 -0.4843
 8190TIP3    H245986   5.850   2.832   1.316  0.8481  1.7695  1.7908
 8191TIP3   OH245987   6.564   4.492  16.103  0.6694  0.7058  0.1714
 8191TIP3    H145988   6.609   4.513  16.021 -2.9257 -0.3707 -2.3282
 8191TIP3    H245989   6.535   4.577  16.137  2.4945  1.1922  0.6227
 8192TIP3   OH245990   6.567   4.679  12.946 -0.6494 -0.2045  0.2144
 8192TIP3    H145991   6.656   4.644  12.937 -1.1328 -1.2983 -0.6445
 8192TIP3    H245992   6.522   4.650  12.867 -1.5265  1.1116  0.2069
 8193TIP3   OH245993   2.334   2.806  15.069  0.4317  0.1747 -0.0535
 8193TIP3    H145994   2.340   2.714  15.041  1.1076  0.2795 -0.2587
 8193TIP3    H245995   2.373   2.855  14.997  1.0366  0.5451  0.5155
 8194TIP3   OH245996   5.168   0.676   2.599  0.0065 -0.2517  0.4710
 8194TIP3    H145997   5.129   0.719   2.523  4.0766 -2.7283 -3.5774
 8194TIP3    H245998   5.241   0.734   2.624 -0.2262 -0.3272  1.3600
 8195TIP3   OH245999   4.663   2.125  11.106  0.2587  0.3435 -0.3194
 8195TIP3    H146000   4.708   2.159  11.183 -0.1961  2.9958 -1.1106
 8195TIP3    H246001   4.572   2.117  11.133  0.0590  1.4816 -0.5813
 8196TIP3   OH246002   2.548   4.260  11.528 -0.1794  0.2741 -0.6528
 8196TIP3    H146003   2.497   4.334  11.498  1.2366  1.5693 -0.0150
 8196TIP3    H246004   2.527   4.251  11.621  0.1567  0.3022 -0.5725
 8197TIP3   OH246005   1.467   3.652  16.095  0.7502  0.3412  0.3060
 8197TIP3    H146006   1.504   3.628  16.011 -0.2997 -1.4617  0.3119
 8197TIP3    H246007   1.489   3.745  16.106  1.5652  0.3964 -1.5775
 8198TIP3   OH246008   6.650   0.398   4.321 -0.0316 -0.3954  0.5918
 8198TIP3    H146009   6.647   0.455   4.398 -0.5128  0.4155 -0.0065
 8198TIP3    H246010   6.738   0.409   4.287 -0.0766 -0.1232  0.5620
 8199TIP3   OH246011   5.198   4.854   3.564 -0.2366 -0.0687  0.1806
 8199TIP3    H146012   5.293   4.861   3.562 -0.3526  2.3791 -1.0361
 8199TIP3    H246013   5.171   4.914   3.634 -0.9164  0.9159 -0.8803
 8200TIP3   OH246014   0.962   5.595  15.468 -0.3840  0.1087 -0.6846
 8200TIP3    H146015   0.951   5.689  15.482 -0.1988 -0.1917  1.8382
 8200TIP3    H246016   1.016   5.589  15.389 -0.6755  2.0892 -1.0913
 8201TIP3   OH246017   4.680   2.373   2.250 -0.0453 -0.3456 -0.0623
 8201TIP3    H146018   4.766   2.402   2.281  0.9771 -0.6611 -2.3893
 8201TIP3    H246019   4.671   2.284   2.284  1.2223 -0.8368 -0.9223
 8202TIP3   OH246020   3.614   1.733   1.207 -0.1526  0.0153 -0.5799
 8202TIP3    H146021   3.654   1.670   1.148 -0.6882 -0.7026 -0.2014
 8202TIP3    H246022   3.532   1.758   1.164  0.1277  0.5806 -0.8000
 8203TIP3   OH246023   5.214   5.195  11.781 -0.1598 -0.0353  0.1093
 8203TIP3    H146024   5.160   5.187  11.702  0.4451  0.1266 -0.3284
 8203TIP3    H246025   5.159   5.242  11.843 -0.9000 -0.7853  0.0327
 8204TIP3   OH246026   3.273   4.655  11.613 -0.2415  0.3711  0.0263
 8204TIP3    H146027   3.363   4.637  11.640  0.1247  0.2773 -1.2244
 8204TIP3    H246028   3.237   4.569  11.592 -0.5711  0.4290  0.3408
 8205TIP3   OH246029   4.863   3.947   5.153  0.0960 -0.0028  0.3007
 8205TIP3    H146030   4.789   3.901   5.193 -1.2767  1.5715 -0.3153
 8205TIP3    H246031   4.879   3.900   5.071  0.6842 -1.1683  1.0649
 8206TIP3   OH246032   6.714   2.763   3.382  0.1929 -0.3647 -0.8809
 8206TIP3    H146033   6.619   2.759   3.397  0.3370 -0.2565  0.0576
 8206TIP3    H246034   6.722   2.814   3.301 -0.4498  2.0161  0.4551
 8207TIP3   OH246035   5.246   2.048   2.014 -0.7642  0.1297  0.0955
 8207TIP3    H146036   5.169   2.052   2.070 -0.5584 -1.1027  0.4953
 8207TIP3    H246037   5.292   2.131   2.030 -0.9341 -0.0085  1.4308
 8208TIP3   OH246038   1.642   4.650   5.382 -0.3773  0.1478  0.4522
 8208TIP3    H146039   1.629   4.622   5.473  1.2342  1.1153  1.0345
 8208TIP3    H246040   1.557   4.639   5.341 -0.8914 -1.3167  1.7927
 8209TIP3   OH246041   4.777   2.717  14.494  0.3503 -0.2640 -0.7540
 8209TIP3    H146042   4.746   2.764  14.572  2.3762 -0.8278  0.4568
 8209TIP3    H246043   4.849   2.771  14.461  2.3655 -2.1221  0.3475
 8210TIP3   OH246044   3.800   2.772  17.053  0.1026  0.1549  0.0652
 8210TIP3    H146045   3.748   2.749  17.130  0.2468  1.8125  0.7071
 8210TIP3    H246046   3.847   2.692  17.030 -0.4633 -0.5520  1.2764
 8211TIP3   OH246047   4.892   1.771   4.605 -0.1169  0.2452 -0.3322
 8211TIP3    H146048   4.843   1.693   4.579 -0.5683  0.1739  0.6614
 8211TIP3    H246049   4.945   1.793   4.529 -1.3981  0.0863 -1.2921
 8212TIP3   OH246050   1.217   6.148  11.633 -0.2083 -0.3149  0.2386
 8212TIP3    H146051   1.132   6.159  11.591 -1.6615  1.5453  3.3049
 8212TIP3    H246052   1.208   6.068  11.685  0.3535 -0.7264 -0.2766
 8213TIP3   OH246053   5.766   3.261  14.530 -0.3825  0.0232  0.3150
 8213TIP3    H146054   5.838   3.317  14.559 -0.1855 -0.4618  0.7773
 8213TIP3    H246055   5.808   3.191  14.480 -0.7182  0.8769 -1.2535
 8214TIP3   OH246056   5.179   2.848   3.863  0.5817  0.4178  0.5191
 8214TIP3    H146057   5.175   2.891   3.948 -0.3491  1.1045  0.1358
 8214TIP3    H246058   5.099   2.795   3.858  0.8292  0.0617  0.2308
 8215TIP3   OH246059   5.627   2.015  15.873  0.3872 -0.3276 -0.0328
 8215TIP3    H146060   5.591   1.941  15.922  1.2468 -2.0078 -1.7954
 8215TIP3    H246061   5.583   2.011  15.788 -0.4560  2.0074  0.2019
 8216TIP3   OH246062   4.059   0.664  15.535  0.2423  0.0875 -0.7218
 8216TIP3    H146063   4.035   0.609  15.460 -1.6455  1.3203 -1.1035
 8216TIP3    H246064   4.037   0.753  15.507  0.1157  0.6556  1.0512
 8217TIP3   OH246065   5.995   1.342   2.112  0.5179 -0.3500 -0.4052
 8217TIP3    H146066   5.932   1.399   2.156  0.4471 -0.8870  0.1902
 8217TIP3    H246067   5.942   1.278   2.066  0.5573  0.6971 -1.9956
 8218TIP3   OH246068   1.340   5.653   2.252 -0.2786  0.1299 -0.6497
 8218TIP3    H146069   1.398   5.589   2.211  2.9742  1.3587  1.6352
 8218TIP3    H246070   1.334   5.725   2.189 -2.0699 -1.3141 -2.2404
 8219TIP3   OH246071   3.500   1.054   4.640  0.2010 -0.0312 -0.4638
 8219TIP3    H146072   3.420   1.058   4.693  0.3523 -0.6133 -0.1776
 8219TIP3    H246073   3.469   1.050   4.550 -0.0381  1.9824 -0.5005
 8220TIP3   OH246074   1.359   2.246   5.111 -0.6098  0.1271 -0.4084
 8220TIP3    H146075   1.310   2.252   5.029  0.2712  1.1035 -0.8900
 8220TIP3    H246076   1.347   2.332   5.152  0.1951  0.1677 -0.2449
 8221TIP3   OH246077   1.847   2.397   5.790 -0.3544  0.0538 -0.0473
 8221TIP3    H146078   1.879   2.464   5.851  1.8781 -0.0711 -1.0156
 8221TIP3    H246079   1.752   2.410   5.789 -0.2218  1.6005  1.6288
 8222TIP3   OH246080   0.269   2.307   2.072  0.3662 -0.2839 -0.2515
 8222TIP3    H146081   0.346   2.352   2.037  1.1635 -0.8451  0.7320
 8222TIP3    H246082   0.297   2.216   2.084 -0.4910 -0.5258  0.0099
 8223TIP3   OH246083   2.934   1.863  15.920  0.4076  0.3989 -0.4098
 8223TIP3    H146084   2.841   1.877  15.901  0.7598  0.6297 -2.0801
 8223TIP3    H246085   2.979   1.936  15.879  1.3696  0.1501  0.1575
 8224TIP3   OH246086   4.134   2.933  14.205  0.1179 -0.3055  0.1379
 8224TIP3    H146087   4.079   2.856  14.217 -0.5567 -0.1855 -1.8263
 8224TIP3    H246088   4.089   3.003  14.252  0.4827 -0.9694  1.5235
 8225TIP3   OH246089   1.929   5.568   0.424  0.4331  0.0394 -0.8357
 8225TIP3    H146090   1.846   5.567   0.471 -0.5748 -0.8568 -2.5374
 8225TIP3    H246091   1.914   5.514   0.347  2.4741  0.2137 -1.4224
 8226TIP3   OH246092   6.624   3.122  16.511  0.5052  0.5921 -0.0913
 8226TIP3    H146093   6.673   3.181  16.455  1.3385 -0.2120 -0.2341
 8226TIP3    H246094   6.534   3.125  16.477  0.8134  0.7984 -0.8949
 8227TIP3   OH246095   5.832   5.409  15.329  0.7572  0.3679  0.0173
 8227TIP3    H146096   5.840   5.467  15.254 -0.3181  1.8613  0.9999
 8227TIP3    H246097   5.894   5.445  15.394  1.1818 -0.4958  0.1022
 8228TIP3   OH246098   2.099   1.031  13.468 -0.2367  0.1490  0.1001
 8228TIP3    H146099   2.007   1.056  13.461  0.5905  3.4902 -0.7719
 8228TIP3    H246100   2.118   1.038  13.561 -0.7296 -0.1004  0.2256
 8229TIP3   OH246101   5.660   5.766   6.159  0.7462  0.4072  0.4321
 8229TIP3    H146102   5.626   5.682   6.127  2.2170  0.2442 -0.8122
 8229TIP3    H246103   5.586   5.826   6.152 -0.3953 -0.8034  1.5404
 8230TIP3   OH246104   5.458   6.457  16.737 -0.8267 -0.5880  0.5508
 8230TIP3    H146105   5.530   6.494  16.789 -0.0702 -0.8479 -0.2921
 8230TIP3    H246106   5.495   6.378  16.698 -1.6275 -0.8100  0.2305
 8231TIP3   OH246107   5.864   3.196   5.584  1.2486  0.3524 -0.5491
 8231TIP3    H146108   5.840   3.237   5.501  0.0067 -0.6082 -0.6847
 8231TIP3    H246109   5.876   3.270   5.644  0.7508  0.9901 -1.2174
 8232TIP3   OH246110   2.455   5.312   2.520  0.4049  0.1075 -0.1283
 8232TIP3    H146111   2.415   5.291   2.436  0.2880  1.3445 -0.4013
 8232TIP3    H246112   2.548   5.293   2.508  0.1926 -1.0532 -0.0679
 8233TIP3   OH246113   4.413   0.855  13.295 -0.0207  0.1119 -0.1746
 8233TIP3    H146114   4.491   0.871  13.349 -0.8155  0.4262  0.9218
 8233TIP3    H246115   4.436   0.781  13.240  0.6192 -0.6315  1.0562
 8234TIP3   OH246116   3.138   0.504   4.824  0.4754  0.3869  0.1511
 8234TIP3    H146117   3.232   0.524   4.820  1.3820 -2.9694  1.7443
 8234TIP3    H246118   3.105   0.528   4.737  2.7481  1.7573 -0.4126
 8235TIP3   OH246119   0.226   2.073   4.367 -0.1215 -0.2769  0.2682
 8235TIP3    H146120   0.297   2.073   4.304 -0.5318 -0.5883 -0.1968
 8235TIP3    H246121   0.172   2.148   4.343 -0.7221 -0.8640 -0.2684
 8236TIP3   OH246122   4.927   0.688  14.389  0.4562 -0.0267 -0.0255
 8236TIP3    H146123   4.875   0.763  14.419 -1.7847 -1.5540  0.1000
 8236TIP3    H246124   4.928   0.628  14.464 -0.2912 -1.3716 -1.0475
 8237TIP3   OH246125   0.855   5.867   6.202 -0.3538 -0.0340 -0.0223
 8237TIP3    H146126   0.948   5.860   6.227 -0.6607 -1.2732  0.8906
 8237TIP3    H246127   0.811   5.895   6.282 -0.6009  2.0991 -0.8569
 8238TIP3   OH246128   5.748   5.554   3.491 -0.0059 -0.1047  0.5841
 8238TIP3    H146129   5.688   5.480   3.501  0.2840 -0.1823  2.0189
 8238TIP3    H246130   5.704   5.612   3.430 -0.7784 -0.9256  0.3313
 8239TIP3   OH246131   0.749   5.928  13.075  0.3317  0.4268  0.4733
 8239TIP3    H146132   0.670   5.980  13.062  0.2126  0.1955  0.2752
 8239TIP3    H246133   0.734   5.848  13.025  1.7362  1.4458 -1.7425
 8240TIP3   OH246134   5.649   2.728   5.179  0.2217 -0.4154  0.0592
 8240TIP3    H146135   5.741   2.702   5.188  0.2015 -0.1750  1.0948
 8240TIP3    H246136   5.604   2.681   5.249 -0.3804 -0.2127 -0.1835
 8241TIP3   OH246137   1.794   3.232   3.978 -0.0896 -0.0270 -0.0929
 8241TIP3    H146138   1.742   3.176   4.036  1.5991  0.3923  1.9715
 8241TIP3    H246139   1.786   3.319   4.016 -0.0842  0.5550 -1.3753
 8242TIP3   OH246140   1.014   1.546   0.514  0.1288  0.1339 -0.2387
 8242TIP3    H146141   1.077   1.606   0.554  1.3250 -0.9326 -0.4449
 8242TIP3    H246142   0.966   1.507   0.587  1.2485 -0.6690  0.0991
 8243TIP3   OH246143   4.455   3.265   2.332  0.4547 -0.8124 -0.1984
 8243TIP3    H146144   4.460   3.283   2.238 -0.6354 -0.6493 -0.2340
 8243TIP3    H246145   4.431   3.173   2.338  0.7604 -0.8849 -0.0736
 8244TIP3   OH246146   4.834   1.936  15.917 -0.1640  0.3088  0.1759
 8244TIP3    H146147   4.923   1.936  15.951 -0.0195 -1.0898 -0.1458
 8244TIP3    H246148   4.779   1.958  15.992  0.4460  1.2317  0.3590
 8245TIP3   OH246149   4.967   3.156  13.701  0.5172  0.7810  0.3153
 8245TIP3    H146150   4.961   3.075  13.650 -0.4428 -0.7535  2.6964
 8245TIP3    H246151   4.928   3.223  13.644  0.0580 -0.6827 -1.1777
 8246TIP3   OH246152   4.942   1.289  14.050 -0.3153  0.0959  0.1249
 8246TIP3    H146153   4.897   1.297  13.966  1.5279  0.2746 -0.9054
 8246TIP3    H246154   4.897   1.352  14.107 -0.4678  1.3322 -1.2740
 8247TIP3   OH246155   1.392   5.821   4.034  0.8595  0.3209 -0.5190
 8247TIP3    H146156   1.338   5.900   4.029 -0.8717 -0.8292 -1.1319
 8247TIP3    H246157   1.415   5.814   4.127  0.6438  1.2947 -0.3789
 8248TIP3   OH246158   1.758   4.405  11.776 -0.0518  0.1998  0.0001
 8248TIP3    H146159   1.828   4.376  11.835  0.6894  0.1373 -0.8815
 8248TIP3    H246160   1.696   4.333  11.775  0.5035 -0.2828 -0.1870
 8249TIP3   OH246161   2.669   2.386   4.524  0.0155 -0.3315  1.1112
 8249TIP3    H146162   2.760   2.357   4.512 -0.4438 -1.1592 -0.8320
 8249TIP3    H246163   2.676   2.468   4.573  1.7740 -0.6273  1.4276
 8250TIP3   OH246164   4.102   5.905   5.268  0.2714 -0.2354 -0.6072
 8250TIP3    H146165   4.171   5.841   5.287  1.3191  0.4524 -1.8917
 8250TIP3    H246166   4.038   5.856   5.217 -0.2374 -0.8863  0.6126
 8251TIP3   OH246167   1.108   0.760   0.394  0.2662  0.3282  0.6043
 8251TIP3    H146168   1.051   0.739   0.320  0.2042  1.4697  0.3116
 8251TIP3    H246169   1.187   0.796   0.354  0.7582 -0.2392  1.0537
 8252TIP3   OH246170   5.225   3.966   1.965  0.5868  0.1160  0.3895
 8252TIP3    H146171   5.204   4.059   1.978  0.6677  0.0606  0.9231
 8252TIP3    H246172   5.314   3.958   1.999  0.9770  0.0632 -0.6110
 8253TIP3   OH246173   2.124   1.799  13.525 -0.1716 -0.0387  0.0742
 8253TIP3    H146174   2.169   1.884  13.516  1.2033 -0.7536 -0.1251
 8253TIP3    H246175   2.195   1.735  13.530 -1.1905 -1.3518 -1.2857
 8254TIP3   OH246176   2.720   2.942  11.954 -0.5681 -0.1957  0.3737
 8254TIP3    H146177   2.653   2.996  11.913 -1.2886 -0.1661  1.5760
 8254TIP3    H246178   2.707   2.952  12.048  2.4518  1.5005  0.7514
 8255TIP3   OH246179   5.784   0.689   3.559 -0.2400 -0.2513 -0.2158
 8255TIP3    H146180   5.838   0.613   3.536  0.3447  0.2988 -0.7126
 8255TIP3    H246181   5.791   0.746   3.483  0.4190  0.9014  0.6850
 8256TIP3   OH246182   1.093   5.693  16.858  0.3557 -0.0897  0.2396
 8256TIP3    H146183   1.148   5.650  16.793 -0.6307 -1.0363  0.0047
 8256TIP3    H246184   1.007   5.701  16.816 -0.3296 -0.8011  1.4256
 8257TIP3   OH246185   0.222   2.057   2.706 -0.5667 -0.1502  0.5883
 8257TIP3    H146186   0.157   2.026   2.769 -0.9887 -3.0622 -1.1104
 8257TIP3    H246187   0.276   1.980   2.688 -1.1248  0.1661 -3.3104
 8258TIP3   OH246188   4.163   2.466   0.787  0.3387  0.7428  0.4109
 8258TIP3    H146189   4.104   2.480   0.713  0.8694 -0.4211 -0.2714
 8258TIP3    H246190   4.105   2.455   0.862 -0.3496 -0.4584 -0.2540
 8259TIP3   OH246191   2.825   4.225   1.635 -0.2237  0.0154 -0.1946
 8259TIP3    H146192   2.779   4.308   1.652 -0.6311 -0.2085 -0.1864
 8259TIP3    H246193   2.802   4.204   1.544  0.0871  0.0422 -0.2784
 8260TIP3   OH246194   0.530   5.121  12.467 -0.3205  0.4385  0.1359
 8260TIP3    H146195   0.525   5.031  12.435 -0.2062 -1.1476  3.9714
 8260TIP3    H246196   0.624   5.139  12.474 -0.3369  0.5531  0.0578
 8261TIP3   OH246197   0.538   1.336   1.875 -0.1083 -0.2643 -0.1282
 8261TIP3    H146198   0.611   1.319   1.935 -0.2174  0.4457  0.2112
 8261TIP3    H246199   0.462   1.344   1.932 -0.6226 -1.8632 -0.5393
 8262TIP3   OH246200   3.545   0.686  16.855 -0.1116 -0.3471  0.1744
 8262TIP3    H146201   3.545   0.670  16.761  2.8665  0.8386 -0.1187
 8262TIP3    H246202   3.597   0.765  16.866 -2.9592  1.4300  2.6229
 8263TIP3   OH246203   5.189   0.751  13.927 -0.3111 -0.2639  0.2233
 8263TIP3    H146204   5.122   0.703  13.878  0.9610 -1.9815  0.0757
 8263TIP3    H246205   5.147   0.773  14.010 -1.4048 -0.3205 -0.3012
 8264TIP3   OH246206   3.349   3.396  10.632 -0.4430  0.5480  0.5934
 8264TIP3    H146207   3.305   3.408  10.548  1.5491  1.3820 -0.4021
 8264TIP3    H246208   3.321   3.472  10.684 -2.0144 -0.1909  0.8884
 8265TIP3   OH246209   2.719   5.412  13.790 -0.1484  0.2407 -0.1326
 8265TIP3    H146210   2.794   5.439  13.842 -0.5617  1.1285  0.0305
 8265TIP3    H246211   2.733   5.319  13.773  1.3457  0.5428 -0.7066
 8266TIP3   OH246212   4.025   4.489   2.687  0.4285  0.6941  0.2819
 8266TIP3    H146213   3.936   4.493   2.654  0.4220 -1.7908 -0.2057
 8266TIP3    H246214   4.067   4.569   2.655 -1.9297  2.6651  1.7253
 8267TIP3   OH246215   0.022   1.367  15.728  0.2762  0.1068 -0.0123
 8267TIP3    H146216  -0.019   1.351  15.812 -1.1120  1.3285 -0.4152
 8267TIP3    H246217   0.073   1.288  15.710 -0.3750 -0.6589  1.3952
 8268TIP3   OH246218   2.526   0.634  15.773 -0.5877  0.2255 -0.2661
 8268TIP3    H146219   2.606   0.588  15.748 -1.3331 -0.3131 -1.8092
 8268TIP3    H246220   2.489   0.664  15.690 -1.8988  0.6133  0.4277
 8269TIP3   OH246221   4.098   6.670  16.249 -0.1871  0.0441  0.1543
 8269TIP3    H146222   4.021   6.615  16.261  1.1755 -1.7044  1.4033
 8269TIP3    H246223   4.134   6.643  16.164 -0.6576  0.5271 -0.2076
 8270TIP3   OH246224   3.158   5.676  11.844  0.1024  0.6342  0.3893
 8270TIP3    H146225   3.208   5.674  11.925 -1.0301  0.5414  1.1062
 8270TIP3    H246226   3.141   5.584  11.824  0.2552  0.6622  0.1282
 8271TIP3   OH246227   2.698   3.296   0.402  0.0201  0.0342 -0.4266
 8271TIP3    H146228   2.757   3.302   0.327 -0.4197 -0.9980 -0.8713
 8271TIP3    H246229   2.748   3.249   0.468 -0.1607 -0.5197 -0.6749
 8272TIP3   OH246230   5.464   1.426   4.504 -0.1325 -0.3476  0.0954
 8272TIP3    H146231   5.393   1.368   4.534 -2.1281  2.1757  0.5441
 8272TIP3    H246232   5.450   1.434   4.410  0.0762 -0.4854  0.0515
 8273TIP3   OH246233   4.525   4.455   2.048  1.1504  0.1528 -0.0068
 8273TIP3    H146234   4.450   4.508   2.024 -1.1858 -1.6092  2.7353
 8273TIP3    H246235   4.531   4.463   2.143  2.7465 -1.8466  0.1502
 8274TIP3   OH246236   0.101   0.421   0.526 -0.2868 -0.2457  0.2262
 8274TIP3    H146237   0.088   0.515   0.539  0.6309  0.1300 -1.2839
 8274TIP3    H246238   0.039   0.379   0.586 -0.9164  1.3173  0.7122
 8275TIP3   OH246239   3.041   3.776  16.857  0.6313 -0.3717  0.1127
 8275TIP3    H146240   3.065   3.847  16.917 -1.0149  0.8788 -0.6504
 8275TIP3    H246241   2.955   3.747  16.887  1.7900 -2.9710  1.1754
 8276TIP3   OH246242   5.675   6.365   4.993  0.4618 -0.2401 -0.1659
 8276TIP3    H146243   5.704   6.441   5.044 -1.5130 -0.6367  1.6908
 8276TIP3    H246244   5.667   6.397   4.904  1.3673  1.2380  0.2433
 8277TIP3   OH246245   0.462   3.487   4.622 -0.0916 -0.3218  0.2009
 8277TIP3    H146246   0.400   3.549   4.661  1.1336  1.8706 -1.1331
 8277TIP3    H246247   0.415   3.449   4.548 -0.1914  0.5852 -0.2134
 8278TIP3   OH246248   1.769   2.290  16.691  0.4306 -0.3487  0.5041
 8278TIP3    H146249   1.827   2.361  16.716  0.5660 -0.0395 -0.6102
 8278TIP3    H246250   1.691   2.334  16.657  0.5098 -0.7184 -0.1822
 8279TIP3   OH246251   6.282   4.642   1.004  0.4663 -0.4967 -0.3107
 8279TIP3    H146252   6.334   4.685   0.936  0.3070 -0.2968 -0.3099
 8279TIP3    H246253   6.204   4.697   1.012  0.9780  0.0948  0.8174
 8280TIP3   OH246254   1.916   0.818  13.628 -0.0572  0.0505  0.1954
 8280TIP3    H146255   1.898   0.832  13.721  0.3934 -0.9597  0.4358
 8280TIP3    H246256   1.829   0.808  13.589 -0.1878 -2.5365  1.0014
 8281TIP3   OH246257   2.318   1.765  11.503 -0.2172 -0.0287  0.3831
 8281TIP3    H146258   2.338   1.673  11.486  1.3300  0.4222 -0.5199
 8281TIP3    H246259   2.395   1.797  11.550 -0.7802  0.7791  0.7574
 8282TIP3   OH246260   4.631   5.514   3.924  0.1532 -0.2136  0.4589
 8282TIP3    H146261   4.613   5.571   3.849  2.1082 -0.4132 -0.2193
 8282TIP3    H246262   4.592   5.559   3.999 -1.4169  0.2397 -0.5913
 8283TIP3   OH246263   3.851   1.058  15.846  0.2476 -0.2732 -0.1127
 8283TIP3    H146264   3.809   1.012  15.773 -1.5791 -0.3319  0.9157
 8283TIP3    H246265   3.782   1.066  15.912  1.0870  2.1391  0.5677
 8284TIP3   OH246266   5.977   4.865  14.893  0.4997 -0.0369  0.0999
 8284TIP3    H146267   6.022   4.920  14.829 -0.2063  0.1416 -0.2486
 8284TIP3    H246268   6.001   4.775  14.870 -0.6686 -0.0557 -1.1481
 8285TIP3   OH246269   3.993   0.110  13.995  0.0976  0.1290 -0.4904
 8285TIP3    H146270   3.938   0.126  13.918 -1.2003  0.0673  0.3777
 8285TIP3    H246271   4.046   0.189  14.003  1.1706 -0.3746 -2.1413
 8286TIP3   OH246272   3.789   2.252   1.159  0.4688 -0.0853 -0.5273
 8286TIP3    H146273   3.774   2.263   1.253 -0.0466 -0.8296 -0.5145
 8286TIP3    H246274   3.822   2.162   1.150  1.2393  0.2303 -0.9838
 8287TIP3   OH246275   5.288   0.126   3.537 -0.1891 -0.3300  0.0663
 8287TIP3    H146276   5.222   0.057   3.538 -0.2140 -0.3102  1.1338
 8287TIP3    H246277   5.318   0.129   3.447 -2.3463  0.3306 -0.7114
 8288TIP3   OH246278   0.087   4.186   2.625 -0.1272 -0.6293 -0.2017
 8288TIP3    H146279   0.016   4.157   2.682 -1.8505  2.6381 -0.4467
 8288TIP3    H246280   0.140   4.243   2.682  1.2195 -1.4778 -0.5566
 8289TIP3   OH246281   1.090   0.765   5.671  0.7995  0.0887  0.3676
 8289TIP3    H146282   0.996   0.748   5.671  1.2920 -3.1757  0.6898
 8289TIP3    H246283   1.115   0.762   5.579  0.4822  2.0655  0.1789
 8290TIP3   OH246284   4.099   5.853  11.467 -0.2073  0.1827 -0.6926
 8290TIP3    H146285   4.136   5.864  11.555  0.0326 -0.2477 -0.7380
 8290TIP3    H246286   4.043   5.930  11.455 -0.6792 -0.0361  0.0548
 8291TIP3   OH246287   2.452   2.377   0.715  0.3230 -0.0560  0.1325
 8291TIP3    H146288   2.416   2.377   0.627  3.0327 -2.5310 -1.1572
 8291TIP3    H246289   2.417   2.298   0.756  1.9828 -1.0064 -0.1808
 8292TIP3   OH246290   2.017   0.486  12.995  0.1602 -0.1758 -0.3670
 8292TIP3    H146291   2.001   0.464  13.086 -1.3017 -0.5966 -0.6998
 8292TIP3    H246292   2.096   0.437  12.971 -0.3106 -1.2679  0.2512
 8293TIP3   OH246293   5.520   6.187   1.184  0.3928 -0.9478  0.0970
 8293TIP3    H146294   5.554   6.254   1.243 -1.4598  0.5566 -0.4320
 8293TIP3    H246295   5.491   6.236   1.107  1.9681 -2.7564 -1.7672
 8294TIP3   OH246296   2.322   1.915   0.479  0.4178  0.0952  0.0119
 8294TIP3    H146297   2.389   1.953   0.537 -0.0323  1.0632 -0.0790
 8294TIP3    H246298   2.365   1.911   0.393  0.7300 -0.3473  0.1838
 8295TIP3   OH246299   2.104   6.536   2.870  0.2745  0.3643  0.1879
 8295TIP3    H146300   2.082   6.628   2.880  0.7578  0.7365 -1.7320
 8295TIP3    H246301   2.047   6.505   2.799  1.3237 -0.3464 -0.3804
 8296TIP3   OH246302   0.687   3.960  14.992  0.2236  0.7520  0.0196
 8296TIP3    H146303   0.640   3.955  15.075 -0.4091  2.2150 -0.2111
 8296TIP3    H246304   0.682   3.872  14.956  0.0805  0.2172  1.2982
 8297TIP3   OH246305   5.535   3.882   4.728  0.3499  0.0329 -0.2000
 8297TIP3    H146306   5.504   3.973   4.733 -2.3764 -0.7680 -0.8111
 8297TIP3    H246307   5.504   3.851   4.643  0.9190 -1.5963  0.1520
 8298TIP3   OH246308   5.663   2.907  10.279  0.5418  0.3890  0.1013
 8298TIP3    H146309   5.669   2.826  10.328 -0.2146 -0.4966 -1.2019
 8298TIP3    H246310   5.614   2.884  10.200 -1.1785  2.4758  0.4561
 8299TIP3   OH246311   5.448   5.864   5.162 -0.1719 -0.0753  0.6734
 8299TIP3    H146312   5.377   5.925   5.143 -0.6497 -0.9063 -0.2874
 8299TIP3    H246313   5.416   5.812   5.235 -0.0733  0.3070  0.9935
 8300TIP3   OH246314   0.580   5.243  13.976  0.6111 -0.3167 -0.1400
 8300TIP3    H146315   0.672   5.270  13.985  0.0494  2.9464 -2.5185
 8300TIP3    H246316   0.532   5.305  14.031 -0.2927 -1.5367  0.4972
 8301TIP3   OH246317   0.558   6.364  10.961 -0.6418 -0.4573  0.1079
 8301TIP3    H146318   0.464   6.360  10.980 -0.6331 -0.3734  0.1692
 8301TIP3    H246319   0.566   6.329  10.872 -0.7724 -0.1460 -0.0295
 8302TIP3   OH246320   1.774   1.045   0.212 -0.1388  0.2589  0.2386
 8302TIP3    H146321   1.818   1.128   0.228  2.4727 -0.7606 -0.9867
 8302TIP3    H246322   1.704   1.066   0.150 -0.6878  1.7590  1.3014
 8303TIP3   OH246323   3.620   3.243  14.304 -0.0078  0.2357  0.4055
 8303TIP3    H146324   3.664   3.306  14.361 -0.1214 -1.0375  1.9749
 8303TIP3    H246325   3.690   3.188  14.270 -0.1144 -0.1782  0.8413
 8304TIP3   OH246326   1.710   4.094  11.276  0.5557  0.1420  0.8641
 8304TIP3    H146327   1.658   4.153  11.329  0.1279  0.4521  0.1162
 8304TIP3    H246328   1.753   4.151  11.212 -2.0161 -0.5350 -1.6933
 8305TIP3   OH246329   4.106   3.706   4.713 -0.2786 -0.1067  0.3389
 8305TIP3    H146330   4.034   3.719   4.776 -0.1117 -0.5025  0.6182
 8305TIP3    H246331   4.185   3.709   4.767 -0.1043  0.0078  0.0779
 8306TIP3   OH246332   6.303   4.305  13.145 -0.5417  0.0597  0.1954
 8306TIP3    H146333   6.229   4.335  13.092 -1.3398 -1.5355  0.3200
 8306TIP3    H246334   6.376   4.302  13.084 -0.0610  3.3137  0.4521
 8307TIP3   OH246335   6.667   2.898  14.840 -0.1146 -0.0776 -0.5209
 8307TIP3    H146336   6.586   2.946  14.854  0.5282  1.2205 -1.0875
 8307TIP3    H246337   6.711   2.944  14.768  1.8856  0.3008  0.8424
 8308TIP3   OH246338   5.292   5.789   6.178 -0.4813 -0.3934 -0.2558
 8308TIP3    H146339   5.309   5.876   6.142  2.2610 -1.5942 -2.1658
 8308TIP3    H246340   5.343   5.786   6.259 -2.9064  0.6564  1.4506
 8309TIP3   OH246341   0.214   2.416   4.806 -0.6579 -0.7216  0.2861
 8309TIP3    H146342   0.152   2.480   4.772  0.1702  0.0433  0.1760
 8309TIP3    H246343   0.229   2.356   4.732  0.4030  0.3801 -0.4193
 8310TIP3   OH246344   3.710   6.502  12.556 -0.3935 -0.1392 -0.7600
 8310TIP3    H146345   3.713   6.595  12.577 -0.9065  0.0571 -1.5186
 8310TIP3    H246346   3.629   6.471  12.596 -0.4342 -0.1645 -0.8616
 8311TIP3   OH246347   0.416   5.708  11.877 -0.3290  0.0377 -0.7715
 8311TIP3    H146348   0.421   5.614  11.894  2.2605  0.1276 -0.5684
 8311TIP3    H246349   0.375   5.745  11.955  0.3906 -0.7412 -0.0088
 8312TIP3   OH246350   5.718   5.109  13.604 -0.6247  0.0330 -0.3895
 8312TIP3    H146351   5.674   5.179  13.651  1.3984 -0.2420  2.1139
 8312TIP3    H246352   5.653   5.038  13.600 -0.8605  0.0193  2.2290
 8313TIP3   OH246353   3.219   0.467  15.965 -0.1996  0.2733  0.1218
 8313TIP3    H146354   3.188   0.392  16.016 -1.4259  0.7497  0.1007
 8313TIP3    H246355   3.192   0.543  16.015 -1.8883  0.7700 -1.4469
 8314TIP3   OH246356   4.672   4.453   3.216  0.1602 -0.8354 -0.5373
 8314TIP3    H146357   4.713   4.533   3.182 -0.3703  0.0232  0.8094
 8314TIP3    H246358   4.745   4.402   3.251  0.5937 -1.3078 -2.0104
 8315TIP3   OH246359   4.755   2.732  16.009 -0.0644 -0.1046 -0.4256
 8315TIP3    H146360   4.785   2.823  16.008 -0.5642  0.0787  0.1073
 8315TIP3    H246361   4.796   2.694  16.087 -1.7295  0.3643  0.7624
 8316TIP3   OH246362   2.655   2.639   0.655  0.3495 -0.1729  0.0931
 8316TIP3    H146363   2.696   2.648   0.741  0.5038 -1.1076  0.1325
 8316TIP3    H246364   2.725   2.660   0.593  0.1372  0.8726  0.1870
 8317TIP3   OH246365   4.210   1.608  13.170  0.1279  0.1036 -0.5618
 8317TIP3    H146366   4.197   1.697  13.203 -0.0252 -0.6956  1.7270
 8317TIP3    H246367   4.296   1.582  13.205 -0.6077 -1.2406  0.3123
 8318TIP3   OH246368   5.351   3.513   2.393 -0.3492 -0.0607  0.4769
 8318TIP3    H146369   5.274   3.499   2.449 -0.0489 -1.0605  0.6619
 8318TIP3    H246370   5.387   3.596   2.421  0.6278 -1.1790  2.7878
 8319TIP3   OH246371   3.339   4.106   3.393 -0.8440 -0.5496 -0.1914
 8319TIP3    H146372   3.264   4.120   3.450 -0.5483  1.3082 -0.1993
 8319TIP3    H246373   3.400   4.176   3.416 -0.1368 -0.5817 -1.8467
 8320TIP3   OH246374   2.756   5.500   4.720  0.1339  0.1551  0.3279
 8320TIP3    H146375   2.756   5.589   4.686  1.0834  0.8363  1.9871
 8320TIP3    H246376   2.802   5.506   4.804  3.7432 -2.5118 -1.1955
 8321TIP3   OH246377   0.108   0.535   0.975  0.0698 -0.2783 -0.1142
 8321TIP3    H146378   0.139   0.510   0.888  1.1822  0.1858  0.1292
 8321TIP3    H246379   0.175   0.595   1.008 -1.2190  0.9677  0.3430
 8322TIP3   OH246380   4.936   3.419   2.516 -0.2819  0.2254  0.0050
 8322TIP3    H146381   4.980   3.354   2.571 -0.2344 -0.3691 -0.7329
 8322TIP3    H246382   4.859   3.373   2.482 -0.1494  0.5040 -0.6672
 8323TIP3   OH246383   3.078   6.814  15.919 -0.1822  0.5340  0.1943
 8323TIP3    H146384   3.108   6.843  15.833 -0.9880  1.2839  0.1499
 8323TIP3    H246385   2.984   6.832  15.919 -0.4626 -0.8420  0.6862
 8324TIP3   OH246386   4.199   1.230  10.968  0.1555  0.2700  0.3072
 8324TIP3    H146387   4.231   1.310  10.927  0.8609  0.0234  0.3609
 8324TIP3    H246388   4.106   1.246  10.983 -0.0195  0.5569 -0.9355
 8325TIP3   OH246389   3.412   4.724  14.264  0.5371  0.0607  0.0289
 8325TIP3    H146390   3.450   4.715  14.177 -0.3033  0.2271 -0.3639
 8325TIP3    H246391   3.343   4.658  14.268  1.1358 -0.5366  0.8981
 8326TIP3   OH246392   2.031   2.340   2.151  0.2926  0.0233 -0.3029
 8326TIP3    H146393   2.028   2.324   2.056 -0.3872  1.8451 -0.6265
 8326TIP3    H246394   1.945   2.313   2.183 -0.3081  1.4964 -0.6036
 8327TIP3   OH246395   5.259   4.206  16.577 -0.1040 -0.1405 -0.4820
 8327TIP3    H146396   5.342   4.221  16.621 -0.0594  1.0451 -0.9321
 8327TIP3    H246397   5.227   4.124  16.613  0.5656  0.1257  0.7675
 8328TIP3   OH246398   1.806   3.394   3.198  0.5077  0.1660  0.3218
 8328TIP3    H146399   1.753   3.376   3.120  1.3473  1.1714 -0.5078
 8328TIP3    H246400   1.890   3.424   3.164  0.7619  1.0176  1.6185
 8329TIP3   OH246401   6.803   2.272   0.416  0.3313  0.0040 -0.0245
 8329TIP3    H146402   6.875   2.231   0.466  2.0504  1.7192 -0.9707
 8329TIP3    H246403   6.844   2.346   0.372 -1.6831  0.0268 -2.0108
 8330TIP3   OH246404   2.814   1.017   5.784 -0.8694 -0.2814 -0.1175
 8330TIP3    H146405   2.831   0.948   5.720  0.9133 -0.8413  0.9014
 8330TIP3    H246406   2.862   1.093   5.750  0.1208 -0.5937  0.5431
 8331TIP3   OH246407   1.917   1.129   6.404 -0.0948 -0.3959  0.1174
 8331TIP3    H146408   1.834   1.140   6.452 -0.6046  1.2062 -1.0385
 8331TIP3    H246409   1.892   1.132   6.312  1.1479 -1.0267 -0.2617
 8332TIP3   OH246410   5.591   5.394   0.671  0.2089  0.4870 -0.1516
 8332TIP3    H146411   5.597   5.449   0.749  1.0065  1.4268 -0.8506
 8332TIP3    H246412   5.516   5.429   0.623 -1.5399 -1.3280  1.0712
 8333TIP3   OH246413   5.927   0.864  12.569 -0.0961  0.5828  0.0140
 8333TIP3    H146414   6.014   0.877  12.532  0.4702 -1.5772  0.4302
 8333TIP3    H246415   5.932   0.779  12.613 -2.8109 -0.3375 -1.1866
 8334TIP3   OH246416   2.491   4.607  15.126  0.3465 -0.1923 -0.4443
 8334TIP3    H146417   2.499   4.586  15.219 -2.4792 -0.0714 -0.0622
 8334TIP3    H246418   2.503   4.702  15.123 -0.3165 -0.0806 -0.0311
 8335TIP3   OH246419   3.402   3.267  12.803 -0.1488  0.0539  0.6477
 8335TIP3    H146420   3.352   3.252  12.723  0.6170  2.7726 -0.4558
 8335TIP3    H246421   3.336   3.278  12.871 -0.8851 -0.3983  0.0194
 8336TIP3   OH246422   2.849   0.500  16.613 -0.1709 -0.4029 -0.3851
 8336TIP3    H146423   2.902   0.515  16.692 -0.0646 -0.1522 -0.5037
 8336TIP3    H246424   2.852   0.405  16.600 -0.2772 -0.4592 -0.0250
 8337TIP3   OH246425   5.216   5.436   3.905  0.0798 -0.1777  1.0249
 8337TIP3    H146426   5.184   5.428   3.995  0.7978 -0.1079  1.2975
 8337TIP3    H246427   5.286   5.502   3.911  1.2048 -1.2978  0.7197
 8338TIP3   OH246428   2.556   2.853  12.911 -0.0383 -0.2541  0.5149
 8338TIP3    H146429   2.648   2.875  12.894 -0.1504  0.8525  1.2263
 8338TIP3    H246430   2.560   2.767  12.953  0.6489 -0.3293  0.3191
 8339TIP3   OH246431   2.747   5.994   1.107  0.7764 -0.3156  0.4061
 8339TIP3    H146432   2.684   6.053   1.148 -0.0302  0.3957 -1.6995
 8339TIP3    H246433   2.823   5.995   1.165 -0.3463  0.4796  1.9249
 8340TIP3   OH246434   1.147   4.046   1.334 -0.2177  0.1026 -0.4607
 8340TIP3    H146435   1.240   4.033   1.313  0.3009  0.3726  1.5254
 8340TIP3    H246436   1.117   3.960   1.363 -0.1302  0.4001  0.5283
 8341TIP3   OH246437   3.912   6.295  11.418  0.6629 -0.2749  0.2723
 8341TIP3    H146438   3.956   6.234  11.477 -0.2615 -0.8448  0.3846
 8341TIP3    H246439   3.956   6.281  11.333  1.0591 -0.4501  0.5025
 8342TIP3   OH246440   4.953   5.552  14.808 -0.2742 -0.6269 -0.1541
 8342TIP3    H146441   4.969   5.465  14.845  0.5191  0.9004  3.5216
 8342TIP3    H246442   5.008   5.611  14.860 -1.2658  2.1774 -2.0619
 8343TIP3   OH246443   4.435   4.752   3.435 -0.0002  0.6638 -0.6609
 8343TIP3    H146444   4.456   4.715   3.349  0.4240 -0.6754 -0.0029
 8343TIP3    H246445   4.495   4.825   3.445  1.1728 -0.2579 -0.7761
 8344TIP3   OH246446   2.153   5.901  11.213 -0.6973  0.3121  0.7716
 8344TIP3    H146447   2.218   5.938  11.273  1.0293 -1.3667  0.0414
 8344TIP3    H246448   2.180   5.930  11.126 -0.5501 -0.8809  0.3992
 8345TIP3   OH246449   0.320   3.947   4.793 -0.4584 -0.4375 -0.4644
 8345TIP3    H146450   0.234   3.925   4.757 -1.0509  1.8718 -0.5936
 8345TIP3    H246451   0.379   3.946   4.718 -0.9784  0.8551 -0.9052
 8346TIP3   OH246452   2.151   3.485   1.803  0.5943  0.5638  0.2270
 8346TIP3    H146453   2.058   3.476   1.820  1.0170 -1.5399  1.7032
 8346TIP3    H246454   2.160   3.471   1.708 -0.2949 -2.7156  0.5145
 8347TIP3   OH246455   5.372   5.406   6.905 -0.1008 -0.3289 -0.1541
 8347TIP3    H146456   5.292   5.416   6.853 -0.3574  0.7516  0.4354
 8347TIP3    H246457   5.342   5.400   6.995  0.5411  3.6625  0.5341
 8348TIP3   OH246458   1.914   3.583  10.397  0.0757  0.0998  0.1695
 8348TIP3    H146459   1.929   3.652  10.332 -1.5806 -0.3529 -0.7761
 8348TIP3    H246460   1.882   3.629  10.474  2.6777  0.7094  0.9727
 8349TIP3   OH246461   2.893   4.108  14.952 -0.6406 -0.4025 -0.5580
 8349TIP3    H146462   2.899   4.165  14.876  2.3220 -1.0930 -0.9622
 8349TIP3    H246463   2.817   4.053  14.935 -1.9071  1.5399 -1.4587
 8350TIP3   OH246464   6.649   0.768   1.318 -0.8580  0.0473  0.7601
 8350TIP3    H146465   6.575   0.796   1.264 -2.5251  2.4830  3.9245
 8350TIP3    H246466   6.726   0.793   1.268 -2.2000  0.1287 -1.3974
 8351TIP3   OH246467   3.751   6.183   0.939  0.2633  0.9989 -0.0892
 8351TIP3    H146468   3.709   6.123   0.878  2.3400 -0.6386  0.0034
 8351TIP3    H246469   3.845   6.168   0.928  0.7835  2.5823  1.5961
 8352TIP3   OH246470   1.935   2.208  11.179 -0.3694  0.1091 -0.1545
 8352TIP3    H146471   1.867   2.275  11.192  0.0508  0.3732  0.8097
 8352TIP3    H246472   1.985   2.239  11.103 -0.5934  0.5448 -0.1296
 8353TIP3   OH246473   5.780   1.374   2.516  0.5583 -0.5118  0.2998
 8353TIP3    H146474   5.762   1.467   2.530  3.8508  0.0437  1.5343
 8353TIP3    H246475   5.833   1.371   2.437  0.4040 -1.3862  0.2168
 8354TIP3   OH246476   6.466   6.206  13.492  0.2238 -0.0141 -0.0409
 8354TIP3    H146477   6.480   6.134  13.553 -0.8528 -0.9470 -0.8329
 8354TIP3    H246478   6.372   6.204  13.474  0.3258  1.0071 -0.8022
 8355TIP3   OH246479   2.029   3.888  11.591  0.2473 -0.3777 -0.7027
 8355TIP3    H146480   2.005   3.864  11.680  0.7729 -0.7925 -0.6655
 8355TIP3    H246481   1.962   3.950  11.564  1.1050  1.2392  0.6572
 8356TIP3   OH246482   3.072   2.664  16.258 -0.4749  0.4817  0.0756
 8356TIP3    H146483   3.134   2.596  16.285 -1.8743 -0.3389  1.3695
 8356TIP3    H246484   3.056   2.646  16.165 -0.7341 -0.9105  0.3608
 8357TIP3   OH246485   1.487   4.370  11.519 -0.7074 -0.1386 -0.2046
 8357TIP3    H146486   1.516   4.380  11.428 -0.4782 -0.6939 -0.1942
 8357TIP3    H246487   1.510   4.454  11.560 -1.1053  0.2345 -0.7321
 8358TIP3   OH246488   0.163   1.757  15.867 -0.4918  0.3710  0.6722
 8358TIP3    H146489   0.229   1.688  15.876  1.7845  2.3963  0.3410
 8358TIP3    H246490   0.124   1.763  15.954 -0.4710 -1.0345  0.8118
 8359TIP3   OH246491   3.265   2.945  15.671 -1.1511  0.0990  1.2694
 8359TIP3    H146492   3.303   3.028  15.700  0.6727 -0.3829  0.3586
 8359TIP3    H246493   3.217   2.968  15.591  0.3953  0.0992  0.3120
 8360TIP3   OH246494   6.631   3.085  13.810  0.4313 -0.2327  0.1284
 8360TIP3    H146495   6.579   3.032  13.750  0.9744 -0.8438  0.1822
 8360TIP3    H246496   6.581   3.166  13.821 -1.5780 -1.6015  1.8404
 8361TIP3   OH246497   5.209   5.254  11.148 -0.1943 -0.2461 -0.1225
 8361TIP3    H146498   5.242   5.344  11.148 -0.1183 -0.2725  0.3587
 8361TIP3    H246499   5.163   5.245  11.065  0.9075 -0.1688 -0.7648
 8362TIP3   OH246500   5.259   6.185   0.266  0.0635  0.2139 -0.6253
 8362TIP3    H146501   5.225   6.177   0.176 -0.6716 -0.1466 -0.3260
 8362TIP3    H246502   5.240   6.276   0.290 -0.4150  0.1040 -0.5744
 8363TIP3   OH246503   1.510   2.695   1.979  0.2901 -0.1300  0.4753
 8363TIP3    H146504   1.548   2.634   2.042 -0.9109 -0.5767  0.7909
 8363TIP3    H246505   1.421   2.664   1.967 -0.0840  1.0891  0.0085
 8364TIP3   OH246506   6.741   3.560  13.547  0.0622  0.0051  0.3041
 8364TIP3    H146507   6.684   3.585  13.473  1.6981 -0.0071 -1.0222
 8364TIP3    H246508   6.743   3.638  13.602 -1.0550  0.0826  0.2686
 8365TIP3   OH246509   3.811   5.243   1.255 -0.2933 -0.2923 -0.3160
 8365TIP3    H146510   3.825   5.283   1.341 -1.2192 -0.7051  0.0437
 8365TIP3    H246511   3.875   5.172   1.251 -0.1862 -0.2188  0.0009
 8366TIP3   OH246512   0.185   3.014   2.390  0.0257 -0.3071  0.3337
 8366TIP3    H146513   0.112   3.045   2.337  0.0201  2.8750  1.9379
 8366TIP3    H246514   0.262   3.030   2.336 -0.2480 -0.9788 -0.2664
 8367TIP3   OH246515   6.485   3.479  14.022  0.0506 -0.3518 -0.1541
 8367TIP3    H146516   6.475   3.404  13.963 -0.3223  0.8770 -1.7522
 8367TIP3    H246517   6.406   3.531  14.006  0.2803  0.3512  0.9574
 8368TIP3   OH246518   5.296   6.595   4.043  0.4029 -0.0213 -0.2443
 8368TIP3    H146519   5.290   6.667   4.105 -0.6266  1.2570 -1.7358
 8368TIP3    H246520   5.207   6.558   4.040  0.4676 -0.1481 -0.8284
 8369TIP3   OH246521   6.338   6.386   3.840 -0.6098  0.2515 -0.5755
 8369TIP3    H146522   6.292   6.447   3.783 -0.9452 -0.1618 -0.7540
 8369TIP3    H246523   6.279   6.311   3.848 -1.4943  1.1180  1.9696
 8370TIP3   OH246524   5.685   6.085   0.704  0.1247  0.7479 -0.0840
 8370TIP3    H146525   5.720   6.010   0.753 -1.5940 -0.9914 -1.3266
 8370TIP3    H246526   5.711   6.161   0.755  2.5821 -0.6061  0.8946
 8371TIP3   OH246527   2.959   1.640  12.660  0.3329  0.1445  0.3197
 8371TIP3    H146528   2.889   1.706  12.660  0.8172  0.6865  1.3900
 8371TIP3    H246529   3.008   1.657  12.580  0.2102  0.8231  0.3818
 8372TIP3   OH246530   0.146   5.403  16.787  0.1766 -0.2697  0.0808
 8372TIP3    H146531   0.239   5.426  16.784  0.1831 -0.4667 -1.7531
 8372TIP3    H246532   0.101   5.487  16.781  0.2247 -0.2814 -0.4236
 8373TIP3   OH246533   0.025   3.620  14.711  0.8221 -0.0930 -0.2798
 8373TIP3    H146534  -0.014   3.535  14.731 -1.9577  1.1059 -0.2386
 8373TIP3    H246535   0.038   3.618  14.616  0.4873 -0.4545 -0.3214
 8374TIP3   OH246536   0.734   5.348   2.742 -0.7881 -0.0084 -0.0813
 8374TIP3    H146537   0.693   5.435   2.747  1.7731  1.2407  0.7022
 8374TIP3    H246538   0.792   5.353   2.666 -0.4035 -0.9704  0.1340
 8375TIP3   OH246539   4.522   1.367   0.282 -0.6345 -0.1223 -0.4231
 8375TIP3    H146540   4.555   1.326   0.202  3.3121  2.2093 -0.2149
 8375TIP3    H246541   4.461   1.434   0.251  1.4448  1.2991 -1.6527
 8376TIP3   OH246542   6.794   3.964   0.757  1.1375 -0.1586  0.2770
 8376TIP3    H146543   6.822   4.031   0.819  0.6963  0.3615 -0.0824
 8376TIP3    H246544   6.699   3.962   0.764  1.2028 -1.5860  1.1461
 8377TIP3   OH246545   2.318   3.697   3.058  0.4530  0.2024  0.8726
 8377TIP3    H146546   2.278   3.610   3.064 -1.0502  0.6947 -1.0067
 8377TIP3    H246547   2.402   3.681   3.015 -0.8833 -0.1424 -1.8232
 8378TIP3   OH246548   6.051   4.745   0.749 -0.8728 -0.2353 -0.2254
 8378TIP3    H146549   6.099   4.805   0.693  3.1032 -3.3727 -0.6906
 8378TIP3    H246550   6.051   4.787   0.835  0.3846  1.0673 -0.8209
 8379TIP3   OH246551   1.682   5.383  11.171  0.0801  0.3646 -0.2953
 8379TIP3    H146552   1.705   5.306  11.224 -1.9756  1.3853  2.2990
 8379TIP3    H246553   1.761   5.438  11.174 -0.4585  1.2061  3.4601
 8380TIP3   OH246554   4.275   5.672   2.598  0.3266  0.1621 -0.6458
 8380TIP3    H146555   4.243   5.582   2.593 -0.8542  0.3682  1.6078
 8380TIP3    H246556   4.339   5.671   2.669  1.7303  0.7507 -1.8643
 8381TIP3   OH246557   4.886   4.181   4.701  0.2887  0.4916  0.2484
 8381TIP3    H146558   4.866   4.090   4.678  0.3079  0.8130 -1.1556
 8381TIP3    H246559   4.975   4.194   4.670  0.9498  0.4820  2.0838
 8382TIP3   OH246560   1.782   5.364   3.005 -0.4103  0.3355 -0.0107
 8382TIP3    H146561   1.793   5.457   3.024  0.4842  0.0921  0.7502
 8382TIP3    H246562   1.733   5.330   3.080 -1.4662  0.3312 -0.6796
 8383TIP3   OH246563   0.303   0.778   4.054  0.5569 -0.1773 -0.1882
 8383TIP3    H146564   0.207   0.776   4.064  0.6972  2.0437  3.3325
 8383TIP3    H246565   0.317   0.775   3.960 -2.9605 -0.7227 -0.8398
 8384TIP3   OH246566   5.357   2.301   0.086 -0.0664 -0.0625 -0.0708
 8384TIP3    H146567   5.346   2.363   0.158 -2.5888  1.1114 -1.3435
 8384TIP3    H246568   5.415   2.346   0.024  1.5022 -0.7670  0.8444
 8385TIP3   OH246569   5.359   1.437   5.167  0.2938  0.0059 -0.2915
 8385TIP3    H146570   5.415   1.510   5.139  0.2794  0.9236  1.8591
 8385TIP3    H246571   5.417   1.361   5.167  1.9426  1.0780  2.6509
 8386TIP3   OH246572   4.994   2.097  16.256  0.3698 -0.1282 -0.8981
 8386TIP3    H146573   4.998   2.184  16.296 -0.7484  0.5186 -2.1283
 8386TIP3    H246574   5.068   2.050  16.294 -0.0993  0.7415  1.1956
 8387TIP3   OH246575   4.757   1.272  15.654  0.0142  0.1479 -0.4050
 8387TIP3    H146576   4.758   1.194  15.599 -1.5348 -1.3953  1.5876
 8387TIP3    H246577   4.667   1.304  15.650 -0.1458 -0.0252  1.2203
 8388TIP3   OH246578   5.861   2.808  10.098 -0.3500  0.1879 -0.5745
 8388TIP3    H146579   5.812   2.870  10.152  0.7405  0.8634 -0.3314
 8388TIP3    H246580   5.822   2.723  10.117 -1.7686  0.7677 -0.7880
 8389TIP3   OH246581   2.801   2.423   1.507 -0.3581  1.0559 -0.1002
 8389TIP3    H146582   2.727   2.431   1.567  1.3119  0.7759  2.0933
 8389TIP3    H246583   2.830   2.513   1.492  0.6176  1.0334  1.4189
 8390TIP3   OH246584   0.223   3.536   3.415 -0.3979  0.1449 -0.1426
 8390TIP3    H146585   0.216   3.478   3.491 -0.2779  0.6404  0.2500
 8390TIP3    H246586   0.309   3.515   3.377 -0.3186  0.1230  0.0480
 8391TIP3   OH246587   3.452   2.959  15.063 -0.5403  0.4821 -0.1462
 8391TIP3    H146588   3.388   2.895  15.032  0.7677 -0.1487 -1.6472
 8391TIP3    H246589   3.524   2.955  15.000  1.5462  0.3069  2.1027
 8392TIP3   OH246590   2.184   3.008  13.369  0.2071  0.4959  0.2329
 8392TIP3    H146591   2.219   3.067  13.436  0.6602  0.4973 -0.0028
 8392TIP3    H246592   2.094   2.989  13.398  0.9483 -0.8802  1.7800
 8393TIP3   OH246593   1.950   1.562  12.544  0.0854  0.0014 -0.5596
 8393TIP3    H146594   1.906   1.622  12.605  0.5170 -0.1154 -0.1342
 8393TIP3    H246595   1.941   1.476  12.584  1.3129  0.0718 -0.1207
 8394TIP3   OH246596   2.132   3.207  15.154  0.5373  0.6855 -0.3288
 8394TIP3    H146597   2.182   3.279  15.190 -0.8213  1.6221 -0.2239
 8394TIP3    H246598   2.110   3.152  15.230 -0.3811  1.4294 -0.0322
 8395TIP3   OH246599   6.524   5.554  16.087 -0.2380  0.5170 -0.0494
 8395TIP3    H146600   6.525   5.613  16.012 -0.2113 -0.4904 -0.8529
 8395TIP3    H246601   6.521   5.466  16.049  0.8410 -0.0436  1.1066
 8396TIP3   OH246602   3.147   5.739  11.032 -0.0666 -0.4435  0.1296
 8396TIP3    H146603   3.136   5.800  11.105  1.4459 -0.0004  0.0308
 8396TIP3    H246604   3.137   5.793  10.954 -0.3504 -0.6508  0.0221
 8397TIP3   OH246605   5.562   6.538   5.830 -0.4949 -0.4610 -0.8552
 8397TIP3    H146606   5.578   6.581   5.914 -1.4089 -2.5015  0.4333
 8397TIP3    H246607   5.615   6.588   5.768 -0.8943  2.0059  0.6351
 8398TIP3   OH246608   1.901   2.819  11.964 -0.0045  0.4381 -0.1920
 8398TIP3    H146609   1.820   2.768  11.960  0.3916 -0.1727 -0.8966
 8398TIP3    H246610   1.952   2.778  12.034  0.0014  0.3380 -0.2539
 8399TIP3   OH246611   1.385   4.201   5.774  0.1152 -0.0162  0.0240
 8399TIP3    H146612   1.369   4.247   5.691  2.0696 -1.1535 -1.0554
 8399TIP3    H246613   1.465   4.241   5.808 -0.5702  0.3154  1.3188
 8400TIP3   OH246614   4.706   4.746  13.557  0.0542 -0.0454  0.0121
 8400TIP3    H146615   4.660   4.827  13.578 -0.1295 -0.3471  0.7973
 8400TIP3    H246616   4.764   4.731  13.632  1.7289  0.5201 -1.1006
 8401TIP3   OH246617   2.718   6.774  14.115 -0.1759 -0.4609  0.2498
 8401TIP3    H146618   2.790   6.769  14.052 -0.1984 -1.9932  0.2932
 8401TIP3    H246619   2.735   6.854  14.165  1.3887 -0.6784  0.1146
 8402TIP3   OH246620   4.784   1.504  10.901  0.7705  0.0990 -0.0052
 8402TIP3    H146621   4.751   1.449  10.829  1.0045 -0.4100  0.2743
 8402TIP3    H246622   4.779   1.593  10.866 -1.4376  0.1243  0.1947
 8403TIP3   OH246623   2.963   4.810   6.605  0.0435 -0.7283 -0.1376
 8403TIP3    H146624   3.026   4.830   6.537  0.1080  1.8477  0.5908
 8403TIP3    H246625   2.878   4.809   6.559  0.2302 -0.5717 -0.4894
 8404TIP3   OH246626   4.654   0.638   1.413 -0.0761  0.1768  0.2755
 8404TIP3    H146627   4.675   0.622   1.505  0.4474 -0.2856  0.0834
 8404TIP3    H246628   4.561   0.656   1.413 -0.2465 -0.6159  0.8068
 8405TIP3   OH246629   5.583   6.528  11.813 -0.5071  0.1308  0.1912
 8405TIP3    H146630   5.547   6.604  11.766 -1.2310 -0.8892 -0.9649
 8405TIP3    H246631   5.678   6.540  11.808 -0.6114  1.1349  0.3348
 8406TIP3   OH246632   4.983   0.066   1.675 -0.2150  0.2239 -0.4838
 8406TIP3    H146633   4.913   0.108   1.724 -1.0890 -0.5101 -1.0789
 8406TIP3    H246634   4.942  -0.010   1.634  1.2181 -1.0203  0.2565
 8407TIP3   OH246635   0.361   2.835  12.753  0.5440 -0.0778  0.2382
 8407TIP3    H146636   0.445   2.882  12.752  0.1625  0.7069  1.7235
 8407TIP3    H246637   0.379   2.756  12.805  0.9315 -1.1281 -1.4270
 8408TIP3   OH246638   0.415   3.425   3.839 -0.1816  0.5152 -0.1318
 8408TIP3    H146639   0.487   3.446   3.781  0.3923 -2.2292 -0.5504
 8408TIP3    H246640   0.450   3.359   3.899 -1.4894  1.3740  1.6837
 8409TIP3   OH246641   1.167   4.372   0.553  0.3097  0.1821  0.5046
 8409TIP3    H146642   1.196   4.378   0.462  0.6945  0.6561  0.6531
 8409TIP3    H246643   1.073   4.356   0.547  0.7520 -2.7388 -0.0075
 8410TIP3   OH246644   2.823   2.422   1.220 -0.8205  0.1523  0.3279
 8410TIP3    H146645   2.854   2.508   1.189 -1.2869  0.0630 -0.4133
 8410TIP3    H246646   2.812   2.433   1.314 -1.5356  1.1294  0.1466
 8411TIP3   OH246647   4.451   3.119  11.649  0.4856  0.9580 -0.0419
 8411TIP3    H146648   4.477   3.089  11.736 -0.7171 -0.1780 -0.0491
 8411TIP3    H246649   4.391   3.192  11.666 -0.9213 -0.2076  0.1559
 8412TIP3   OH246650   4.921   5.357   4.541  0.2630  0.1593  0.5292
 8412TIP3    H146651   5.011   5.347   4.571 -0.5681 -0.5496  3.0715
 8412TIP3    H246652   4.892   5.268   4.522 -0.7888 -0.0860  2.8569
 8413TIP3   OH246653   4.398   6.655   1.424 -0.2395 -0.3066  0.0018
 8413TIP3    H146654   4.483   6.612   1.411 -0.5566 -1.0989  0.4922
 8413TIP3    H246655   4.381   6.699   1.340  1.5886  1.5964  0.5344
 8414TIP3   OH246656   3.340   6.556  11.733 -0.5848 -0.4420 -0.4334
 8414TIP3    H146657   3.415   6.512  11.693 -0.4628 -0.4588 -0.1853
 8414TIP3    H246658   3.328   6.511  11.817  0.0106  0.5026  0.1639
 8415TIP3   OH246659   4.830   3.197   3.843  0.7484 -0.2919  0.3206
 8415TIP3    H146660   4.859   3.128   3.784  1.0909  1.2549 -1.4056
 8415TIP3    H246661   4.734   3.198   3.834  0.6509 -1.1129  1.0734
 8416TIP3   OH246662   4.830   1.426   1.918 -0.2110  0.4712 -0.0464
 8416TIP3    H146663   4.918   1.419   1.956 -0.6856  0.2655  1.0682
 8416TIP3    H246664   4.841   1.484   1.843  1.0163 -0.1614 -0.3954
 8417TIP3   OH246665   6.778   3.616   2.502 -0.1074 -0.4584  0.5131
 8417TIP3    H146666   6.744   3.565   2.429 -1.1423  1.5744 -0.5076
 8417TIP3    H246667   6.856   3.658   2.468  0.0931 -0.4547  0.9686
 8418TIP3   OH246668   0.269   3.880  11.341  0.0667 -0.1545 -0.3509
 8418TIP3    H146669   0.228   3.887  11.428 -1.8488 -1.7994 -1.0400
 8418TIP3    H246670   0.200   3.844  11.285  0.7784  2.1556 -2.9358
 8419TIP3   OH246671   4.499   5.984   2.072  0.9610 -0.4867  0.1222
 8419TIP3    H146672   4.524   6.033   2.150  1.3446  0.0578 -0.3316
 8419TIP3    H246673   4.504   6.048   2.001 -1.6092 -0.3703 -0.0465
 8420TIP3   OH246674   5.544   2.084   6.537 -0.4264 -0.5131  0.7430
 8420TIP3    H146675   5.512   2.013   6.481 -2.3625  0.5016  0.5121
 8420TIP3    H246676   5.468   2.112   6.587 -0.2206  2.6148 -0.5023
 8421TIP3   OH246677   0.433   1.908  13.192 -0.6954  0.0318  0.1437
 8421TIP3    H146678   0.526   1.917  13.172  0.1064 -4.0805  1.1718
 8421TIP3    H246679   0.389   1.930  13.110  1.4558 -1.4055 -1.5109
 8422TIP3   OH246680   4.013   1.132   6.590  0.4033 -0.0600  0.2227
 8422TIP3    H146681   4.034   1.076   6.516 -0.4414 -0.7609  0.4889
 8422TIP3    H246682   3.966   1.206   6.552  0.0576 -0.3684  0.0476
 8423TIP3   OH246683   6.509   2.784  16.302  0.0019 -0.2474  0.6033
 8423TIP3    H146684   6.429   2.758  16.347 -0.5019  0.2720  0.0316
 8423TIP3    H246685   6.571   2.806  16.372 -0.2286 -1.0063  1.0525
 8424TIP3   OH246686   6.079   5.873  13.438 -0.2446 -0.1936 -0.0882
 8424TIP3    H146687   6.119   5.798  13.395  1.3470  1.0087 -0.8083
 8424TIP3    H246688   6.118   5.875  13.525 -2.2797 -1.6933  0.9458
 8425TIP3   OH246689   0.700   3.981   2.078  0.3553 -0.3679  0.0773
 8425TIP3    H146690   0.743   4.047   2.132 -0.3534 -0.8992  1.3186
 8425TIP3    H246691   0.609   4.009   2.074 -0.1506 -1.7347  1.3763
 8426TIP3   OH246692   6.558   2.491   4.896  0.0332 -0.4700 -0.0218
 8426TIP3    H146693   6.596   2.409   4.928  2.2358  0.5725  0.2169
 8426TIP3    H246694   6.631   2.537   4.854 -1.5894  0.5162 -1.9594
 8427TIP3   OH246695   1.109   6.460  10.573  0.9146  0.6892 -0.0784
 8427TIP3    H146696   1.080   6.509  10.496  0.4009 -0.0305 -0.3553
 8427TIP3    H246697   1.087   6.516  10.647  1.1032  1.2394 -0.4298
 8428TIP3   OH246698   5.424   0.224   3.141 -0.2590  0.2200  0.1115
 8428TIP3    H146699   5.426   0.180   3.056  0.1237 -0.9055  0.6840
 8428TIP3    H246700   5.344   0.191   3.183 -0.3761  0.6634  0.2356
 8429TIP3   OH246701   4.267   1.960  10.855 -0.2104  0.8747 -0.2753
 8429TIP3    H146702   4.348   1.920  10.823 -1.2847 -2.1372  0.4898
 8429TIP3    H246703   4.200   1.935  10.791 -0.9057  1.7474  0.0768
 8430TIP3   OH246704   1.118   3.741  16.038 -0.1630  0.2071  0.3585
 8430TIP3    H146705   1.131   3.788  15.956 -1.6386 -0.8872 -0.5556
 8430TIP3    H246706   1.173   3.787  16.101  0.1910  1.7282 -0.9925
 8431TIP3   OH246707   1.531   4.859  16.775 -0.2387  0.7982  0.7217
 8431TIP3    H146708   1.438   4.839  16.790 -0.5845  1.4810 -0.3532
 8431TIP3    H246709   1.540   4.858  16.680  1.1752 -0.5571  0.8281
 8432TIP3   OH246710   3.701   2.517   6.027 -0.4588 -0.7815  0.5488
 8432TIP3    H146711   3.626   2.572   6.049  0.7889  0.6837  1.3914
 8432TIP3    H246712   3.698   2.445   6.090 -0.2584  0.1675  1.6742
 8433TIP3   OH246713   1.278   5.954  16.921  0.1220 -0.3316  0.2920
 8433TIP3    H146714   1.268   5.922  16.831  0.9736 -0.3035  0.1809
 8433TIP3    H246715   1.192   5.991  16.943  0.8108  2.9517 -1.8120
 8434TIP3   OH246716   5.453   2.431   0.599  0.5806 -0.0085 -0.0512
 8434TIP3    H146717   5.438   2.340   0.570 -0.1808  0.1414 -0.1437
 8434TIP3    H246718   5.419   2.433   0.688 -2.9792  1.1056 -1.2613
 8435TIP3   OH246719   4.683   3.081  15.305 -0.3726 -0.1529 -0.2568
 8435TIP3    H146720   4.597   3.041  15.288 -0.6633 -0.4740  1.6606
 8435TIP3    H246721   4.737   3.007  15.335  0.2030  0.2550 -0.2868
 8436TIP3   OH246722   1.194   4.749   6.705 -0.4505 -0.1799  0.0604
 8436TIP3    H146723   1.148   4.793   6.776  2.4056  0.4658  1.6922
 8436TIP3    H246724   1.193   4.656   6.729 -3.2199 -0.6461 -1.4359
 8437TIP3   OH246725   4.959   3.157  11.832  0.1086  0.4788  0.7643
 8437TIP3    H146726   4.987   3.195  11.916 -1.2559 -0.6311  1.7489
 8437TIP3    H246727   4.935   3.233  11.779  3.3966  1.4270  0.3564
 8438TIP3   OH246728   2.479   6.283  11.121  0.5457  0.3015 -0.0200
 8438TIP3    H146729   2.432   6.225  11.060 -1.3839  0.0385  1.6150
 8438TIP3    H246730   2.515   6.352  11.065 -1.4062  0.2404 -1.4751
 8439TIP3   OH246731   5.413   6.138   6.355  0.3469 -1.2009 -0.0551
 8439TIP3    H146732   5.398   6.044   6.347 -1.4964 -0.9602  0.1928
 8439TIP3    H246733   5.349   6.167   6.420  0.2406  0.3709 -0.8294
 8440TIP3   OH246734   1.101   0.114  16.176 -0.4670 -0.2217  0.0949
 8440TIP3    H146735   1.122   0.060  16.100 -1.2819  0.9375 -0.9983
 8440TIP3    H246736   1.186   0.137  16.213 -0.1012 -2.6243  0.9038
 8441TIP3   OH246737   4.707   6.127   3.321 -0.3530 -0.3295  0.0188
 8441TIP3    H146738   4.659   6.209   3.333  0.3357  0.4901 -2.2982
 8441TIP3    H246739   4.797   6.155   3.304 -0.0075 -1.5827 -0.2978
 8442TIP3   OH246740   2.928   4.964  13.248  0.2299 -0.6632 -0.2557
 8442TIP3    H146741   2.925   4.890  13.309  0.3960  0.7050  1.4670
 8442TIP3    H246742   2.838   4.997  13.247  0.7912  1.1271  1.6281
 8443TIP3   OH246743   0.717   1.638  14.523  0.3377  0.0938  0.6043
 8443TIP3    H146744   0.751   1.723  14.496  2.0365 -0.8746 -0.4899
 8443TIP3    H246745   0.772   1.613  14.597  0.3663 -0.3745  0.4295
 8444TIP3   OH246746   1.423   6.585   0.986 -0.4883  0.1360 -0.5873
 8444TIP3    H146747   1.515   6.605   0.965  0.2094 -3.0559 -1.0103
 8444TIP3    H246748   1.419   6.590   1.082  0.0169  0.6241 -0.5829
 8445TIP3   OH246749   5.223   2.755  16.041  0.1499 -0.5785 -0.1746
 8445TIP3    H146750   5.230   2.829  15.981 -0.7259 -0.4932 -0.1753
 8445TIP3    H246751   5.298   2.700  16.019  1.2098  0.6235  0.2825
 8446TIP3   OH246752   5.106   1.463  15.914 -0.2910  0.0256  0.0795
 8446TIP3    H146753   5.122   1.394  15.849  1.7530 -0.0285  0.5656
 8446TIP3    H246754   5.186   1.465  15.966 -1.0934  1.4529  1.3237
 8447TIP3   OH246755   6.388   6.033  14.701  0.1729 -0.4457  0.1000
 8447TIP3    H146756   6.444   6.092  14.650  0.6243  0.5705  1.7048
 8447TIP3    H246757   6.325   6.091  14.743  0.5163 -1.1156  1.5879
 8448TIP3   OH246758   3.687   5.007   1.150  0.1877  0.2511  0.1415
 8448TIP3    H146759   3.685   4.927   1.202  0.2455  0.3379  0.2786
 8448TIP3    H246760   3.675   5.078   1.214 -0.0511  0.3414 -0.0028
 8449TIP3   OH246761   0.377   5.096  16.658  0.7418  0.6722 -0.1516
 8449TIP3    H146762   0.313   5.101  16.587  1.1116  0.7208 -0.4897
 8449TIP3    H246763   0.421   5.012  16.646  1.8129  1.3087 -0.8835
 8450TIP3   OH246764   3.979   4.769   3.251 -0.7599  0.4033 -0.3221
 8450TIP3    H146765   4.034   4.717   3.193 -2.3066  0.5739 -2.0604
 8450TIP3    H246766   4.013   4.751   3.339  1.1115 -0.5766 -1.1785
 8451TIP3   OH246767   4.337   1.760   5.643  0.2002  0.1253 -0.1509
 8451TIP3    H146768   4.386   1.741   5.723 -0.3462 -1.5495 -0.1718
 8451TIP3    H246769   4.349   1.854   5.629  1.9349  0.0816  0.7968
 8452TIP3   OH246770   6.039   5.415   2.627  0.6720  0.1891  0.3196
 8452TIP3    H146771   6.040   5.357   2.551  0.6192  0.1901  0.3185
 8452TIP3    H246772   5.967   5.384   2.681  1.6240 -0.7451  1.0981
 8453TIP3   OH246773   2.026   2.240   5.049  0.4936 -0.5781  0.1866
 8453TIP3    H146774   2.045   2.157   5.006  0.2128  0.0229 -1.1373
 8453TIP3    H246775   2.112   2.282   5.059  0.2889  1.1707 -3.8003
 8454TIP3   OH246776   3.369   3.080  14.633 -0.0369  0.5054  0.0200
 8454TIP3    H146777   3.432   3.148  14.658  0.2384  0.4315 -0.4649
 8454TIP3    H246778   3.411   3.033  14.561  0.2275 -0.8674  1.0463
 8455TIP3   OH246779   1.135   0.443  10.121  0.0067  0.6690 -0.0357
 8455TIP3    H146780   1.217   0.443  10.073  0.5217  0.3663  0.8212
 8455TIP3    H246781   1.137   0.523  10.173  0.1360  0.2770  0.5846
 8456TIP3   OH246782   6.249   3.715   5.081  0.1067 -0.1797 -0.1544
 8456TIP3    H146783   6.340   3.716   5.052  0.6200 -3.0292  1.0432
 8456TIP3    H246784   6.204   3.660   5.018 -0.3378 -0.4032  0.3462
 8457TIP3   OH246785   0.923   1.394  10.692  0.1366  0.3081 -0.0673
 8457TIP3    H146786   0.870   1.419  10.616  2.0097  3.7990 -0.4384
 8457TIP3    H246787   0.861   1.388  10.764 -1.2865 -0.2111 -1.2786
 8458TIP3   OH246788   2.343   2.876   5.880  0.3631  0.0941  0.0105
 8458TIP3    H146789   2.406   2.819   5.924  1.1456  2.1300  1.7280
 8458TIP3    H246790   2.261   2.864   5.928  1.1574  2.1338  2.0620
 8459TIP3   OH246791   1.791   3.704  12.397  0.0395 -0.1674  0.2887
 8459TIP3    H146792   1.789   3.783  12.451  2.2847  0.2183 -0.0984
 8459TIP3    H246793   1.721   3.716  12.333  1.6503  2.5376 -1.1040
 8460TIP3   OH246794   3.818   6.123   3.772 -0.4477  0.5310 -0.4348
 8460TIP3    H146795   3.870   6.087   3.700 -2.7909 -0.9684 -1.4744
 8460TIP3    H246796   3.848   6.075   3.849 -0.3833 -0.4292 -1.0443
 8461TIP3   OH246797   1.624   2.048   3.494 -0.4523 -0.1784 -0.1557
 8461TIP3    H146798   1.627   1.976   3.557 -0.1105  0.0903  0.1358
 8461TIP3    H246799   1.716   2.070   3.478 -0.5640  0.5878  0.2109
 8462TIP3   OH246800   3.073   6.001  16.054  0.1143  0.2103  0.4353
 8462TIP3    H146801   3.027   6.065  16.000  2.5528  2.3262  0.6710
 8462TIP3    H246802   3.088   6.046  16.137 -0.4760 -1.7158  1.6698
 8463TIP3   OH246803   5.068   0.403   2.466  0.5904 -0.4456  0.4523
 8463TIP3    H146804   5.057   0.495   2.443  1.6853 -0.9168 -2.3631
 8463TIP3    H246805   5.136   0.404   2.534  1.9025  0.7794 -0.7925
 8464TIP3   OH246806   0.298   3.488  15.947  0.2228  0.3614 -0.2242
 8464TIP3    H146807   0.373   3.494  16.007 -0.0915  3.7568  0.0084
 8464TIP3    H246808   0.312   3.405  15.900  2.9077 -0.2052  1.3463
 8465TIP3   OH246809   0.841   2.724   6.725 -0.7086  0.5020  0.2077
 8465TIP3    H146810   0.883   2.692   6.646 -1.5783  1.6063 -0.7459
 8465TIP3    H246811   0.804   2.646   6.767  0.9773 -0.2762  0.2928
 8466TIP3   OH246812   4.600   5.858   2.852  0.0893  0.1243  0.3950
 8466TIP3    H146813   4.610   5.763   2.866  0.9192  0.1507  0.0161
 8466TIP3    H246814   4.633   5.897   2.933  0.1520  0.1075  0.3773
 8467TIP3   OH246815   4.295   0.641  12.883  0.0833  0.2288 -0.2402
 8467TIP3    H146816   4.361   0.636  12.813 -0.3359 -1.4903 -0.5627
 8467TIP3    H246817   4.211   0.633  12.838 -0.4983  3.4320  0.0542
 8468TIP3   OH246818   2.128   6.731  13.856 -0.0888  0.8025 -0.1984
 8468TIP3    H146819   2.213   6.687  13.862 -0.6883 -0.2696  0.9162
 8468TIP3    H246820   2.119   6.755  13.764  0.7950 -0.3550 -0.6057
 8469TIP3   OH246821   2.197   0.012   3.660  0.4324  0.0231  0.0785
 8469TIP3    H146822   2.261  -0.001   3.730  0.0652  0.4440  0.4953
 8469TIP3    H246823   2.119   0.045   3.704 -0.1391 -0.6556 -0.4011
 8470TIP3   OH246824   2.756   6.684   2.921  0.4275 -0.3691 -0.5594
 8470TIP3    H146825   2.712   6.762   2.953  1.0574  0.4092 -1.5475
 8470TIP3    H246826   2.849   6.706   2.920  0.5159 -0.6708 -2.0081
 8471TIP3   OH246827   0.856   6.533  17.038  0.1124 -0.1855 -0.1977
 8471TIP3    H146828   0.876   6.453  17.087 -0.9364 -0.6467 -0.5051
 8471TIP3    H246829   0.853   6.602  17.106 -0.2561 -0.6317  0.2483
 8472TIP3   OH246830   1.690   4.422  13.170 -0.1530 -0.9843 -0.1524
 8472TIP3    H146831   1.759   4.385  13.115 -0.6552 -0.6513 -1.0251
 8472TIP3    H246832   1.681   4.512  13.139 -0.5037 -0.8152  0.4299
 8473TIP3   OH246833   0.052   1.825  14.947 -0.1988 -0.1952 -0.0486
 8473TIP3    H146834   0.033   1.742  14.991  0.6960 -0.5273 -0.2783
 8473TIP3    H246835   0.067   1.801  14.856  0.5976  0.1510 -0.0133
 8474TIP3   OH246836   5.880   3.487  16.045 -0.0722 -0.0476  0.0945
 8474TIP3    H146837   5.880   3.392  16.056 -0.4618 -0.1002 -0.3172
 8474TIP3    H246838   5.808   3.518  16.101 -0.4685 -0.0755 -0.3971
 8475TIP3   OH246839   3.385   2.338  14.209  0.0609 -0.4836  0.7413
 8475TIP3    H146840   3.306   2.314  14.162  0.4397 -0.0710 -0.1166
 8475TIP3    H246841   3.456   2.293  14.163  0.8907  2.6080 -1.3048
 8476TIP3   OH246842   5.356   5.333  12.876  0.0614 -0.1820 -0.2341
 8476TIP3    H146843   5.276   5.281  12.873  0.0688 -0.1959 -0.1944
 8476TIP3    H246844   5.328   5.422  12.855  0.5364 -0.7450 -3.7560
 8477TIP3   OH246845   4.385   0.820  14.434 -0.4624 -0.9078  0.4306
 8477TIP3    H146846   4.335   0.739  14.420 -0.5027 -0.6866 -0.7968
 8477TIP3    H246847   4.451   0.819  14.364 -1.8647  1.1772 -1.0302
 8478TIP3   OH246848   1.710   0.447  10.262  0.1911 -0.2469 -0.1117
 8478TIP3    H146849   1.803   0.468  10.262  0.3747 -0.7189  2.5477
 8478TIP3    H246850   1.705   0.360  10.222  0.9813 -0.5036  0.3271
 8479TIP3   OH246851   5.577   3.148   2.440 -0.7512  0.0587 -0.1690
 8479TIP3    H146852   5.528   3.147   2.358  0.4352  0.3287 -0.9076
 8479TIP3    H246853   5.611   3.237   2.447  0.3762 -0.3523 -0.1516
 8480TIP3   OH246854   6.236   5.890  16.140  0.0964  0.0533  0.0373
 8480TIP3    H146855   6.319   5.875  16.095  0.1574  0.4631  0.0154
 8480TIP3    H246856   6.252   5.864  16.231  0.5489  1.1155  0.2672
 8481TIP3   OH246857   0.774   3.116  14.579 -0.3662 -0.3309  0.1858
 8481TIP3    H146858   0.794   3.137  14.670 -0.5798 -0.0471  0.1686
 8481TIP3    H246859   0.711   3.044  14.585 -0.4557 -0.2472  0.2658
 8482TIP3   OH246860   2.374   3.948   0.443 -0.0935 -0.2071  0.2862
 8482TIP3    H146861   2.336   4.024   0.488 -0.9053  1.4115 -2.8366
 8482TIP3    H246862   2.427   3.905   0.510 -0.2092  2.6761  2.4365
 8483TIP3   OH246863   3.017   1.142   4.083 -0.6730 -0.3438 -0.2304
 8483TIP3    H146864   3.024   1.138   3.988 -2.6586 -2.9714 -0.3892
 8483TIP3    H246865   2.975   1.059   4.108 -1.9994  1.0492  2.7414
 8484TIP3   OH246866   1.045   0.680   2.522 -0.0354 -0.4154  0.4061
 8484TIP3    H146867   1.044   0.751   2.587  0.7521 -0.0624  0.0526
 8484TIP3    H246868   1.135   0.680   2.489 -0.2974 -0.9163 -0.3245
 8485TIP3   OH246869   3.780   1.536   3.209 -0.0961 -0.2000  0.0699
 8485TIP3    H146870   3.744   1.595   3.276  0.7887  1.0951 -0.5510
 8485TIP3    H246871   3.703   1.506   3.160 -0.4601  1.6270 -0.5386
 8486TIP3   OH246872   6.112   3.391   5.361  0.2206  0.4046 -0.5995
 8486TIP3    H146873   6.206   3.371   5.364 -0.0940 -1.2723 -0.4869
 8486TIP3    H246874   6.075   3.323   5.304 -0.8728  1.2908 -0.9806
 8487TIP3   OH246875   4.177   4.745  11.939  0.3604 -0.3787  0.0688
 8487TIP3    H146876   4.105   4.683  11.928  0.1469 -0.3209  1.0796
 8487TIP3    H246877   4.175   4.798  11.859  0.6264 -1.7371 -0.8755
 8488TIP3   OH246878   1.141   3.901   5.206  0.1932 -0.4663  0.4738
 8488TIP3    H146879   1.070   3.836   5.199 -0.2733  0.2139 -3.4553
 8488TIP3    H246880   1.096   3.983   5.227  0.1275 -0.5113  0.5106
 8489TIP3   OH246881   6.356   4.960   3.776 -0.1325 -0.1047 -0.1380
 8489TIP3    H146882   6.273   4.923   3.745  0.2582 -1.5972  0.5086
 8489TIP3    H246883   6.330   5.030   3.835 -0.9253 -0.3342 -0.2014
 8490TIP3   OH246884   1.817   2.103  10.756 -0.2537  0.4725  0.3613
 8490TIP3    H146885   1.790   2.069  10.670 -0.6491 -1.3531  1.1783
 8490TIP3    H246886   1.909   2.128  10.744  1.1823 -3.9759  0.4947
 8491TIP3   OH246887   6.245   0.891   6.075 -0.6246 -0.1484 -0.0034
 8491TIP3    H146888   6.251   0.812   6.129  1.4896 -0.1517 -0.1719
 8491TIP3    H246889   6.335   0.910   6.050 -1.3815  0.7676 -2.2550
 8492TIP3   OH246890   4.012   2.304   4.760  0.2275  0.5535 -0.4179
 8492TIP3    H146891   4.040   2.394   4.772 -0.4326  0.9388 -1.6112
 8492TIP3    H246892   4.073   2.253   4.814 -0.1424  1.7750  1.2406
 8493TIP3   OH246893   6.484   2.977   1.411 -0.3026 -0.3209  0.3545
 8493TIP3    H146894   6.513   2.889   1.435  0.9216  0.1962  0.8539
 8493TIP3    H246895   6.402   2.989   1.459 -0.5835 -1.2586  0.1197
 8494TIP3   OH246896   6.262   1.430  15.355  0.0106 -0.7661 -0.4136
 8494TIP3    H146897   6.299   1.518  15.351 -1.4193 -0.0182  1.5451
 8494TIP3    H246898   6.235   1.411  15.265  5.4306 -1.6398 -2.2040
 8495TIP3   OH246899   4.046   5.362   4.805 -0.1541 -1.2100  0.1212
 8495TIP3    H146900   4.100   5.291   4.770 -0.5841 -1.6968  0.4316
 8495TIP3    H246901   3.979   5.318   4.857  0.3133 -0.5123  1.3460
 8496TIP3   OH246902   2.725   3.951  11.840 -0.6800  0.5574  0.1348
 8496TIP3    H146903   2.740   3.865  11.880 -1.3153  0.6281  0.5349
 8496TIP3    H246904   2.767   4.013  11.899 -0.0324  0.5103 -0.2670
 8497TIP3   OH246905   3.962   2.823   6.238 -0.4240 -0.0444  0.0666
 8497TIP3    H146906   3.906   2.852   6.167 -0.4882  0.7732  0.4306
 8497TIP3    H246907   3.964   2.728   6.231  0.2248  0.0495 -1.5154
 8498TIP3   OH246908   2.874   1.307  16.567 -0.0411  0.5889  0.0570
 8498TIP3    H146909   2.890   1.222  16.607 -3.5880 -1.5621 -2.4399
 8498TIP3    H246910   2.882   1.291  16.473  1.1029  3.5966 -0.4716
 8499TIP3   OH246911   3.553   2.116   0.959  0.3142  0.4538 -0.2199
 8499TIP3    H146912   3.612   2.062   1.012 -1.3311 -1.0540  0.1757
 8499TIP3    H246913   3.487   2.146   1.021 -0.8540 -0.1639 -1.1281
 8500TIP3   OH246914   2.861   5.620   0.680  0.1127  0.3987 -0.5231
 8500TIP3    H146915   2.828   5.691   0.625 -1.1266 -0.0367 -0.3728
 8500TIP3    H246916   2.947   5.599   0.644  1.6906  3.6539  0.9322
 8501TIP3   OH246917   1.478   5.948  12.329  0.3822  0.5970 -0.0352
 8501TIP3    H146918   1.465   5.868  12.278 -1.9228  0.4868  0.5906
 8501TIP3    H246919   1.572   5.954  12.340  0.6716 -1.7193 -0.5923
 8502TIP3   OH246920   5.817   3.446   0.099 -0.0052 -0.4209 -0.6807
 8502TIP3    H146921   5.820   3.394   0.180  0.3190  2.9932  1.7135
 8502TIP3    H246922   5.725   3.446   0.075 -0.4386  0.0619  0.8535
 8503TIP3   OH246923   3.342   5.052  13.020  0.0764 -0.2915  0.2223
 8503TIP3    H146924   3.398   5.062  12.943 -0.9409 -0.5271 -0.5652
 8503TIP3    H246925   3.258   5.024  12.985 -0.1823 -1.1803  1.4880
 8504TIP3   OH246926   1.624   1.917  17.066  0.0980  0.2836 -0.3495
 8504TIP3    H146927   1.589   1.997  17.029 -0.3705  1.2917  2.0615
 8504TIP3    H246928   1.547   1.862  17.083  0.2833 -0.0801 -0.6630
 8505TIP3   OH246929   2.540   6.103  14.899  0.1044  0.2578  0.0663
 8505TIP3    H146930   2.603   6.102  14.827  1.0882 -1.3751  0.8933
 8505TIP3    H246931   2.561   6.025  14.950  0.5494  2.1582  3.0750
 8506TIP3   OH246932   2.451   4.931  15.208 -0.6949  0.0519 -0.2875
 8506TIP3    H146933   2.474   5.020  15.235 -0.6203 -0.6777  2.2913
 8506TIP3    H246934   2.356   4.933  15.199 -0.9372 -0.0422  1.7779
 8507TIP3   OH246935   2.318   3.443   2.941 -0.2037 -0.1562 -0.4203
 8507TIP3    H146936   2.317   3.349   2.962  0.1811 -0.3392 -1.1952
 8507TIP3    H246937   2.392   3.453   2.881 -0.1125  0.6839 -0.1703
 8508TIP3   OH246938   6.608   4.052   3.144  0.4716 -0.6105  0.1485
 8508TIP3    H146939   6.586   3.969   3.186 -2.0774 -0.2516 -0.3448
 8508TIP3    H246940   6.526   4.083   3.106  1.7212  1.2976 -1.2005
 8509TIP3   OH246941   0.632   3.960  13.814  0.3078 -0.4157 -0.4157
 8509TIP3    H146942   0.538   3.943  13.815  0.1332  0.4264 -1.1419
 8509TIP3    H246943   0.672   3.880  13.849 -0.6323 -1.0587 -0.7879
 8510TIP3   OH246944   3.932   0.067   5.878 -0.4669 -0.2292 -0.3519
 8510TIP3    H146945   3.873   0.064   5.954 -0.5852 -0.4962 -0.4534
 8510TIP3    H246946   4.016   0.034   5.911 -0.3669  0.1806 -0.1989
 8511TIP3   OH246947   6.764   2.732  13.645  0.1644  0.6550  0.2279
 8511TIP3    H146948   6.713   2.653  13.664 -0.1586  0.4931 -1.1747
 8511TIP3    H246949   6.845   2.721  13.695  1.0345 -1.6003 -1.4848
 8512TIP3   OH246950   1.740   3.477   5.353  0.3583 -0.3200 -0.0358
 8512TIP3    H146951   1.753   3.476   5.447 -0.5741  0.6268  0.1237
 8512TIP3    H246952   1.672   3.543   5.339  0.6818 -0.2456 -1.3933
 8513TIP3   OH246953   0.854   6.233   1.380  0.0037  0.1411  0.0693
 8513TIP3    H146954   0.846   6.150   1.427  2.0134  0.0942  0.3843
 8513TIP3    H246955   0.818   6.298   1.440 -3.1275 -0.6110 -0.8075
 8514TIP3   OH246956   6.220   1.605   3.332 -0.3452  0.2660  0.9965
 8514TIP3    H146957   6.129   1.578   3.316  0.1721  0.1496 -2.6629
 8514TIP3    H246958   6.259   1.531   3.378 -1.3502 -1.1430 -0.2967
 8515TIP3   OH246959   2.356   0.690  13.481  0.3229  0.2432  0.5564
 8515TIP3    H146960   2.300   0.689  13.559 -0.5386 -2.1818  0.0087
 8515TIP3    H246961   2.323   0.618  13.427  0.7865  1.8852 -2.1457
 8516TIP3   OH246962   5.934   6.071  15.535  0.1668  0.2717  0.1153
 8516TIP3    H146963   5.992   6.110  15.600  0.9855  0.0640 -0.4703
 8516TIP3    H246964   5.926   5.980  15.561  1.7303 -0.1979 -0.8819
 8517TIP3   OH246965   3.802   4.130  17.036  0.3424 -0.4458  0.4623
 8517TIP3    H146966   3.798   4.144  17.131 -0.2396  0.9273  0.2700
 8517TIP3    H246967   3.798   4.219  17.000 -1.0004 -1.0211 -0.8767
 8518TIP3   OH246968   5.674   5.352  11.857  0.0099  0.4887  0.3987
 8518TIP3    H146969   5.613   5.406  11.908  0.4544 -0.0849  1.5840
 8518TIP3    H246970   5.695   5.278  11.915 -0.1863 -0.6998 -0.9854
 8519TIP3   OH246971   0.765   5.287  15.554  0.4777  0.3717 -0.7108
 8519TIP3    H146972   0.798   5.198  15.543  2.2541  0.5880  2.0126
 8519TIP3    H246973   0.670   5.279  15.545  0.3905 -2.2096  1.4218
 8520TIP3   OH246974   2.720   4.475   1.274  0.1398  0.1637 -0.1854
 8520TIP3    H146975   2.791   4.475   1.210 -1.8955  1.6115 -2.6862
 8520TIP3    H246976   2.661   4.545   1.244 -3.6553 -2.5738  0.0804
 8521TIP3   OH246977   0.221   0.417   1.695 -0.8038  0.0481 -0.0574
 8521TIP3    H146978   0.201   0.337   1.645  2.4437 -0.3062 -1.0555
 8521TIP3    H246979   0.159   0.482   1.663 -1.7879 -1.3882 -1.2071
 8522TIP3   OH246980   4.928   2.238  14.651  0.1214  0.4958 -0.1228
 8522TIP3    H146981   4.924   2.208  14.741 -0.0183 -0.6001 -0.4745
 8522TIP3    H246982   4.947   2.332  14.657 -0.5856  0.5788  1.0434
 8523TIP3   OH246983   6.437   5.865   6.085  0.3229  0.5577 -0.0481
 8523TIP3    H146984   6.370   5.844   6.020  0.0124  0.8905  0.1588
 8523TIP3    H246985   6.515   5.816   6.057 -0.0195  0.1332 -0.2642
 8524TIP3   OH246986   5.502   0.663  12.389  0.2542 -0.4241  0.0644
 8524TIP3    H146987   5.430   0.694  12.444 -0.9776 -2.2657 -0.3850
 8524TIP3    H246988   5.544   0.595  12.441  0.9861 -0.1109 -0.1123
 8525TIP3   OH246989   0.910   1.883   2.804  0.2182 -0.4010 -0.0369
 8525TIP3    H146990   0.926   1.823   2.877 -1.5186  0.2976  0.9971
 8525TIP3    H246991   0.965   1.958   2.821  1.8380 -1.3278 -0.9362
 8526TIP3   OH246992   3.778   4.568  13.862  0.1486  0.3512 -0.1271
 8526TIP3    H146993   3.854   4.579  13.804  1.2964 -1.6024  0.8963
 8526TIP3    H246994   3.704   4.557  13.803  1.0645 -0.1455 -1.2222
 8527TIP3   OH246995   3.582   6.413  14.523  0.0611  0.4715  0.3386
 8527TIP3    H146996   3.500   6.458  14.500 -0.7992 -1.3082 -0.2194
 8527TIP3    H246997   3.563   6.367  14.604  1.3564  2.1172  1.6522
 8528TIP3   OH246998   5.224   2.865  16.375 -0.4476  0.3369 -0.1073
 8528TIP3    H146999   5.270   2.784  16.356 -1.3990 -0.7199  1.7928
 8528TIP3    H247000   5.266   2.899  16.454 -1.2675  0.6904  0.1908
 8529TIP3   OH247001   1.165   1.968  10.845 -0.0731 -0.0328  0.5363
 8529TIP3    H147002   1.082   1.968  10.892 -0.7647  1.6044 -0.6316
 8529TIP3    H247003   1.141   1.958  10.753  1.0593  0.0858  0.2107
 8530TIP3   OH247004   0.752   0.382  16.439 -0.4287 -0.2221  0.6911
 8530TIP3    H147005   0.725   0.473  16.428 -0.5145 -0.1594  1.3608
 8530TIP3    H247006   0.789   0.357  16.355  0.2907  0.6663  0.7319
 8531TIP3   OH247007   1.255   2.965  12.897  0.6052 -0.1323  0.0738
 8531TIP3    H147008   1.336   2.926  12.867  1.3635  1.3462  0.0957
 8531TIP3    H247009   1.281   3.025  12.966 -0.6172 -0.2778  0.6949
 8532TIP3   OH247010   4.102   0.735   1.267  0.1310 -0.7018 -0.1377
 8532TIP3    H147011   4.145   0.669   1.320  1.0460  1.3117  1.8085
 8532TIP3    H247012   4.009   0.721   1.280  0.3379 -0.8585  1.2511
 8533TIP3   OH247013   6.807   0.668  12.567  0.2186 -0.0334 -0.1935
 8533TIP3    H147014   6.733   0.607  12.561 -2.8514  3.0509  2.2603
 8533TIP3    H247015   6.861   0.632  12.637 -1.8757  0.1674  1.6582
 8534TIP3   OH247016   5.508   4.297   0.300  0.2725  0.2854 -0.3445
 8534TIP3    H147017   5.560   4.242   0.359 -0.3385 -1.2143 -1.1658
 8534TIP3    H247018   5.440   4.335   0.357  2.1264  2.2342  0.7343
 8535TIP3   OH247019   4.871   3.636   2.356 -0.3904  0.5638  0.2993
 8535TIP3    H147020   4.788   3.652   2.311 -0.2148 -1.3359 -0.7813
 8535TIP3    H247021   4.865   3.546   2.386  0.9264  0.6958  1.0334
 8536TIP3   OH247022   1.652   2.102  14.365  0.4823  0.3641  0.1047
 8536TIP3    H147023   1.624   2.041  14.296  0.7300 -0.1425  0.4524
 8536TIP3    H247024   1.625   2.061  14.447  2.4236 -0.2562  0.4731
 8537TIP3   OH247025   0.318   5.756   4.476 -0.2842  0.2483 -0.0099
 8537TIP3    H147026   0.406   5.722   4.463 -0.8174 -0.7532 -1.2916
 8537TIP3    H247027   0.327   5.822   4.545  1.0346 -1.5152  1.6025
 8538TIP3   OH247028   6.600   5.698   3.573 -0.0626  0.6539  0.3589
 8538TIP3    H147029   6.511   5.666   3.585 -0.0464  0.3699 -0.2810
 8538TIP3    H247030   6.592   5.771   3.511  0.1818  0.4774  0.1201
 8539TIP3   OH247031   2.122   5.758   1.324 -0.3235  0.3716 -0.9809
 8539TIP3    H147032   2.106   5.681   1.269 -0.1058 -1.1876  1.0221
 8539TIP3    H247033   2.034   5.787   1.349 -0.3716 -0.2721 -0.3850
 8540TIP3   OH247034   3.275   2.442  10.551 -0.5075  0.1317  0.4622
 8540TIP3    H147035   3.279   2.469  10.459 -1.1156 -0.1120  0.3593
 8540TIP3    H247036   3.366   2.446  10.581 -0.1031 -1.0239 -0.5183
 8541TIP3   OH247037   6.322   1.553  10.658  0.0644  0.4684 -0.0276
 8541TIP3    H147038   6.384   1.540  10.730 -0.1441 -1.0179 -0.0722
 8541TIP3    H247039   6.243   1.587  10.699 -0.5845 -1.7797  0.7508
 8542TIP3   OH247040   1.164   6.729   6.559  0.1386 -0.1682 -0.0599
 8542TIP3    H147041   1.235   6.678   6.522  0.3570 -0.6906  1.0318
 8542TIP3    H247042   1.088   6.671   6.557  0.6475 -1.0107  2.2166
 8543TIP3   OH247043   3.955   3.012  15.101  0.0554  0.2005  0.3190
 8543TIP3    H147044   4.009   2.971  15.169  1.8645  0.7660 -0.7070
 8543TIP3    H247045   3.963   2.954  15.025 -2.2994 -0.6536  0.6487
 8544TIP3   OH247046   2.954   3.315   4.413 -0.6439  0.3557 -0.1148
 8544TIP3    H147047   2.874   3.263   4.411 -1.3332  1.2748  1.7287
 8544TIP3    H247048   3.022   3.255   4.443 -1.0662  0.0601  0.2566
 8545TIP3   OH247049   4.291   1.754   4.861  0.3244 -0.1290  0.4638
 8545TIP3    H147050   4.356   1.825   4.861  1.2187 -0.9327 -0.0633
 8545TIP3    H247051   4.256   1.755   4.950 -2.7424  3.6791 -0.4880
 8546TIP3   OH247052   0.710   0.368   5.371 -0.5008 -0.6028 -0.5724
 8546TIP3    H147053   0.759   0.395   5.293 -0.1375  0.7688  0.1072
 8546TIP3    H247054   0.690   0.450   5.416  0.7853 -1.4626  1.6742
 8547TIP3   OH247055   2.594   3.659   2.279  0.1148 -0.0730  0.3408
 8547TIP3    H147056   2.689   3.661   2.264 -0.1909  1.1081 -1.9093
 8547TIP3    H247057   2.579   3.727   2.345  0.7920 -0.1755  0.6160
 8548TIP3   OH247058   4.003   2.010   6.325  0.2370  0.3131  0.0334
 8548TIP3    H147059   3.943   1.962   6.269  1.2500 -0.7837 -0.1469
 8548TIP3    H247060   3.993   2.102   6.299  1.1231 -0.2224 -2.3927
 8549TIP3   OH247061   4.823   4.137   0.088 -0.3424 -0.2512 -0.6037
 8549TIP3    H147062   4.748   4.180   0.048 -0.1127  1.1249  0.3491
 8549TIP3    H247063   4.894   4.148   0.025 -0.9585 -1.8240 -1.6450
 8550TIP3   OH247064   4.349   5.981   2.867  0.6188  0.1460  0.0689
 8550TIP3    H147065   4.423   5.920   2.861 -0.1648 -0.7360 -0.9057
 8550TIP3    H247066   4.388   6.067   2.850  1.6150 -0.1486  0.7541
 8551TIP3   OH247067   2.681   4.176  16.277 -0.8903 -0.0400 -0.1256
 8551TIP3    H147068   2.699   4.086  16.248 -1.2968 -0.4395  0.8032
 8551TIP3    H247069   2.630   4.165  16.357 -0.5266  1.0293  0.2686
 8552TIP3   OH247070   4.060   2.591  14.292  0.2474 -0.1046 -0.1816
 8552TIP3    H147071   4.142   2.604  14.340 -0.0395 -0.0001  0.2862
 8552TIP3    H247072   4.006   2.666  14.317 -0.8328 -1.3228  1.2841
 8553TIP3   OH247073   3.324   2.674  16.084 -0.5441 -0.5167  0.3126
 8553TIP3    H147074   3.251   2.719  16.128 -0.4095  0.2914 -0.2611
 8553TIP3    H247075   3.402   2.719  16.117 -0.3464 -0.9300  0.4055
 8554TIP3   OH247076   3.850   0.261  13.818  0.1407 -0.0160  0.5342
 8554TIP3    H147077   3.906   0.240  13.743 -1.5838 -0.3123 -0.7367
 8554TIP3    H247078   3.850   0.356  13.822  0.7654 -0.0140  0.5879
 8555TIP3   OH247079   4.138   3.768  14.202 -0.1886  0.2835  0.2931
 8555TIP3    H147080   4.071   3.834  14.183 -0.4747 -0.0344  0.2036
 8555TIP3    H247081   4.221   3.816  14.193 -0.3563  0.4131 -0.7060
 8556TIP3   OH247082   3.434   2.824  12.017 -0.2942 -0.0074  0.0479
 8556TIP3    H147083   3.347   2.855  11.992  0.0895  1.5239  0.5236
 8556TIP3    H247084   3.463   2.885  12.085  1.2267 -0.3893 -0.2145
 8557TIP3   OH247085   1.441   5.312  16.317  0.2575  0.2193 -0.0171
 8557TIP3    H147086   1.446   5.406  16.332  2.1461  0.5593 -2.2077
 8557TIP3    H247087   1.448   5.302  16.222 -0.7896 -2.1104  0.0745
 8558TIP3   OH247088   4.610   0.021   4.329  0.5491 -0.3081  0.1906
 8558TIP3    H147089   4.601  -0.026   4.412  1.0455 -0.9634 -0.1166
 8558TIP3    H247090   4.663   0.098   4.350  0.6752 -0.4746  0.4858
 8559TIP3   OH247091   4.031   1.865   3.345 -0.2190 -0.0595  0.5963
 8559TIP3    H147092   4.025   1.929   3.416 -0.4063  0.9867 -0.3456
 8559TIP3    H247093   3.959   1.887   3.287 -0.2450 -1.0992  0.2264
 8560TIP3   OH247094   1.891   0.662  12.288 -0.3501  0.1187  0.0709
 8560TIP3    H147095   1.806   0.624  12.264  0.4231 -0.5156 -1.8226
 8560TIP3    H247096   1.956   0.600  12.256  0.8663  0.2157  2.1748
 8561TIP3   OH247097   4.218   5.663  14.106 -0.3558  0.3796 -0.1213
 8561TIP3    H147098   4.232   5.604  14.033  1.2144  1.2620 -0.5786
 8561TIP3    H247099   4.285   5.730  14.097 -2.0008  2.2155  0.4265
 8562TIP3   OH247100   4.481   0.215   3.305  0.0964 -0.2679 -0.0267
 8562TIP3    H147101   4.477   0.126   3.340  1.5862  0.1140  1.2108
 8562TIP3    H247102   4.558   0.215   3.249  0.1633  0.2800  0.0648
 8563TIP3   OH247103   4.894   1.508   3.910 -0.0808  0.1825  0.1039
 8563TIP3    H147104   4.906   1.489   4.003  2.5107 -0.8813 -0.3460
 8563TIP3    H247105   4.913   1.601   3.901  2.5058 -0.2428  0.3517
 8564TIP3   OH247106   4.698   3.568   2.855  0.6008  0.5527  0.2598
 8564TIP3    H147107   4.781   3.520   2.859  0.5529  0.5945  2.3422
 8564TIP3    H247108   4.650   3.541   2.933 -1.7305 -0.0614 -1.2733
 8565TIP3   OH247109   0.966   5.327  14.570  0.7741 -0.3746 -0.1604
 8565TIP3    H147110   1.057   5.296  14.562  1.3223  1.2622 -0.5932
 8565TIP3    H247111   0.969   5.417  14.539 -1.1317 -0.4774 -0.7305
 8566TIP3   OH247112   3.001   1.960   5.237  0.0651 -0.5412  0.1172
 8566TIP3    H147113   2.918   1.963   5.284 -0.9269 -2.3841 -1.3303
 8566TIP3    H247114   2.987   1.893   5.169  2.2532  0.1347 -1.1067
 8567TIP3   OH247115   1.522   5.025   5.492  0.2644 -0.4452  0.0643
 8567TIP3    H147116   1.587   5.064   5.433  1.8245 -1.1984  1.2236
 8567TIP3    H247117   1.479   4.958   5.439 -1.3142  1.6305 -1.4528
 8568TIP3   OH247118   5.725   5.959   3.780  0.0825  0.2795  0.0334
 8568TIP3    H147119   5.720   6.009   3.699 -1.3281  2.4155  1.3612
 8568TIP3    H247120   5.723   6.025   3.849 -1.7093 -1.5706  1.8806
 8569TIP3   OH247121   3.024   4.050  11.644  0.1580 -0.0745 -0.2654
 8569TIP3    H147122   3.026   4.035  11.549 -2.1509 -2.6597 -0.0031
 8569TIP3    H247123   2.956   4.116  11.656  0.3567  0.1545 -0.3809
 8570TIP3   OH247124   2.042   1.420   4.684  0.0056 -0.0711  0.0075
 8570TIP3    H147125   2.027   1.449   4.594  0.7379 -1.9028 -0.7387
 8570TIP3    H247126   2.044   1.502   4.735  0.6631  1.0772 -1.7686
 8571TIP3   OH247127   1.816   5.012  16.816  0.7191  0.3865 -0.1106
 8571TIP3    H147128   1.878   5.080  16.841  2.1883 -0.6749 -0.6729
 8571TIP3    H247129   1.835   4.995  16.723 -0.8108  0.4016 -0.4645
 8572TIP3   OH247130   4.895   2.392   3.845  0.3371  0.1658  0.1501
 8572TIP3    H147131   4.960   2.374   3.778 -0.7200 -2.4482 -0.3044
 8572TIP3    H247132   4.903   2.320   3.907 -1.1641  0.5448  0.8533
 8573TIP3   OH247133   2.381   3.210   3.526  0.6115 -0.2520  0.4441
 8573TIP3    H147134   2.416   3.263   3.455  1.7983 -1.0762  0.3850
 8573TIP3    H247135   2.288   3.200   3.505  0.8212  0.0069 -0.6743
 8574TIP3   OH247136   0.645   6.111   5.741 -0.2740 -0.1116 -0.5269
 8574TIP3    H147137   0.697   6.102   5.661 -2.3595 -2.0400 -1.7765
 8574TIP3    H247138   0.566   6.157   5.713  0.0065  1.3684  0.9960
 8575TIP3   OH247139   6.352   3.066   4.900  0.2277  0.1607  0.3922
 8575TIP3    H147140   6.332   2.973   4.914 -1.0884  0.4819  0.8084
 8575TIP3    H247141   6.412   3.088   4.971 -0.4794 -0.0742  1.0870
 8576TIP3   OH247142   0.237   1.855   3.035  0.1895  0.1310 -0.1708
 8576TIP3    H147143   0.316   1.905   3.055 -0.5385  1.3025 -0.1391
 8576TIP3    H247144   0.178   1.919   2.995  0.0298 -1.1873 -2.1920
 8577TIP3   OH247145   3.466   6.385   5.391 -0.1225 -0.7552  0.1704
 8577TIP3    H147146   3.457   6.470   5.348 -2.3064 -1.8991 -1.8654
 8577TIP3    H247147   3.559   6.377   5.411  0.2701  1.6711 -0.4721
 8578TIP3   OH247148   6.674   0.215   1.948  0.3344  0.0544  0.6522
 8578TIP3    H147149   6.693   0.218   1.854 -0.2079 -0.4891  0.5192
 8578TIP3    H247150   6.628   0.132   1.961  0.3920  0.1289  1.3989
 8579TIP3   OH247151   0.145   3.536   0.268 -0.0376 -0.3323  0.2861
 8579TIP3    H147152   0.122   3.496   0.352  2.6466 -0.2387  1.1514
 8579TIP3    H247153   0.194   3.467   0.221 -0.3317  0.0678 -0.6282
 8580TIP3   OH247154   1.932   2.522  16.760  0.1969 -0.4923  0.2808
 8580TIP3    H147155   2.005   2.500  16.703  0.1261 -2.3462  0.8073
 8580TIP3    H247156   1.939   2.616  16.774  0.0002  0.1240 -3.0171
 8581TIP3   OH247157   2.357   6.544   4.490  0.2352 -0.2829 -0.1952
 8581TIP3    H147158   2.425   6.610   4.478 -0.2195  0.2796  0.2655
 8581TIP3    H247159   2.287   6.590   4.537 -0.4333 -0.8660 -0.6003
 8582TIP3   OH247160   2.807   4.285  11.519  0.2840  0.0226  0.1323
 8582TIP3    H147161   2.810   4.312  11.611 -0.0323  1.1299 -0.1631
 8582TIP3    H247162   2.714   4.274  11.500  0.3094  0.3906 -0.2140
 8583TIP3   OH247163   5.133   1.433  11.477 -0.3303 -0.2895 -0.0149
 8583TIP3    H147164   5.084   1.512  11.456  1.3055  0.9853  0.7077
 8583TIP3    H247165   5.154   1.394  11.392  0.1576  0.9070 -0.4604
 8584TIP3   OH247166   3.539   4.786  15.651 -0.3008  0.2229 -0.1325
 8584TIP3    H147167   3.556   4.757  15.741 -0.4046  0.0910 -0.1549
 8584TIP3    H247168   3.626   4.806  15.616 -0.3433  1.3800  0.3723
 8585TIP3   OH247169   3.294   3.278  15.514 -0.1863  0.5234  0.6165
 8585TIP3    H147170   3.232   3.292  15.443 -2.8318  0.3538  2.7140
 8585TIP3    H247171   3.347   3.357  15.516 -0.9516  1.0964 -0.6669
 8586TIP3   OH247172   6.100   5.134  12.618 -0.3629 -0.5207 -0.1657
 8586TIP3    H147173   6.032   5.087  12.667 -1.3869  2.7129  1.7952
 8586TIP3    H247174   6.074   5.226  12.623  1.6056  0.3892 -3.6286
 8587TIP3   OH247175   3.666   1.779  12.964 -0.0609  0.8846 -0.3446
 8587TIP3    H147176   3.610   1.847  13.002 -2.3405 -0.1865 -1.5739
 8587TIP3    H247177   3.643   1.699  13.012 -0.2544  0.2542 -1.4540
 8588TIP3   OH247178   1.044   2.737   1.811 -0.1794 -0.2428  0.4813
 8588TIP3    H147179   1.043   2.768   1.901  2.3549  1.2647  0.0998
 8588TIP3    H247180   0.999   2.806   1.762 -0.1738 -0.3007  0.3939
 8589TIP3   OH247181   0.710   6.138   0.480  0.5124  0.2614  0.2146
 8589TIP3    H147182   0.771   6.128   0.553  1.1299  1.3060 -0.1410
 8589TIP3    H247183   0.729   6.225   0.444  0.2034 -0.2140 -1.1617
 8590TIP3   OH247184   3.008   2.694  12.454 -0.1451  0.0375  0.7527
 8590TIP3    H147185   3.002   2.789  12.442 -0.4756  0.1257  1.5408
 8590TIP3    H247186   2.979   2.657  12.370 -0.4785  0.6294  0.5985
 8591TIP3   OH247187   1.395   3.981   5.213 -0.2347 -0.6320 -0.1139
 8591TIP3    H147188   1.446   3.966   5.292  0.5445  0.2291 -0.4407
 8591TIP3    H247189   1.307   3.949   5.235 -0.1726  0.0991  1.2892
 8592TIP3   OH247190   4.686   0.277   5.439 -0.6302  0.1704 -0.0101
 8592TIP3    H147191   4.721   0.286   5.527  0.7318 -1.0654 -0.3980
 8592TIP3    H247192   4.605   0.227   5.451  0.1035 -0.9412  0.4513
 8593TIP3   OH247193   1.759   6.583  14.604  0.2652  0.0306 -0.3295
 8593TIP3    H147194   1.704   6.648  14.647  0.6172  0.3099 -0.2941
 8593TIP3    H247195   1.735   6.500  14.646 -0.4103  0.0842 -0.5963
 8594TIP3   OH247196   2.845   2.169  16.889 -0.5423  0.5482 -0.0499
 8594TIP3    H147197   2.931   2.190  16.925 -0.4338 -0.8496  0.5717
 8594TIP3    H247198   2.816   2.250  16.847  1.1893  0.9754 -0.5034
 8595TIP3   OH247199   2.623   5.074   2.123 -0.0500  0.3751  0.0568
 8595TIP3    H147200   2.637   5.101   2.214 -1.9575  1.1229  0.1951
 8595TIP3    H247201   2.695   5.113   2.075  0.4116  0.8737  1.1128
 8596TIP3   OH247202   1.399   1.727  15.476  0.6150  0.3186 -0.4712
 8596TIP3    H147203   1.325   1.760  15.526  0.7183  1.5845 -1.1172
 8596TIP3    H247204   1.460   1.800  15.470  1.7803 -0.6005 -0.2400
 8597TIP3   OH247205   2.875   4.781   1.302  0.3317 -0.3003 -0.1568
 8597TIP3    H147206   2.867   4.704   1.246 -1.2718 -1.0873  1.0434
 8597TIP3    H247207   2.805   4.840   1.273 -1.7191 -1.4713  1.9915
 8598TIP3   OH247208   1.031   3.458  14.121 -0.5390 -0.0211  0.1012
 8598TIP3    H147209   1.062   3.488  14.206  0.9110  2.4858 -1.2011
 8598TIP3    H247210   1.106   3.413  14.082 -1.0362 -0.7296 -0.0611
 8599TIP3   OH247211   5.556   1.218   1.120 -0.0726  0.1853  0.3710
 8599TIP3    H147212   5.466   1.226   1.090 -0.7115  1.2136  2.4212
 8599TIP3    H247213   5.599   1.297   1.089  0.1827 -0.3487 -0.6880
 8600TIP3   OH247214   4.704   4.397  13.536  0.0262  0.3075 -0.0193
 8600TIP3    H147215   4.613   4.375  13.515 -0.1025 -0.4891  1.2715
 8600TIP3    H247216   4.718   4.361  13.623  1.7743 -0.1358 -0.4393
 8601TIP3   OH247217   0.091   3.731   3.666 -0.0378 -0.2135 -0.3978
 8601TIP3    H147218   0.056   3.748   3.753 -0.4956 -0.5570 -0.5138
 8601TIP3    H247219   0.152   3.658   3.678  0.0645 -0.1190 -0.3332
 8602TIP3   OH247220   5.497   5.901  13.735  0.0779 -0.3504 -0.4335
 8602TIP3    H147221   5.565   5.950  13.781  0.3300 -1.0952  0.0032
 8602TIP3    H247222   5.504   5.931  13.644  0.3611  0.2639 -0.2205
 8603TIP3   OH247223   3.621   0.352   3.578  0.6363 -0.7344  0.1721
 8603TIP3    H147224   3.714   0.369   3.569  0.6392  0.5135  2.0401
 8603TIP3    H247225   3.579   0.409   3.514  1.0485  0.9150  1.3086
 8604TIP3   OH247226   4.484   6.672  16.685  0.2736 -0.0881  0.1853
 8604TIP3    H147227   4.403   6.632  16.652 -0.0229  0.2167  0.5296
 8604TIP3    H247228   4.547   6.659  16.615 -0.1724 -0.0204 -0.2409
 8605TIP3   OH247229   5.350   2.043  16.119 -0.1726 -0.3654  0.1523
 8605TIP3    H147230   5.258   2.029  16.094 -0.0676  0.3395 -0.6573
 8605TIP3    H247231   5.398   1.974  16.073 -0.2502 -0.4836  0.2492
 8606TIP3   OH247232   5.306   2.996   5.700 -0.3749  0.0256  0.4224
 8606TIP3    H147233   5.270   3.080   5.670 -1.7830 -0.5859  0.3321
 8606TIP3    H247234   5.233   2.953   5.744  0.3516 -1.1346  0.5264
 8607TIP3   OH247235   5.660   0.676   0.991  0.4072 -0.0694 -0.4412
 8607TIP3    H147236   5.697   0.689   1.078 -1.1242  1.0291  0.0941
 8607TIP3    H247237   5.598   0.604   1.002 -1.0414  1.1549 -0.1576
 8608TIP3   OH247238   6.628   5.341  12.537  0.3341  0.3963  0.3260
 8608TIP3    H147239   6.574   5.362  12.461  1.5956 -0.8264 -0.9506
 8608TIP3    H247240   6.565   5.330  12.608 -1.3084 -2.0591 -1.3239
 8609TIP3   OH247241   0.906   5.592   0.517  0.2200 -0.5501  0.0775
 8609TIP3    H147242   0.967   5.577   0.589  0.5045 -0.8550 -0.2201
 8609TIP3    H247243   0.937   5.533   0.448  0.1668  0.0014 -0.4213
 8610TIP3   OH247244   1.864   1.245   2.548  0.5799 -0.2287 -0.0829
 8610TIP3    H147245   1.945   1.200   2.523  0.0019 -3.1017  2.5368
 8610TIP3    H247246   1.885   1.288   2.631 -0.2989 -0.0153  0.0403
 8611TIP3   OH247247   2.166   1.808  16.809  0.1414  0.4971  0.0585
 8611TIP3    H147248   2.102   1.825  16.879  1.5646  0.4629  1.4113
 8611TIP3    H247249   2.201   1.722  16.829  0.8229  0.6336 -0.5069
 8612TIP3   OH247250   0.982   4.963   3.454  0.4038 -0.4195  0.0365
 8612TIP3    H147251   1.055   4.990   3.398 -0.4331 -0.3262 -1.0295
 8612TIP3    H247252   1.022   4.901   3.516  1.8528  1.3794  1.0035
 8613TIP3   OH247253   0.658   6.518  12.751 -0.1031  0.2642  1.0574
 8613TIP3    H147254   0.575   6.470  12.750  0.4643 -0.7908  2.1377
 8613TIP3    H247255   0.653   6.576  12.675 -1.1879 -0.8537  0.2431
 8614TIP3   OH247256   1.204   2.050  15.115  0.0934 -1.2553 -0.3374
 8614TIP3    H147257   1.202   2.104  15.035  0.1002 -1.5139 -0.5151
 8614TIP3    H247258   1.112   2.036  15.137  0.0733 -2.0159 -0.8732
 8615TIP3   OH247259   3.098   0.625   0.626  0.7592  0.2186  0.5996
 8615TIP3    H147260   3.174   0.577   0.658  1.1122 -0.9508 -1.7851
 8615TIP3    H247261   3.109   0.628   0.531 -2.6347 -0.8334  0.0341
 8616TIP3   OH247262   0.454   6.496   4.768  0.4687 -0.0031 -0.0429
 8616TIP3    H147263   0.448   6.468   4.860  2.0813  0.6854  0.3053
 8616TIP3    H247264   0.471   6.415   4.720 -2.2616 -0.6800 -0.0466
 8617TIP3   OH247265   2.015   2.356  16.044  0.3726 -0.1080 -0.3138
 8617TIP3    H147266   2.103   2.319  16.058  1.0287  0.9179 -1.5536
 8617TIP3    H247267   2.022   2.405  15.962 -1.4764 -0.3224 -0.6397
 8618TIP3   OH247268   1.702   4.015   4.268  0.0304  0.7625  0.1050
 8618TIP3    H147269   1.753   3.938   4.292 -0.4475  1.3723  3.7172
 8618TIP3    H247270   1.737   4.042   4.183  1.2931 -2.4422 -0.5501
 8619TIP3   OH247271   5.892   2.623   2.084  0.1461 -0.5065 -0.2192
 8619TIP3    H147272   5.899   2.536   2.124 -0.9141 -1.1059 -1.2648
 8619TIP3    H247273   5.932   2.614   1.998  2.6115  0.8369  0.6815
 8620TIP3   OH247274   6.225   3.586   3.115 -0.1145  0.1915 -0.3328
 8620TIP3    H147275   6.186   3.577   3.028 -1.2631 -1.1962  0.2866
 8620TIP3    H247276   6.219   3.680   3.134 -0.9787  0.3393 -1.2427
 8621TIP3   OH247277   2.551   3.416  15.589 -0.0457  0.0766  0.1260
 8621TIP3    H147278   2.609   3.476  15.543  0.0061  1.5558  2.0058
 8621TIP3    H247279   2.469   3.463  15.597 -0.6379 -0.8914 -0.0345
 8622TIP3   OH247280   4.970   5.576  16.318  0.4404  0.1331 -0.2218
 8622TIP3    H147281   4.918   5.508  16.361  1.2496 -1.7093 -2.0128
 8622TIP3    H247282   5.058   5.565  16.354  0.3696  0.8806  0.1860
 8623TIP3   OH247283   5.239   6.061   1.166 -0.2029  0.0724  0.8437
 8623TIP3    H147284   5.149   6.092   1.155  0.2723  1.3188  0.3161
 8623TIP3    H247285   5.285   6.095   1.090  1.2880  1.6410  2.3745
 8624TIP3   OH247286   4.044   0.095   2.135 -0.2078 -0.0648  0.4499
 8624TIP3    H147287   4.013   0.122   2.221 -1.0887  0.4990 -0.0340
 8624TIP3    H247288   4.086   0.011   2.150  1.6084  0.9965  1.8081
 8625TIP3   OH247289   4.287   6.580   3.233  0.1248  0.1135 -0.3765
 8625TIP3    H147290   4.278   6.674   3.216 -1.4265  0.3203  1.3432
 8625TIP3    H247291   4.382   6.567   3.241  0.2965  1.9540  1.3543
 8626TIP3   OH247292   5.170   5.558  13.216  0.0073  0.5067  0.0894
 8626TIP3    H147293   5.219   5.615  13.156  0.8225 -0.1228  0.1380
 8626TIP3    H247294   5.111   5.509  13.160  1.4080 -0.7509 -0.3689
 8627TIP3   OH247295   2.541   6.091  16.606 -0.1859  0.2916  0.1744
 8627TIP3    H147296   2.516   6.001  16.628 -0.0359  0.3206  0.4768
 8627TIP3    H247297   2.459   6.136  16.589 -0.2552  0.0682 -0.0929
 8628TIP3   OH247298   0.472   6.082   3.862  0.5064 -0.1812 -0.3813
 8628TIP3    H147299   0.499   6.006   3.810  0.7799  1.0458 -2.1055
 8628TIP3    H247300   0.378   6.071   3.872  0.2471  0.0971 -2.1331
 8629TIP3   OH247301   0.128   4.662  12.145 -0.5614 -0.1498  0.2646
 8629TIP3    H147302   0.041   4.678  12.181 -0.1958  0.1588  1.0542
 8629TIP3    H247303   0.180   4.737  12.174  0.1130 -0.6342  0.3347
 8630TIP3   OH247304   4.630   3.958   3.970 -0.2198  0.3734 -0.3898
 8630TIP3    H147305   4.672   3.957   3.884  0.6247  0.2974  0.0048
 8630TIP3    H247306   4.618   3.865   3.991  0.9036  0.3399  0.1812
 8631TIP3   OH247307   4.208   5.716  11.133 -0.1393 -0.1903 -0.1488
 8631TIP3    H147308   4.157   5.746  11.058 -1.2095 -2.7252 -0.5176
 8631TIP3    H247309   4.196   5.784  11.199  0.6501  2.0117 -2.1255
 8632TIP3   OH247310   1.508   0.356  14.254  0.0857  0.0549  0.0435
 8632TIP3    H147311   1.542   0.312  14.332 -0.9147  0.5633  0.7929
 8632TIP3    H247312   1.544   0.306  14.181  0.1305 -1.1420  0.8486
 8633TIP3   OH247313   5.822   1.530  14.977 -0.0884  0.1377 -0.2679
 8633TIP3    H147314   5.780   1.460  15.026  0.5765 -0.7956 -1.0020
 8633TIP3    H247315   5.842   1.597  15.043  1.9827 -1.6401  1.0382
 8634TIP3   OH247316   1.945   3.697  14.806  0.1991 -0.1762  0.1155
 8634TIP3    H147317   1.880   3.767  14.805  0.6050  0.2791 -2.5212
 8634TIP3    H247318   2.020   3.733  14.759  0.9791 -1.9058 -0.0479
 8635TIP3   OH247319   6.818   4.720  15.696 -0.2860 -0.4651 -0.3366
 8635TIP3    H147320   6.826   4.724  15.600  1.1336 -0.0249 -0.2228
 8635TIP3    H247321   6.766   4.797  15.720  2.3583  1.5039 -0.5044
 8636TIP3   OH247322   0.702   3.379   5.378  0.4493  0.5739 -0.2294
 8636TIP3    H147323   0.750   3.425   5.309 -0.5065 -3.4377 -4.1097
 8636TIP3    H247324   0.617   3.359   5.338 -0.1350 -2.0997  2.0420
 8637TIP3   OH247325   5.520   0.724  17.051 -0.3596 -0.3440  0.4248
 8637TIP3    H147326   5.465   0.780  16.996 -1.1467 -0.3416  1.1995
 8637TIP3    H247327   5.520   0.766  17.137 -0.5007 -1.2294  0.8702
 8638TIP3   OH247328   3.766   1.368  14.827  0.3726  0.0776  0.5770
 8638TIP3    H147329   3.857   1.386  14.803  0.7214  1.6085  2.7018
 8638TIP3    H247330   3.772   1.327  14.914 -0.9400  2.9967  2.2152
 8639TIP3   OH247331   0.256   4.730  15.239 -0.2346 -0.8976 -0.0060
 8639TIP3    H147332   0.321   4.686  15.184  0.8485 -0.4230  0.8532
 8639TIP3    H247333   0.228   4.805  15.186 -0.1215 -1.1300 -0.4058
 8640TIP3   OH247334   4.846   3.918   1.096 -0.4839 -0.1588 -0.4418
 8640TIP3    H147335   4.753   3.901   1.108 -0.2128 -0.9049  0.6948
 8640TIP3    H247336   4.889   3.866   1.163  0.7793 -0.0633 -1.1506
 8641TIP3   OH247337   2.017   3.175   2.617  0.1376  0.5412 -0.2144
 8641TIP3    H147338   2.095   3.226   2.598 -0.0607  1.1562  0.5817
 8641TIP3    H247339   2.040   3.123   2.694 -0.6765  1.7748  0.8998
 8642TIP3   OH247340   0.124   2.901   2.868 -0.1850 -0.1730 -0.4741
 8642TIP3    H147341   0.193   2.910   2.935  0.7720  1.7442 -1.6370
 8642TIP3    H247342   0.152   2.826   2.816  1.2942  0.7986 -1.1569
 8643TIP3   OH247343   3.820   5.246   4.897 -0.3895 -0.2802 -0.2500
 8643TIP3    H147344   3.770   5.265   4.976 -0.9983  0.2772 -0.7570
 8643TIP3    H247345   3.813   5.151   4.886 -2.0764 -0.1261 -0.7796
 8644TIP3   OH247346   3.429   0.534  15.034 -0.3209  0.1826  0.2996
 8644TIP3    H147347   3.460   0.507  15.120 -0.2393  0.4387  0.3520
 8644TIP3    H247348   3.403   0.453  14.991  0.5390 -0.0614  0.2121
 8645TIP3   OH247349   6.597   5.323  12.176 -0.2358 -0.1038 -0.2060
 8645TIP3    H147350   6.587   5.244  12.123 -0.1969  0.9102 -1.8269
 8645TIP3    H247351   6.691   5.343  12.173 -0.2591  0.0552  0.0901
 8646TIP3   OH247352   6.424   5.428   2.917  0.1475  0.0095  0.3174
 8646TIP3    H147353   6.450   5.410   2.827  0.2507 -0.1608  0.3806
 8646TIP3    H247354   6.505   5.453   2.961 -0.0077  0.7067  0.2126
 8647TIP3   OH247355   1.256   5.274  14.608  0.0445 -0.1014 -0.0231
 8647TIP3    H147356   1.341   5.234  14.591  0.2097  0.3936 -0.3849
 8647TIP3    H247357   1.275   5.367  14.620 -0.4986  0.0816 -0.5319
 8648TIP3   OH247358   2.258   5.630  12.364 -0.3012 -0.2987 -0.4958
 8648TIP3    H147359   2.226   5.705  12.415 -1.9886 -0.2030 -1.6087
 8648TIP3    H247360   2.248   5.555  12.422  1.2918  0.2612  0.5894
 8649TIP3   OH247361   1.215   6.042   4.128 -0.0131 -0.0265 -0.4045
 8649TIP3    H147362   1.243   6.107   4.193 -1.7160  0.4298 -0.0945
 8649TIP3    H247363   1.186   6.094   4.053 -2.6911 -0.2872  0.3580
 8650TIP3   OH247364   4.370   2.928   4.537  0.3891 -0.1047  0.0610
 8650TIP3    H147365   4.343   2.901   4.625 -1.7339  2.3356  0.3054
 8650TIP3    H247366   4.464   2.945   4.545  0.5643 -1.4162  1.3958
 8651TIP3   OH247367   0.173   0.707  13.521  0.3667  0.5858  0.1380
 8651TIP3    H147368   0.180   0.725  13.615  0.5481 -0.7639  0.4058
 8651TIP3    H247369   0.135   0.619  13.516  1.6137  0.0850 -1.0303
 8652TIP3   OH247370   3.905   2.996   5.717  0.2568  0.1783 -0.6274
 8652TIP3    H147371   3.937   2.973   5.629 -1.0478 -0.4230 -0.9643
 8652TIP3    H247372   3.811   2.982   5.713  0.2874 -0.8778  1.1841
 8653TIP3   OH247373   0.298   5.717  11.470  0.1468 -0.1955 -0.2530
 8653TIP3    H147374   0.384   5.688  11.499  1.2902  2.5989 -0.5129
 8653TIP3    H247375   0.237   5.654  11.509  2.3111 -2.9780 -1.0740
 8654TIP3   OH247376   4.509   0.671   3.620  0.5942  0.1899  0.4379
 8654TIP3    H147377   4.511   0.612   3.695  1.2303 -0.8044 -0.3304
 8654TIP3    H247378   4.501   0.758   3.658 -3.1608 -0.4721  1.5390
 8655TIP3   OH247379   6.489   2.513  11.586  0.6170 -0.1794  0.6835
 8655TIP3    H147380   6.420   2.454  11.616  0.3461 -0.8330 -1.1143
 8655TIP3    H247381   6.491   2.583  11.651 -1.6903 -0.1726  0.8253
 8656TIP3   OH247382   3.797   2.717   3.504  0.0830 -0.6860  0.1594
 8656TIP3    H147383   3.804   2.631   3.547  2.3969 -0.4126  0.4483
 8656TIP3    H247384   3.828   2.702   3.415 -3.1409 -0.8920 -1.0479
 8657TIP3   OH247385   5.823   4.375   1.340 -0.1516 -0.5436 -0.5092
 8657TIP3    H147386   5.865   4.363   1.425  0.1331 -1.5429 -0.7758
 8657TIP3    H247387   5.892   4.358   1.276 -0.4092  0.0177 -0.9407
 8658TIP3   OH247388   1.592   2.404   1.031 -0.5824  0.6204 -0.5983
 8658TIP3    H147389   1.665   2.348   1.005  0.4808  1.5534  0.3019
 8658TIP3    H247390   1.580   2.385   1.124 -3.9536 -2.2502 -1.3978
 8659TIP3   OH247391   6.111   2.730   5.371 -0.4872 -0.3888 -0.9442
 8659TIP3    H147392   6.091   2.819   5.341 -1.2959 -0.7262 -1.4615
 8659TIP3    H247393   6.051   2.715   5.444  1.1214  0.2396  0.5776
 8660TIP3   OH247394   3.633   6.582  16.745 -0.0134  0.0590  0.2116
 8660TIP3    H147395   3.615   6.579  16.839 -2.0450 -1.2964 -0.1723
 8660TIP3    H247396   3.571   6.646  16.710 -1.6963 -1.8969 -0.6095
 8661TIP3   OH247397   0.199   6.491  14.336  0.3700 -0.6672  0.2153
 8661TIP3    H147398   0.131   6.463  14.274 -0.6738  1.1339  0.4782
 8661TIP3    H247399   0.273   6.515  14.281  0.8635 -2.6979 -0.0764
 8662TIP3   OH247400   0.338   0.638  11.960 -0.4295 -0.0734 -0.4136
 8662TIP3    H147401   0.409   0.605  11.905  1.0111  0.3178  1.1246
 8662TIP3    H247402   0.339   0.733  11.945  2.0790  0.4833  2.5004
 8663TIP3   OH247403   1.009   6.572  11.966 -0.3115  0.1981  0.1839
 8663TIP3    H147404   1.058   6.527  11.897 -1.6008 -0.9816 -0.0226
 8663TIP3    H247405   1.050   6.544  12.048  0.1738  0.2699 -0.0336
 8664TIP3   OH247406   6.005   1.397   0.776 -0.3683  0.2344  0.1686
 8664TIP3    H147407   6.100   1.398   0.781 -0.3351 -1.6604  1.2156
 8664TIP3    H247408   5.976   1.470   0.830  0.4611  1.5904 -1.1564
 8665TIP3   OH247409   4.060   5.466  12.506 -0.4613  0.0804  0.3265
 8665TIP3    H147410   4.041   5.377  12.535 -1.3206 -0.5195 -1.8702
 8665TIP3    H247411   4.141   5.490  12.551 -0.4827 -1.6033  1.3230
 8666TIP3   OH247412   3.477   3.460   0.402  0.0398 -0.0611  0.7700
 8666TIP3    H147413   3.416   3.392   0.429 -0.0892 -0.0216  0.5840
 8666TIP3    H247414   3.454   3.478   0.311 -0.4349  0.7741  1.0442
 8667TIP3   OH247415   6.230   5.546   5.643 -0.3563 -0.1732 -0.5480
 8667TIP3    H147416   6.243   5.613   5.576 -0.2884  1.4651  0.9957
 8667TIP3    H247417   6.298   5.481   5.627 -1.1289 -0.4995 -2.7755
 8668TIP3   OH247418   6.688   2.577   2.933 -0.0846  0.3398 -0.6085
 8668TIP3    H147419   6.640   2.497   2.910 -0.1020  0.0725  0.2941
 8668TIP3    H247420   6.702   2.622   2.850  0.1688 -0.7382 -1.1706
 8669TIP3   OH247421   5.389   5.647   2.105 -0.5251 -0.5081 -0.1770
 8669TIP3    H147422   5.361   5.727   2.061 -0.3544 -0.7653 -0.7703
 8669TIP3    H247423   5.434   5.677   2.184 -0.6975 -0.0306 -0.2584
 8670TIP3   OH247424   2.767   1.552   4.223 -0.0682  0.4691 -0.4055
 8670TIP3    H147425   2.731   1.538   4.311 -0.0626  1.1203 -0.2955
 8670TIP3    H247426   2.752   1.469   4.178  2.1429 -0.7642  0.9546
 8671TIP3   OH247427   0.048   3.908  16.123 -0.3146  1.1751 -0.4437
 8671TIP3    H147428  -0.047   3.905  16.137 -0.1211 -0.1591  0.7960
 8671TIP3    H247429   0.086   3.889  16.209  1.0386 -0.7671 -1.3857
 8672TIP3   OH247430   2.442   3.714   6.132 -0.7648 -0.2842 -0.2641
 8672TIP3    H147431   2.519   3.733   6.185 -0.1682 -0.8924 -0.8854
 8672TIP3    H247432   2.368   3.722   6.192 -0.3393  1.5211  0.0600
 8673TIP3   OH247433   5.899   1.046   2.328  0.3258 -0.1292 -0.5899
 8673TIP3    H147434   5.952   1.116   2.367 -1.6090  1.5082 -0.7320
 8673TIP3    H247435   5.824   1.091   2.289 -0.8170 -2.2664 -1.0321
 8674TIP3   OH247436   4.083   4.310  16.887 -0.3135  0.1300 -0.4777
 8674TIP3    H147437   3.991   4.323  16.862 -0.1021  1.0999 -0.7958
 8674TIP3    H247438   4.110   4.232  16.838 -0.8235  0.1371 -0.7765
 8675TIP3   OH247439   0.867   4.000   5.566  0.2007 -0.0225 -0.3921
 8675TIP3    H147440   0.867   4.066   5.636  1.8893 -1.0571  0.6400
 8675TIP3    H247441   0.834   3.920   5.609  1.0264 -0.6089 -0.8303
 8676TIP3   OH247442   2.489   2.630  11.307  0.1654 -0.2256 -0.3523
 8676TIP3    H147443   2.435   2.553  11.325  1.3158 -0.6424  1.6398
 8676TIP3    H247444   2.440   2.704  11.343  0.4773 -0.4789  0.6127
 8677TIP3   OH247445   5.274   5.525   0.298 -0.2169 -0.7927 -0.5777
 8677TIP3    H147446   5.272   5.444   0.249  0.0070 -0.9375 -0.3515
 8677TIP3    H247447   5.362   5.560   0.283 -0.6836 -0.0126 -1.5994
 8678TIP3   OH247448   4.334   3.215  15.867  0.6207 -0.8319  0.0609
 8678TIP3    H147449   4.300   3.288  15.816 -1.5388 -1.1669  0.9183
 8678TIP3    H247450   4.428   3.217  15.851  0.8126  2.7209  0.8357
 8679TIP3   OH247451   2.156   5.163  16.709 -0.2033 -0.3180 -0.1288
 8679TIP3    H147452   2.193   5.250  16.691 -0.3954  0.1279  1.4592
 8679TIP3    H247453   2.082   5.181  16.767 -1.3179 -1.4221 -1.1625
 8680TIP3   OH247454   0.389   3.429  12.797  0.4656  0.2575 -0.7672
 8680TIP3    H147455   0.363   3.374  12.723  1.2191  0.8457 -1.4888
 8680TIP3    H247456   0.334   3.507  12.789  0.5896  0.3474 -0.7570
 8681TIP3   OH247457   3.026   4.995   2.329 -0.0204 -0.5607 -0.0930
 8681TIP3    H147458   3.086   4.960   2.395  1.2651 -1.0530 -1.4636
 8681TIP3    H247459   2.941   5.000   2.374  0.8667 -0.5918  1.6606
 8682TIP3   OH247460   4.081   2.615  11.815 -0.6647 -0.0016  0.6151
 8682TIP3    H147461   4.005   2.563  11.790 -1.0148  1.5927 -1.9843
 8682TIP3    H247462   4.108   2.658  11.734  2.4815  0.2031  1.6383
 8683TIP3   OH247463   3.639   1.928   5.198  0.4253  0.5577 -0.1021
 8683TIP3    H147464   3.721   1.976   5.181  0.1504  1.0574 -0.0390
 8683TIP3    H247465   3.598   1.977   5.270  1.4931 -1.4032  1.9529
 8684TIP3   OH247466   4.395   1.312  15.170 -0.2821 -0.3442 -0.1879
 8684TIP3    H147467   4.302   1.332  15.159  0.0683  1.1108 -0.6756
 8684TIP3    H247468   4.408   1.315  15.265 -0.0832  2.9375 -0.1905
 8685TIP3   OH247469   0.880   1.727  12.656 -0.1476 -0.9811  0.0863
 8685TIP3    H147470   0.881   1.649  12.712  0.8599 -2.2272 -1.5567
 8685TIP3    H247471   0.930   1.792  12.705 -0.0499 -1.7348  1.0225
 8686TIP3   OH247472   1.239   3.907  12.750 -0.1720 -0.1248 -0.1308
 8686TIP3    H147473   1.296   3.954  12.810  0.8682  1.6034 -2.3143
 8686TIP3    H247474   1.152   3.915  12.788  0.5170  0.4952  1.3753
 8687TIP3   OH247475   3.862   6.017   5.978 -0.1677  0.1353  0.1280
 8687TIP3    H147476   3.819   5.969   6.049  1.5788  0.5004  1.5069
 8687TIP3    H247477   3.955   6.012   6.000  0.3877  0.5347 -1.9983
 8688TIP3   OH247478   2.044   3.286  11.913 -0.4441  0.2432  0.3552
 8688TIP3    H147479   2.114   3.350  11.899 -2.3148  1.8831 -2.9269
 8688TIP3    H247480   1.991   3.323  11.984  0.4414  0.5084  0.8793
 8689TIP3   OH247481   1.548   3.980   5.760 -0.3845  0.4064 -0.7280
 8689TIP3    H147482   1.609   4.021   5.820 -0.3437  1.9958 -1.8010
 8689TIP3    H247483   1.466   4.028   5.773 -0.9534 -0.6024 -0.4937
 8690TIP3   OH247484   4.000   0.462  11.408  0.4105  0.3245 -0.0954
 8690TIP3    H147485   4.038   0.518  11.475 -1.8114 -0.4465  1.9711
 8690TIP3    H247486   3.928   0.514  11.371  0.8404  0.2710 -1.0527
 8691TIP3   OH247487   0.408   4.976  13.155 -0.2201 -0.4363  0.6561
 8691TIP3    H147488   0.390   5.069  13.172 -0.6476 -0.2905 -0.5142
 8691TIP3    H247489   0.347   4.952  13.085  0.0225 -1.5547  0.8093
 8692TIP3   OH247490   3.892   3.537   5.819 -0.3980 -0.0067 -0.0173
 8692TIP3    H147491   3.798   3.542   5.800 -0.1789 -0.2807 -1.2780
 8692TIP3    H247492   3.912   3.443   5.815 -0.0722  0.0501  0.2497
 8693TIP3   OH247493   6.016   4.341   5.145  0.4082 -0.9466  0.2498
 8693TIP3    H147494   5.994   4.367   5.235  1.9424 -0.3462  0.4888
 8693TIP3    H247495   6.047   4.422   5.104  0.7417 -1.4348 -0.4780
 8694TIP3   OH247496   0.426   5.444  13.532 -0.0018  0.0806  0.2440
 8694TIP3    H147497   0.466   5.496  13.462  0.4815  1.1097  1.2570
 8694TIP3    H247498   0.499   5.394  13.569 -0.2451 -0.4149  0.0657
 8695TIP3   OH247499   1.659   0.775  11.458  0.2064  0.0335  0.2501
 8695TIP3    H147500   1.723   0.847  11.454  0.2863 -0.0932 -1.2437
 8695TIP3    H247501   1.710   0.696  11.440 -0.4615  0.0203 -1.8609
 8696TIP3   OH247502   1.618   3.862   4.563 -0.0518 -0.6026  0.2370
 8696TIP3    H147503   1.672   3.833   4.489  0.9203 -0.4332  0.8548
 8696TIP3    H247504   1.575   3.942   4.532  1.0646 -0.0170  0.1436
 8697TIP3   OH247505   5.744   3.082   4.443 -0.9118 -0.7528 -0.0914
 8697TIP3    H147506   5.782   2.998   4.416 -0.0418 -0.6157  0.6794
 8697TIP3    H247507   5.807   3.118   4.505 -1.9502 -0.1678  0.6385
 8698TIP3   OH247508   1.315   0.843   0.245  0.0238  0.4045  0.1422
 8698TIP3    H147509   1.308   0.860   0.152  1.5870  1.4266  0.1710
 8698TIP3    H247510   1.372   0.766   0.251  0.4103  0.6963  0.2596
 8699TIP3   OH247511   2.487   0.078   2.454 -0.4537 -0.9801  0.2132
 8699TIP3    H147512   2.457   0.140   2.521  0.0291 -0.5974  0.0846
 8699TIP3    H247513   2.534   0.011   2.502  0.3799 -0.4092  0.2191
 8700TIP3   OH247514   5.582   1.493  12.976 -0.0694  0.3007 -0.3449
 8700TIP3    H147515   5.620   1.478  12.890 -0.1746  1.8778 -0.6890
 8700TIP3    H247516   5.652   1.531  13.028 -0.6934  1.7105 -0.5014
 8701TIP3   OH247517   5.836   3.167  11.723  0.0291 -0.1743  0.2189
 8701TIP3    H147518   5.876   3.124  11.798 -0.4847 -0.4263  0.3537
 8701TIP3    H247519   5.910   3.196  11.669  0.3998 -0.0906  0.7617
 8702TIP3   OH247520   2.447   0.580   1.677 -0.4199  0.0379  0.8765
 8702TIP3    H147521   2.458   0.659   1.730 -0.1393 -0.9236  2.3229
 8702TIP3    H247522   2.493   0.512   1.726  0.6751 -0.7207 -1.1126
 8703TIP3   OH247523   2.716   3.186   4.481 -0.1961 -0.3890  0.5004
 8703TIP3    H147524   2.712   3.092   4.502 -2.0270 -0.4935 -0.1072
 8703TIP3    H247525   2.705   3.230   4.566  2.2689 -0.6486  1.0288
 8704TIP3   OH247526   4.254   0.996  16.925 -0.3174  0.0756 -0.3823
 8704TIP3    H147527   4.272   1.087  16.949  0.0757  0.3390 -1.5901
 8704TIP3    H247528   4.277   0.991  16.832  1.4026 -1.7086  0.0744
 8705TIP3   OH247529   5.497   6.602   1.649  0.0173  0.1570 -0.6302
 8705TIP3    H147530   5.411   6.642   1.657  0.2683  0.8182 -1.1536
 8705TIP3    H247531   5.520   6.577   1.739 -0.9536 -0.5493 -0.5690
 8706TIP3   OH247532   5.611   1.093   3.549 -0.4118  0.3175  0.0037
 8706TIP3    H147533   5.534   1.049   3.585 -1.3540  1.4218 -0.6194
 8706TIP3    H247534   5.683   1.063   3.605 -1.1970 -1.0781  0.3288
 8707TIP3   OH247535   6.160   6.453  11.808  0.1313  0.4844  0.3176
 8707TIP3    H147536   6.231   6.441  11.745 -0.0210  1.6224 -0.0925
 8707TIP3    H247537   6.205   6.474  11.890  0.4134 -2.5931  1.0787
 8708TIP3   OH247538   4.110   0.839   2.695  0.2838 -0.2362  0.0162
 8708TIP3    H147539   4.157   0.863   2.615 -0.7555  0.8675 -0.2918
 8708TIP3    H247540   4.068   0.756   2.674  1.9393 -1.1665  0.2492
 8709TIP3   OH247541   5.904   4.776   1.689  0.8846 -0.1713 -0.2985
 8709TIP3    H147542   5.812   4.801   1.700  0.4055 -1.3592 -1.3664
 8709TIP3    H247543   5.947   4.812   1.766 -0.6094 -0.2202  0.6116
 8710TIP3   OH247544   6.650   4.790   0.524 -0.0164  0.2184 -0.1436
 8710TIP3    H147545   6.596   4.862   0.556 -1.6369 -1.2856  0.6840
 8710TIP3    H247546   6.591   4.738   0.469  0.4013 -1.7082  1.1146
 8711TIP3   OH247547   5.684   6.079  16.918  0.2446 -0.0955 -0.5550
 8711TIP3    H147548   5.694   6.152  16.979 -0.3185  1.2799 -2.0696
 8711TIP3    H247549   5.598   6.043  16.939  0.2647  0.0479 -0.2140
 8712TIP3   OH247550   6.162   5.667   2.559  0.4336  0.3476 -0.2127
 8712TIP3    H147551   6.203   5.646   2.475  0.0419  0.9068 -0.5532
 8712TIP3    H247552   6.142   5.582   2.598  0.7636  0.0839 -0.6148
 8713TIP3   OH247553   0.634   3.440  11.756 -0.3596  0.1849 -0.6594
 8713TIP3    H147554   0.619   3.479  11.843  0.0497 -0.0314 -0.4862
 8713TIP3    H247555   0.581   3.360  11.756  0.6409 -0.5016 -0.1053
 8714TIP3   OH247556   3.976   5.324   0.284 -0.0355  0.3509  0.0121
 8714TIP3    H147557   3.951   5.256   0.346  0.7956 -0.1522 -0.2002
 8714TIP3    H247558   4.055   5.363   0.322  1.2249 -0.7965 -1.3079
 8715TIP3   OH247559   5.506   0.440   0.872  0.5305  0.3128 -0.0671
 8715TIP3    H147560   5.487   0.381   0.945 -0.9914 -1.8332 -2.0457
 8715TIP3    H247561   5.429   0.497   0.868 -0.2713 -0.7715 -1.0137
 8716TIP3   OH247562   1.280   3.404   5.312  0.0936  0.2917 -0.3086
 8716TIP3    H147563   1.260   3.394   5.405 -0.0115  0.5499 -0.3029
 8716TIP3    H247564   1.197   3.430   5.272 -0.1057 -0.8137 -0.6408
 8717TIP3   OH247565   5.809   4.156  14.123  0.0691 -0.5401 -0.3792
 8717TIP3    H147566   5.807   4.251  14.118  1.8269 -0.4307  0.1525
 8717TIP3    H247567   5.791   4.136  14.215  0.6130 -0.6511 -0.2897
 8718TIP3   OH247568   1.675   4.098   0.432  0.0682 -0.2917  0.0097
 8718TIP3    H147569   1.769   4.080   0.420  0.2928  0.9772 -0.2922
 8718TIP3    H247570   1.650   4.046   0.508  1.0006 -0.6993  0.0550
 8719TIP3   OH247571   1.802   4.038  11.648  0.8086  0.0018  0.2127
 8719TIP3    H147572   1.828   3.990  11.726  1.0579  1.9367  1.3744
 8719TIP3    H247573   1.731   4.095  11.676 -2.2721 -2.3663 -2.0259
 8720TIP3   OH247574   5.486   6.679   3.827  0.0908  0.1460  0.1334
 8720TIP3    H147575   5.490   6.773   3.846  0.1184  0.3267 -0.6960
 8720TIP3    H247576   5.426   6.643   3.892 -1.0185  0.9841 -0.3994
 8721TIP3   OH247577   5.268   4.701   1.139  0.2867 -0.0127  0.9678
 8721TIP3    H147578   5.333   4.631   1.142  1.4068  1.0399  3.6913
 8721TIP3    H247579   5.310   4.771   1.088 -0.5438 -0.9261 -1.1020
 8722TIP3   OH247580   4.760   3.214   4.977 -0.0700 -0.2713  0.4001
 8722TIP3    H147581   4.828   3.236   4.914 -0.1573  1.8534  0.9840
 8722TIP3    H247582   4.685   3.187   4.923  0.6298 -0.9151 -0.2895
 8723TIP3   OH247583   1.235   4.011  11.882 -0.0830 -0.7469  0.1177
 8723TIP3    H147584   1.167   3.969  11.831 -0.1801 -0.8416  0.3227
 8723TIP3    H247585   1.271   4.079  11.824 -0.7492 -0.3006  0.2135
 8724TIP3   OH247586   1.835   3.123  12.281  0.2638  0.3928 -0.0632
 8724TIP3    H147587   1.856   3.169  12.362 -2.7096 -0.2993  1.2501
 8724TIP3    H247588   1.851   3.187  12.212  3.2175  0.8929  0.9332
 8725TIP3   OH247589   5.924   2.592  14.365 -0.0308 -0.4420 -0.1316
 8725TIP3    H147590   5.940   2.616  14.274  0.7674 -0.1818  0.0744
 8725TIP3    H247591   5.849   2.532  14.360 -0.1347 -0.2658 -0.9347
 8726TIP3   OH247592   5.014   0.085  12.001  0.3371 -0.4869  0.6961
 8726TIP3    H147593   5.020   0.001  11.955  1.6997  0.4757 -0.9969
 8726TIP3    H247594   4.920   0.096  12.017 -0.3169 -0.7241 -2.2786
 8727TIP3   OH247595   4.296   3.765   3.889 -0.0899 -0.1455  0.0579
 8727TIP3    H147596   4.369   3.727   3.840  0.8123 -0.2847  1.4417
 8727TIP3    H247597   4.274   3.699   3.955 -0.4516  0.5274  0.6301
 8728TIP3   OH247598   6.487   6.756   1.837  0.3528 -0.1073  0.2211
 8728TIP3    H147599   6.444   6.682   1.794  1.8439  0.5967 -2.7700
 8728TIP3    H247600   6.580   6.731   1.841  0.9591  1.6874 -1.2472
 8729TIP3   OH247601   2.051   0.601  11.818  0.1387 -0.0237  0.4139
 8729TIP3    H147602   2.052   0.559  11.732  1.9342  1.1278 -0.1773
 8729TIP3    H247603   1.976   0.562  11.863 -0.3408 -1.2549 -1.3618
 8730TIP3   OH247604   3.285   0.032   5.811  0.6466  0.3260  0.1396
 8730TIP3    H147605   3.352  -0.023   5.850 -1.3967 -1.2065  1.7181
 8730TIP3    H247606   3.230  -0.029   5.761  0.0975  1.4400 -0.6777
 8731TIP3   OH247607   1.374   2.821  15.228 -0.0421  0.1527  0.3375
 8731TIP3    H147608   1.451   2.875  15.247 -1.1696  1.4999  1.2489
 8731TIP3    H247609   1.376   2.811  15.132  0.4000  1.5193  0.1837
 8732TIP3   OH247610   3.610   4.115   6.127  0.6276  0.0125  0.0645
 8732TIP3    H147611   3.545   4.163   6.178  0.0795 -0.0211 -0.5818
 8732TIP3    H247612   3.577   4.025   6.125  0.9757 -0.1177  0.1925
 8733TIP3   OH247613   5.641   4.177   4.891  0.6321  0.0637  0.3237
 8733TIP3    H147614   5.716   4.174   4.950  1.2294 -1.1345 -0.4388
 8733TIP3    H247615   5.678   4.204   4.806 -0.1633  1.5010  0.3994
 8734TIP3   OH247616   3.615   4.265   1.943 -0.6774  0.1566  0.0143
 8734TIP3    H147617   3.668   4.226   1.874 -0.3290 -0.3301  0.5495
 8734TIP3    H247618   3.638   4.358   1.941  1.5049 -0.2799  1.3394
 8735TIP3   OH247619   1.380   3.435  10.827  0.1664  0.1436 -0.2069
 8735TIP3    H147620   1.285   3.436  10.841  0.3124  1.6655  1.0505
 8735TIP3    H247621   1.404   3.343  10.824 -1.1248 -0.2861  1.4204
 8736TIP3   OH247622   0.978   2.617   3.039  0.0316  0.5278  0.3475
 8736TIP3    H147623   0.922   2.673   2.986 -0.0903  0.2069  0.1416
 8736TIP3    H247624   1.055   2.602   2.984 -0.6734 -0.9180 -0.3011
 8737TIP3   OH247625   3.638   1.998  13.417 -0.1493  0.4898 -0.3846
 8737TIP3    H147626   3.733   1.986  13.421  0.1600  2.8005  0.9438
 8737TIP3    H247627   3.626   2.067  13.352 -1.2207 -1.5537 -2.5375
 8738TIP3   OH247628   0.135   3.304  12.225 -0.5648 -0.4068 -0.1397
 8738TIP3    H147629   0.060   3.339  12.273 -0.3201  0.4929 -0.3830
 8738TIP3    H247630   0.110   3.214  12.203 -2.1595  0.2925 -1.4015
 8739TIP3   OH247631   3.648   4.010  10.794 -0.5771 -0.0407 -0.9251
 8739TIP3    H147632   3.581   3.973  10.736  0.1580 -0.3858 -1.5823
 8739TIP3    H247633   3.612   4.094  10.822 -0.2783  0.9403 -3.2267
 8740TIP3   OH247634   0.993   1.211  14.153 -0.4655  0.5977  0.0688
 8740TIP3    H147635   1.019   1.151  14.223 -2.3746 -1.0851 -0.5919
 8740TIP3    H247636   1.062   1.278  14.153  0.6674 -0.4608  2.1769
 8741TIP3   OH247637   2.766   4.536   6.179 -0.0072 -0.2880 -0.1098
 8741TIP3    H147638   2.690   4.478   6.186 -0.8459  0.7306 -0.5947
 8741TIP3    H247639   2.743   4.597   6.109  0.3850  1.3340  1.1234
 8742TIP3   OH247640   4.146   2.542  16.641  0.4768  0.5001 -0.2734
 8742TIP3    H147641   4.239   2.540  16.664  0.5317 -3.1312 -0.1595
 8742TIP3    H247642   4.144   2.517  16.548 -0.3529  2.9292 -0.9859
 8743TIP3   OH247643   3.731   2.115   0.127  0.1896  0.1901 -0.1914
 8743TIP3    H147644   3.704   2.076   0.210  0.9253 -2.2198 -0.9716
 8743TIP3    H247645   3.732   2.041   0.066 -0.6477  1.9399 -2.4491
 8744TIP3   OH247646   6.379   0.680  16.420 -0.0368 -0.0360 -0.7850
 8744TIP3    H147647   6.430   0.742  16.368 -0.2881  1.4219  0.6327
 8744TIP3    H247648   6.292   0.681  16.381  0.0416  0.2891 -0.9519
 8745TIP3   OH247649   6.238   6.618   1.012  0.3652  0.6934 -0.1244
 8745TIP3    H147650   6.229   6.705   0.974 -3.8011 -0.6639 -3.0289
 8745TIP3    H247651   6.155   6.603   1.058  1.0082 -1.6735  0.4287
 8746TIP3   OH247652   4.360   5.102   0.053  0.1959  0.1412 -0.6934
 8746TIP3    H147653   4.410   5.022   0.068  1.1093  0.8542  0.1564
 8746TIP3    H247654   4.313   5.086  -0.029 -0.2792 -1.5712 -0.1324
 8747TIP3   OH247655   4.303   6.189  16.932 -0.5990  0.2486  0.6081
 8747TIP3    H147656   4.290   6.271  16.885 -0.8546  0.2931  0.7521
 8747TIP3    H247657   4.397   6.172  16.925 -0.6497  0.2108  0.0146
 8748TIP3   OH247658   4.467   2.393  12.654  0.5685 -0.8143 -0.0488
 8748TIP3    H147659   4.440   2.436  12.735 -1.1894 -3.8580  1.1580
 8748TIP3    H247660   4.558   2.368  12.669  1.6224  2.1313 -0.7608
 8749TIP3   OH247661   0.922   6.741   3.321  0.8187 -0.2532  0.6591
 8749TIP3    H147662   0.963   6.740   3.407  0.6412  0.7828  0.7584
 8749TIP3    H247663   0.911   6.648   3.299 -0.2538 -0.5509  2.2796
 8750TIP3   OH247664   1.708   1.724   3.701  0.2557  0.4509 -0.0966
 8750TIP3    H147665   1.653   1.688   3.770 -0.8973 -1.8053 -2.0407
 8750TIP3    H247666   1.794   1.736   3.742 -0.5975  0.0031  1.9166
 8751TIP3   OH247667   4.371   2.097   3.054 -0.5005 -0.0790  0.0786
 8751TIP3    H147668   4.447   2.137   3.096  0.5566 -2.0357  0.1899
 8751TIP3    H247669   4.397   2.087   2.962 -1.2466  0.6358 -0.2180
 8752TIP3   OH247670   3.638   5.219   3.502  0.4984  0.0275 -0.8698
 8752TIP3    H147671   3.681   5.247   3.583  1.0532  1.3907 -1.5892
 8752TIP3    H247672   3.629   5.124   3.510  0.6748  0.1196  0.7094
 8753TIP3   OH247673   6.133   1.104  13.243 -0.2544  0.0313 -0.5994
 8753TIP3    H147674   6.090   1.108  13.158 -0.7281 -0.3309 -0.3827
 8753TIP3    H247675   6.085   1.168  13.297  1.6671  2.1944 -1.2921
 8754TIP3   OH247676   0.015   4.458  14.923 -0.2095 -0.1549 -0.5052
 8754TIP3    H147677  -0.026   4.513  14.990  0.8846 -0.0706  0.1149
 8754TIP3    H247678   0.047   4.520  14.858 -2.4631 -0.2927 -1.8694
 8755TIP3   OH247679   0.717   1.014  15.259 -0.0622  0.5130 -0.1801
 8755TIP3    H147680   0.749   0.928  15.232 -0.2175  0.3597  0.1131
 8755TIP3    H247681   0.773   1.076  15.214  0.3973  0.2526  0.0297
 8756TIP3   OH247682   2.040   0.837  16.975  0.1212 -0.0832 -0.3144
 8756TIP3    H147683   1.988   0.759  16.993 -0.1454  0.3396  0.8324
 8756TIP3    H247684   2.032   0.890  17.054  1.6166  0.3814 -0.4430
 8757TIP3   OH247685   1.350   2.030   0.028 -0.3534 -0.4885 -0.0280
 8757TIP3    H147686   1.421   2.072   0.076  0.6868 -1.7484 -0.4031
 8757TIP3    H247687   1.291   1.998   0.096 -1.3988  1.8700  0.2611
 8758TIP3   OH247688   4.630   3.246   3.056 -0.2784  0.8824  0.8496
 8758TIP3    H147689   4.707   3.214   3.009 -0.0635  2.8404 -0.2211
 8758TIP3    H247690   4.607   3.175   3.115  1.5022 -0.3065  0.1873
 8759TIP3   OH247691   3.020   1.269   5.390  0.5577  0.0524 -0.1595
 8759TIP3    H147692   3.030   1.363   5.407 -1.4010  0.0570  1.3410
 8759TIP3    H247693   2.951   1.263   5.325  0.4853 -0.3469 -0.0522
 8760TIP3   OH247694   0.550   5.201   3.684  0.5809  0.2799  0.3472
 8760TIP3    H147695   0.525   5.293   3.691  2.1506  0.6574  1.8578
 8760TIP3    H247696   0.629   5.202   3.630  0.3263 -0.2540 -0.0420
 8761TIP3   OH247697   4.008   4.041  14.817  0.3929  0.2067 -0.1143
 8761TIP3    H147698   3.930   3.998  14.854  1.4019 -0.3542  1.4511
 8761TIP3    H247699   4.025   4.114  14.876  1.3298  0.0237 -0.1483
 8762TIP3   OH247700   2.032   1.277   5.072 -0.2813 -0.0025 -0.2110
 8762TIP3    H147701   1.984   1.280   4.989  0.5975 -0.6942 -0.7677
 8762TIP3    H247702   2.018   1.363   5.112 -3.0195 -0.5812  0.2743
 8763TIP3   OH247703   1.246   6.328  13.917  0.4065  0.0402 -0.2206
 8763TIP3    H147704   1.186   6.340  13.843  1.1427 -0.7054 -0.9665
 8763TIP3    H247705   1.305   6.403  13.911  1.2067 -0.6260 -1.1516
 8764TIP3   OH247706   2.127   5.369  13.795  0.7541 -0.1375  0.6561
 8764TIP3    H147707   2.118   5.463  13.812  1.1370  0.2388 -1.0842
 8764TIP3    H247708   2.121   5.329  13.882  0.2089  1.4547  1.3987
 8765TIP3   OH247709   2.656   1.896   5.708 -0.1175 -0.0067 -0.1704
 8765TIP3    H147710   2.750   1.888   5.728  0.0854 -0.6064 -1.2833
 8765TIP3    H247711   2.613   1.838   5.770  0.1443  1.0791  1.0568
 8766TIP3   OH247712   3.068   6.500   2.734  0.0854 -0.2985 -0.2383
 8766TIP3    H147713   3.069   6.432   2.802 -1.2692  0.6970  0.8322
 8766TIP3    H247714   3.152   6.491   2.690  0.9413 -1.0944  1.4623
 8767TIP3   OH247715   1.357   1.857   5.012 -0.3264  0.2179  0.0350
 8767TIP3    H147716   1.268   1.874   4.980  0.3473  1.0858 -1.5399
 8767TIP3    H247717   1.409   1.928   4.974  1.0195 -0.1921  1.0453
 8768TIP3   OH247718   0.380   0.266   5.624 -0.4864  0.4605 -0.2457
 8768TIP3    H147719   0.331   0.323   5.565  1.0453  0.9596 -1.1072
 8768TIP3    H247720   0.433   0.327   5.677 -0.8537 -0.0534  0.7418
 8769TIP3   OH247721   6.688   5.670  14.931  0.7465  0.7022 -0.0934
 8769TIP3    H147722   6.640   5.727  14.872  1.2067  0.4076 -0.7641
 8769TIP3    H247723   6.749   5.728  14.976 -0.6460  1.1991  1.2589
 8770TIP3   OH247724   1.232   6.122  15.923  0.2949 -0.6924  0.2742
 8770TIP3    H147725   1.317   6.126  15.879  0.0423  0.7762 -0.1351
 8770TIP3    H247726   1.168   6.122  15.852 -0.0748 -0.5918  0.6040
 8771TIP3   OH247727   2.429   4.463  14.329 -0.2747  0.1944 -0.5874
 8771TIP3    H147728   2.525   4.457  14.324 -0.3597 -1.0252 -1.3558
 8771TIP3    H247729   2.400   4.372  14.337 -1.3273  0.6268  0.8695
 8772TIP3   OH247730   0.559   0.460   2.128  0.4242 -0.0461  0.6692
 8772TIP3    H147731   0.504   0.469   2.049  0.7228  0.5132  0.5266
 8772TIP3    H247732   0.607   0.379   2.113  0.0686 -0.2385  0.5310
 8773TIP3   OH247733   2.699   4.113   4.443 -0.1224  0.7861  0.1862
 8773TIP3    H147734   2.773   4.169   4.463 -0.9589  0.7675  4.1489
 8773TIP3    H247735   2.705   4.041   4.507 -0.6959 -2.1840 -2.7838
 8774TIP3   OH247736   1.982   6.691  10.580  0.5703  0.4841 -0.2210
 8774TIP3    H147737   2.051   6.711  10.644  1.5355 -2.7545 -0.0657
 8774TIP3    H247738   1.997   6.599  10.557 -3.0553 -0.0382 -1.0573
 8775TIP3   OH247739   0.512   5.245  16.866  0.1742  0.6101 -0.0199
 8775TIP3    H147740   0.546   5.190  16.937  1.7479  0.7667 -0.6164
 8775TIP3    H247741   0.473   5.182  16.804  1.6687  0.1454 -0.5396
 8776TIP3   OH247742   3.045   2.301   5.466 -0.3112 -0.7601  0.7507
 8776TIP3    H147743   3.032   2.220   5.514  1.5811 -0.8143  1.2501
 8776TIP3    H247744   3.109   2.279   5.398  2.1153  0.7661  2.3802
 8777TIP3   OH247745   4.592   5.011  13.588  0.0132 -0.2129 -0.0789
 8777TIP3    H147746   4.517   5.070  13.588  0.5004  0.4821  2.0820
 8777TIP3    H247747   4.666   5.066  13.613  0.7696 -1.4085  0.3846
 8778TIP3   OH247748   5.458   5.236   1.436  0.3269  0.4174 -0.2762
 8778TIP3    H147749   5.406   5.220   1.515 -1.0889  0.0031 -1.2598
 8778TIP3    H247750   5.543   5.264   1.469 -0.1421 -0.0241  1.4011
 8779TIP3   OH247751   2.375   3.853  16.410 -0.3287  0.1542 -0.0103
 8779TIP3    H147752   2.371   3.760  16.428 -0.8183  0.3722  1.0614
 8779TIP3    H247753   2.373   3.859  16.314 -0.0744 -0.9331 -0.0895
 8780TIP3   OH247754   5.138   0.168   0.732  0.8469  0.0537  0.1246
 8780TIP3    H147755   5.146   0.192   0.824  1.5899 -0.4209  0.1929
 8780TIP3    H247756   5.223   0.191   0.694  0.4163  0.6044 -0.5302
 8781TIP3   OH247757   2.589   1.042  16.201  0.0952 -0.6442  0.0101
 8781TIP3    H147758   2.538   0.984  16.143  2.3284 -1.4850 -1.2582
 8781TIP3    H247759   2.577   1.004  16.288 -0.6995 -1.3580 -0.3856
 8782TIP3   OH247760   5.215   6.034   5.165 -0.6058 -0.2594  0.7676
 8782TIP3    H147761   5.158   5.972   5.119 -0.3467 -0.3312  0.5403
 8782TIP3    H247762   5.213   6.006   5.256 -1.3731  0.0702  0.8645
 8783TIP3   OH247763   6.199   5.300  11.887  0.4031 -0.1811 -0.1338
 8783TIP3    H147764   6.215   5.340  11.802 -0.6787 -0.8368 -0.6718
 8783TIP3    H247765   6.242   5.358  11.950 -1.9862  2.4848 -0.7654
 8784TIP3   OH247766   4.816   4.941   3.246 -0.0842  0.4354 -0.4043
 8784TIP3    H147767   4.756   4.934   3.321  1.2011 -0.2740  0.6021
 8784TIP3    H247768   4.901   4.959   3.285  0.3057  1.9720 -1.8374
 8785TIP3   OH247769   4.126   0.329  13.262 -0.2153 -0.1513 -0.3881
 8785TIP3    H147770   4.141   0.283  13.179 -0.9827 -1.7556  0.3282
 8785TIP3    H247771   4.186   0.288  13.323 -0.3296  0.3745  0.0800
 8786TIP3   OH247772   5.165   1.038  12.677  0.0375 -0.0671 -0.6608
 8786TIP3    H147773   5.220   1.077  12.609 -0.2662 -0.4823 -1.1527
 8786TIP3    H247774   5.187   0.945  12.675  0.0986 -0.0669 -0.1171
 8787TIP3   OH247775   0.821   3.706   6.436  0.6011  0.2302 -0.0598
 8787TIP3    H147776   0.877   3.631   6.413  0.9430  0.9264 -1.6459
 8787TIP3    H247777   0.732   3.674   6.424  0.7318 -0.0801 -0.2218
 8788TIP3   OH247778   5.196   3.508   2.826  0.3133 -0.1124 -0.0473
 8788TIP3    H147779   5.209   3.561   2.747 -0.4043  0.6132  0.3006
 8788TIP3    H247780   5.180   3.420   2.793 -0.2547  0.2391 -0.7401
 8789TIP3   OH247781   5.757   4.750  15.548 -0.0413  0.2062 -0.2194
 8789TIP3    H147782   5.668   4.780  15.530 -0.5156 -1.5871 -1.1064
 8789TIP3    H247783   5.779   4.693  15.474  1.0601 -0.9961  0.9615
 8790TIP3   OH247784   5.119   2.586   2.666  0.2634  0.0197 -0.7786
 8790TIP3    H147785   5.082   2.543   2.743 -0.8308  0.4072 -1.0764
 8790TIP3    H247786   5.119   2.679   2.688  0.9955  0.0371 -0.8203
 8791TIP3   OH247787   1.461   4.385   4.320  0.0388  0.6295  0.1739
 8791TIP3    H147788   1.394   4.444   4.284 -1.1293  1.0907  2.8341
 8791TIP3    H247789   1.540   4.439   4.324  0.5591  0.2273 -2.5546
 8792TIP3   OH247790   6.100   0.898   4.255 -0.1155 -0.7237  0.2515
 8792TIP3    H147791   6.074   0.970   4.197  1.7026 -0.0749  0.1505
 8792TIP3    H247792   6.099   0.821   4.198  1.3821 -0.1406 -0.6355
 8793TIP3   OH247793   0.090   5.562  15.446 -0.1656  0.4474  0.6225
 8793TIP3    H147794   0.076   5.546  15.540 -0.2255  1.4337  0.7910
 8793TIP3    H247795   0.109   5.476  15.410  0.1115  0.0876  1.5933
 8794TIP3   OH247796   0.345   3.474  10.872 -0.1648  0.5602  0.3798
 8794TIP3    H147797   0.266   3.525  10.858  1.2395  2.8795  0.4593
 8794TIP3    H247798   0.417   3.535  10.855  1.6334 -1.4913  0.1703
 8795TIP3   OH247799   5.609   3.922  12.309  0.2953 -0.0542 -0.0735
 8795TIP3    H147800   5.604   3.902  12.216 -0.5171  0.5438 -0.1698
 8795TIP3    H247801   5.550   3.859  12.351  2.6922 -2.1570  0.3863
 8796TIP3   OH247802   3.906   6.218  12.999  0.0999 -0.6425 -0.0178
 8796TIP3    H147803   3.932   6.182  13.084  0.6248  1.1664  0.6410
 8796TIP3    H247804   3.975   6.281  12.978 -1.7614  1.4587 -0.1146
 8797TIP3   OH247805   4.570   6.692   5.602 -0.2566 -0.3054  0.3798
 8797TIP3    H147806   4.624   6.699   5.680 -0.8755  2.7176  0.6747
 8797TIP3    H247807   4.486   6.659   5.633 -0.3175  0.3406  0.9210
 8798TIP3   OH247808   1.859   4.905   0.674  0.1971  0.2140 -0.2002
 8798TIP3    H147809   1.766   4.925   0.668 -0.1085 -0.9413  0.3098
 8798TIP3    H247810   1.876   4.901   0.768  0.5171 -0.5613 -0.2819
 8799TIP3   OH247811   2.951   3.343  12.012 -0.0195 -0.0623  0.3723
 8799TIP3    H147812   2.980   3.252  12.020 -0.1298 -0.1048  0.2843
 8799TIP3    H247813   2.861   3.337  11.981 -0.2154  0.0656  0.9056
 8800TIP3   OH247814   5.048   6.663   5.809  0.1418 -0.0904  0.1801
 8800TIP3    H147815   5.141   6.671   5.788 -0.1527  0.3688 -1.0228
 8800TIP3    H247816   5.046   6.651   5.904  1.4092  0.1186  0.2534
 8801TIP3   OH247817   1.046   0.231   4.060 -0.0835 -0.2122  0.9235
 8801TIP3    H147818   1.043   0.327   4.055 -0.7157 -0.2560  0.3363
 8801TIP3    H247819   0.964   0.202   4.020 -0.0426 -0.9950  1.3751
 8802TIP3   OH247820   0.223   2.178  13.161 -0.0786 -0.4328  0.4890
 8802TIP3    H147821   0.213   2.117  13.233  0.4577 -1.1431 -0.0259
 8802TIP3    H247822   0.318   2.184  13.148 -0.1964 -1.8871 -1.4530
 8803TIP3   OH247823   3.490   6.096   0.202 -0.5819 -0.3476  0.3305
 8803TIP3    H147824   3.437   6.098   0.121  0.4761 -1.3883 -0.4174
 8803TIP3    H247825   3.566   6.150   0.181  0.5724 -2.0719 -0.0215
 8804TIP3   OH247826   0.605   5.689   6.583 -0.4111  0.0048  0.2143
 8804TIP3    H147827   0.662   5.748   6.534 -0.5016 -1.3490 -1.6316
 8804TIP3    H247828   0.527   5.681   6.528 -1.1447 -0.4419  1.2972
 8805TIP3   OH247829   6.355   6.574  12.172  0.1558 -0.5546  0.2155
 8805TIP3    H147830   6.425   6.526  12.128  0.3037  0.1803 -0.3757
 8805TIP3    H247831   6.391   6.661  12.186 -0.9828  0.1477 -1.0124
 8806TIP3   OH247832   3.342   6.338  11.886 -0.3502  0.5858  0.6763
 8806TIP3    H147833   3.437   6.344  11.893 -0.3569  1.9076 -0.1293
 8806TIP3    H247834   3.314   6.309  11.973  0.9132 -1.9553  0.3178
 8807TIP3   OH247835   0.499   0.466  13.072 -0.0081 -0.5137 -0.4218
 8807TIP3    H147836   0.577   0.493  13.119  0.2699  1.5240 -1.9349
 8807TIP3    H247837   0.430   0.525  13.103 -0.1743 -0.1680 -1.3952
 8808TIP3   OH247838   5.190   2.124   4.093  0.1672 -0.5827  0.1001
 8808TIP3    H147839   5.191   2.204   4.145  0.2045 -0.9237  0.6259
 8808TIP3    H247840   5.214   2.055   4.154 -0.4858 -1.0885 -0.2037
 8809TIP3   OH247841   6.662   5.306   1.962  0.0694 -0.0318 -0.1163
 8809TIP3    H147842   6.745   5.276   1.924  0.4004  2.0017 -1.1723
 8809TIP3    H247843   6.605   5.230   1.958  2.2480 -1.9311  1.9636
 8810TIP3   OH247844   6.202   1.184  13.982  0.7048  0.2697  0.5204
 8810TIP3    H147845   6.182   1.276  13.966  0.0643  0.5270  2.4946
 8810TIP3    H247846   6.286   1.185  14.028  0.2835 -0.0458  1.3190
 8811TIP3   OH247847   4.203   4.247   5.164 -0.0030 -0.0183  0.0342
 8811TIP3    H147848   4.196   4.173   5.224 -0.2836  0.0709  0.1116
 8811TIP3    H247849   4.115   4.259   5.129 -0.0220  0.4460  0.2275
 8812TIP3   OH247850   1.299   4.957   4.341 -0.2146 -0.5694  0.2321
 8812TIP3    H147851   1.380   4.932   4.387 -0.3934  1.4024  1.7565
 8812TIP3    H247852   1.241   4.882   4.352  1.2276 -1.8335 -0.4898
 8813TIP3   OH247853   2.119   4.948  16.958  0.4293  0.1648 -0.4852
 8813TIP3    H147854   2.089   5.029  16.916  0.6848  0.9323  0.7546
 8813TIP3    H247855   2.065   4.941  17.036  1.2000 -0.2506  0.0138
 8814TIP3   OH247856   3.833   2.437  12.588  0.0478 -0.0986  0.4707
 8814TIP3    H147857   3.745   2.439  12.627 -0.6905  0.2977 -1.1287
 8814TIP3    H247858   3.859   2.529  12.584  1.5612 -0.3332  3.0297
 8815TIP3   OH247859   4.971   3.120  13.402  0.4120  0.5977 -0.7384
 8815TIP3    H147860   5.002   3.067  13.329 -0.0506  0.3993 -0.7974
 8815TIP3    H247861   4.878   3.099  13.409  0.6615 -0.2464  0.6142
 8816TIP3   OH247862   4.014   5.926  16.008  0.7993 -0.3894  0.1148
 8816TIP3    H147863   3.967   5.945  16.090  0.0627  0.6686 -0.5233
 8816TIP3    H247864   4.092   5.879  16.036  0.7173  0.2105  1.4612
 8817TIP3   OH247865   5.492   2.388  11.573 -0.2567  0.3564 -0.0276
 8817TIP3    H147866   5.428   2.324  11.544 -0.5579 -0.1655  1.6789
 8817TIP3    H247867   5.518   2.434  11.493  0.9127 -2.6855 -1.5649
 8818TIP3   OH247868   6.038   3.635   4.682 -0.7723  0.3265 -0.3003
 8818TIP3    H147869   6.073   3.607   4.767 -0.4312  0.9770 -0.2188
 8818TIP3    H247870   6.096   3.594   4.618 -0.6241  0.3796 -0.2003
 8819TIP3   OH247871   0.641   5.973  15.671  0.1815  0.4504  0.5202
 8819TIP3    H147872   0.685   6.007  15.592 -0.3675 -1.5124 -0.7017
 8819TIP3    H247873   0.628   6.050  15.726  0.7097  1.8723 -1.2436
 8820TIP3   OH247874   5.010   2.336  15.435  0.4026 -0.4937 -0.1818
 8820TIP3    H147875   5.018   2.431  15.444  1.3495 -0.4646 -1.1375
 8820TIP3    H247876   5.034   2.302  15.522 -0.5006  0.1549  0.3314
 8821TIP3   OH247877   3.510   4.526   5.546 -0.0345 -0.1170 -0.3769
 8821TIP3    H147878   3.572   4.532   5.474  0.3055  2.0229  0.0429
 8821TIP3    H247879   3.468   4.612   5.550  0.9448  0.3757  2.7765
 8822TIP3   OH247880   1.910   5.568   4.084  0.1179 -0.3940  0.4957
 8822TIP3    H147881   1.901   5.619   4.004  2.4702  0.7247  0.8808
 8822TIP3    H247882   1.843   5.603   4.142 -0.2144  0.2492 -0.2518
 8823TIP3   OH247883   4.531   4.838   2.232 -0.7348 -0.1412 -0.2649
 8823TIP3    H147884   4.587   4.814   2.306  0.0058 -2.0987 -1.3671
 8823TIP3    H247885   4.552   4.930   2.215  0.5721 -0.2263  0.7034
 8824TIP3   OH247886   6.531   3.809   3.269  0.1541  0.2176 -0.0878
 8824TIP3    H147887   6.536   3.744   3.199 -0.9304 -0.1489  0.1614
 8824TIP3    H247888   6.453   3.786   3.318  0.6450  0.7534  0.9761
 8825TIP3   OH247889   5.313   0.851  15.562  0.1814 -0.1857  0.4324
 8825TIP3    H147890   5.402   0.884  15.575  0.0537  0.8935 -1.0997
 8825TIP3    H247891   5.319   0.796  15.484 -0.4059 -0.5162  0.6103
 8826TIP3   OH247892   4.846   1.587  15.952 -0.8089  0.3878  0.5897
 8826TIP3    H147893   4.937   1.565  15.931 -0.7855 -1.2059  2.1765
 8826TIP3    H247894   4.846   1.682  15.961  0.1185  0.6987 -1.9030
 8827TIP3   OH247895   5.696   4.315  15.397 -0.1164  0.2247  0.3793
 8827TIP3    H147896   5.626   4.343  15.456 -1.4831 -0.8702 -0.6602
 8827TIP3    H247897   5.724   4.395  15.353 -0.7417  0.6741  0.7860
 8828TIP3   OH247898   0.675   2.718  11.573  0.0530  0.2889 -0.0816
 8828TIP3    H147899   0.587   2.705  11.538 -0.0948  1.6863 -0.2984
 8828TIP3    H247900   0.661   2.764  11.656  0.4921 -1.3958  0.9677
 8829TIP3   OH247901   4.136   4.260  10.975  0.1393  0.3526  0.5710
 8829TIP3    H147902   4.146   4.279  10.881  0.3854  1.7890  0.8651
 8829TIP3    H247903   4.051   4.216  10.982 -0.5090  1.4351 -0.1802
 8830TIP3   OH247904   4.406   5.912   4.749 -0.0567 -0.2764  0.0923
 8830TIP3    H147905   4.386   5.885   4.659  0.5918  1.9580 -0.7973
 8830TIP3    H247906   4.501   5.921   4.751  0.1317 -2.0313  1.5938
 8831TIP3   OH247907   0.381   0.734  13.736  0.4598  0.7039  0.0388
 8831TIP3    H147908   0.400   0.649  13.775 -2.7792  0.0799  0.5690
 8831TIP3    H247909   0.438   0.740  13.659  0.4107 -2.1662 -0.3016
 8832TIP3   OH247910   4.973   2.272   1.112 -0.6058  0.5597 -0.3475
 8832TIP3    H147911   4.933   2.359   1.127 -2.7293 -0.0506 -1.9050
 8832TIP3    H247912   4.900   2.219   1.079  0.7885 -1.6764  0.0351
 8833TIP3   OH247913   0.960   3.658   3.394  0.0178 -0.5791 -0.6068
 8833TIP3    H147914   0.934   3.573   3.360 -0.1878 -0.6466 -0.2788
 8833TIP3    H247915   1.047   3.672   3.356  0.2905 -1.1840 -0.2170
 8834TIP3   OH247916   5.264   4.243  15.079 -0.3581  0.2742  0.0382
 8834TIP3    H147917   5.228   4.165  15.120 -0.8725 -0.0370 -0.9907
 8834TIP3    H247918   5.271   4.306  15.151 -3.0051  0.3820  0.3010
 8835TIP3   OH247919   0.114   4.497   2.490 -0.4047  0.0927  0.1447
 8835TIP3    H147920   0.075   4.428   2.435 -1.9514  0.2864  0.9428
 8835TIP3    H247921   0.125   4.456   2.575 -1.5678  0.8771  0.6937
 8836TIP3   OH247922   2.771   3.287  13.432  0.0545  0.0368  0.2316
 8836TIP3    H147923   2.785   3.356  13.367 -0.7973  0.0876  0.1018
 8836TIP3    H247924   2.820   3.212  13.397 -1.5049 -0.3708 -1.1880
 8837TIP3   OH247925   3.731   4.808  15.446 -0.2921  0.6261 -0.2233
 8837TIP3    H147926   3.826   4.797  15.434 -0.7124 -1.3334 -2.7435
 8837TIP3    H247927   3.694   4.724  15.418 -2.9032  2.0722 -1.4774
 8838TIP3   OH247928   5.095   2.124  15.576  0.2045 -0.3691  0.2030
 8838TIP3    H147929   5.026   2.131  15.642 -0.5333  0.8371 -0.6610
 8838TIP3    H247930   5.108   2.029  15.565 -0.9885 -0.6055  0.7183
 8839TIP3   OH247931   5.377   5.082  14.602  0.1000 -0.1153 -0.1642
 8839TIP3    H147932   5.339   5.169  14.620  1.6234  0.5621 -0.0853
 8839TIP3    H247933   5.469   5.100  14.584  0.6977 -1.8670  0.9816
 8840TIP3   OH247934   3.989   6.693  14.782  0.3627  0.4977  0.4107
 8840TIP3    H147935   4.008   6.606  14.818 -0.5868  0.4289  0.7855
 8840TIP3    H247936   3.905   6.682  14.737  1.0899  0.8000 -1.0843
 8841TIP3   OH247937   3.969   0.993  14.471  0.1145 -0.4256  0.5806
 8841TIP3    H147938   3.961   1.032  14.384  0.7649 -0.3928  0.5336
 8841TIP3    H247939   3.881   0.960  14.491  0.2722 -1.6778 -0.6686
 8842TIP3   OH247940   3.080   4.532  13.858  0.0125  0.1431  0.7977
 8842TIP3    H147941   3.074   4.468  13.787 -0.7259 -0.0415  1.0260
 8842TIP3    H247942   2.997   4.579  13.855  0.5200  1.0691  0.6636
 8843TIP3   OH247943   2.424   5.376  14.670 -0.3230  0.1994 -0.0754
 8843TIP3    H147944   2.385   5.350  14.587 -0.7163  1.8484 -0.4471
 8843TIP3    H247945   2.508   5.415  14.646 -0.4453  0.6951  0.2971
 8844TIP3   OH247946   0.674   0.171  15.119  0.8333  0.2145  0.2042
 8844TIP3    H147947   0.737   0.156  15.048  0.5793  0.1427 -0.0062
 8844TIP3    H247948   0.588   0.157  15.079  0.6313  1.2067  0.2654
 8845TIP3   OH247949   3.573   5.110   2.795 -0.1975  0.2697 -0.0688
 8845TIP3    H147950   3.578   5.078   2.705  1.0810  0.1820  0.0220
 8845TIP3    H247951   3.481   5.135   2.806  0.1511  3.3121 -2.4833
 8846TIP3   OH247952   2.144   0.244  16.252 -0.7588  0.0617 -0.4161
 8846TIP3    H147953   2.203   0.181  16.210  2.0359  1.9311  0.3767
 8846TIP3    H247954   2.182   0.257  16.338 -2.3344  1.4680  0.1037
 8847TIP3   OH247955   5.704   3.077  16.619  0.2305  0.1022  0.2301
 8847TIP3    H147956   5.701   3.098  16.712 -0.4618 -0.3286  0.3063
 8847TIP3    H247957   5.615   3.052  16.596  0.6855 -1.2656 -0.1970
 8848TIP3   OH247958   5.011   4.026   0.908  0.3711 -0.5915 -0.4125
 8848TIP3    H147959   4.987   4.119   0.913  1.6130 -0.2693 -0.1198
 8848TIP3    H247960   4.960   3.985   0.978  2.1358  0.4409  1.5940
 8849TIP3   OH247961   4.169   1.947  12.876  0.8661  0.2150 -0.0239
 8849TIP3    H147962   4.239   1.886  12.895  2.0176  1.5045  0.0258
 8849TIP3    H247963   4.091   1.892  12.863  1.8030 -1.2096  0.2492
 8850TIP3   OH247964   1.477   6.593   5.497  0.1270 -0.0438  0.1202
 8850TIP3    H147965   1.439   6.621   5.415 -0.9213 -0.2594  0.5150
 8850TIP3    H247966   1.545   6.657   5.516 -1.7226  1.8707  0.6473
 8851TIP3   OH247967   5.303   3.868  14.925  0.4442  0.6203 -0.0768
 8851TIP3    H147968   5.333   3.941  14.978 -0.7424  0.5059  0.8013
 8851TIP3    H247969   5.303   3.793  14.985  0.2905  0.2121 -0.5776
 8852TIP3   OH247970   6.512   4.943   5.891  0.1554 -0.0470 -0.0805
 8852TIP3    H147971   6.424   4.975   5.873  0.0020 -0.8197 -0.7334
 8852TIP3    H247972   6.569   5.007   5.849 -0.1610 -0.8100 -1.7458
 8853TIP3   OH247973   3.052   1.743   6.374  0.3111 -0.1005 -0.6284
 8853TIP3    H147974   3.124   1.776   6.427 -0.9295 -0.6974  1.5594
 8853TIP3    H247975   3.082   1.753   6.284  2.4271  1.2040  0.1440
 8854TIP3   OH247976   4.049   0.849   2.150  0.3595 -0.1444 -0.1222
 8854TIP3    H147977   4.043   0.899   2.069 -1.0453  1.5220  0.9222
 8854TIP3    H247978   4.009   0.906   2.216 -1.0523 -2.5087  1.2243
 8855TIP3   OH247979   3.129   0.014   1.467 -0.7184  0.0065 -0.4434
 8855TIP3    H147980   3.095   0.082   1.410 -1.8517  0.1003  0.3164
 8855TIP3    H247981   3.200   0.056   1.515 -1.4378  0.6728  0.0494
 8856TIP3   OH247982   6.000   0.322  14.838  0.1327  0.0862  0.2943
 8856TIP3    H147983   6.054   0.254  14.880  1.9042  0.1077 -1.7904
 8856TIP3    H247984   6.038   0.404  14.870  1.0992  0.0947 -0.7988
 8857TIP3   OH247985   2.112   0.897   5.042 -0.0748  0.0422 -0.0611
 8857TIP3    H147986   2.153   0.891   5.128 -0.8696  0.4056  0.3542
 8857TIP3    H247987   2.186   0.902   4.981  0.4981 -0.3231  0.5823
 8858TIP3   OH247988   5.527   5.887   4.249 -0.2958 -0.2219 -0.4165
 8858TIP3    H147989   5.501   5.821   4.313 -1.1960  0.6706  0.1696
 8858TIP3    H247990   5.539   5.838   4.167  0.8013 -1.3714  0.3915
 8859TIP3   OH247991   2.150   6.128  15.101 -0.2036 -0.4857 -0.6602
 8859TIP3    H147992   2.209   6.202  15.088  2.0570 -1.4769  2.5943
 8859TIP3    H247993   2.178   6.063  15.036 -0.9631  0.7498 -2.2787
 8860TIP3   OH247994   3.221   6.290   4.226  0.9641  0.2384 -0.3440
 8860TIP3    H147995   3.226   6.222   4.294  0.8679  0.4722 -0.1015
 8860TIP3    H247996   3.253   6.369   4.269 -0.1753  0.6560 -0.2251
 8861TIP3   OH247997   4.019   4.451   4.141 -0.0351  0.1809 -0.4328
 8861TIP3    H147998   3.990   4.467   4.231 -0.0262  1.2462 -0.6025
 8861TIP3    H247999   4.072   4.372   4.147  0.9940  0.9123  0.7282
 8862TIP3   OH248000   4.887   5.171  11.761  0.0808 -0.2041 -0.1810
 8862TIP3    H148001   4.932   5.192  11.843  1.9376  0.7953 -1.3851
 8862TIP3    H248002   4.837   5.250  11.740 -0.2668 -0.4001 -0.0922
 8863TIP3   OH248003   4.257   6.685  12.835 -0.6899  0.7729 -0.6277
 8863TIP3    H148004   4.313   6.702  12.759  1.0893  1.0705  0.7033
 8863TIP3    H248005   4.311   6.633  12.894 -0.8937  3.1494  1.8114
 8864TIP3   OH248006   4.110   0.838   0.966 -0.0181  0.5956  0.3632
 8864TIP3    H148007   4.139   0.753   0.998  0.9894 -0.1094 -2.1549
 8864TIP3    H248008   4.094   0.889   1.045  0.9571 -1.3918  1.9483
 8865TIP3   OH248009   4.319   1.743   0.600  0.5422  0.1671  0.1082
 8865TIP3    H148010   4.330   1.836   0.620 -1.0424  0.6085 -0.8654
 8865TIP3    H248011   4.317   1.701   0.686 -0.0046  1.2084  0.6280
 8866TIP3   OH248012   1.463   1.329  11.053  0.1720  0.4695 -0.1125
 8866TIP3    H148013   1.412   1.388  10.997  2.0230  2.1355 -0.1431
 8866TIP3    H248014   1.529   1.293  10.994  2.4170  2.5739  0.9738
 8867TIP3   OH248015   4.103   2.036  15.447  0.1275  0.1657 -0.8759
 8867TIP3    H148016   4.112   2.131  15.436 -1.6170  0.2616 -1.7640
 8867TIP3    H248017   4.049   2.008  15.373 -0.4686 -1.3322  0.0788
 8868TIP3   OH248018   5.123   6.246  15.300 -0.2934 -0.2904  0.5435
 8868TIP3    H148019   5.148   6.276  15.213 -1.2850 -0.5429  0.1595
 8868TIP3    H248020   5.186   6.288  15.359  0.7701 -0.6054 -0.3403
 8869TIP3   OH248021   1.183   6.590   3.174  0.2194  0.4975 -0.4820
 8869TIP3    H148022   1.242   6.601   3.249  0.4014 -1.6602 -0.2692
 8869TIP3    H248023   1.100   6.564   3.212 -0.3427  1.5581 -0.9257
 8870TIP3   OH248024   3.365   4.818   3.495 -0.0300 -0.0828 -0.7071
 8870TIP3    H148025   3.278   4.855   3.485  0.7732  2.2298  0.1019
 8870TIP3    H248026   3.356   4.750   3.562 -1.0584  0.7854  0.0576
 8871TIP3   OH248027   3.669   3.236   2.251 -0.0507 -0.0240 -0.1601
 8871TIP3    H148028   3.687   3.249   2.344  0.7393  0.8230 -0.4162
 8871TIP3    H248029   3.593   3.179   2.249  0.1780 -0.3953  1.0073
 8872TIP3   OH248030   2.738   6.209   5.899  0.0723  0.8379  0.5125
 8872TIP3    H148031   2.773   6.165   5.976 -0.1970  1.1213  0.8039
 8872TIP3    H248032   2.653   6.244   5.928 -0.4020  0.2529 -0.1472
 8873TIP3   OH248033   2.964   3.959  12.737 -0.1608  0.0710  0.2830
 8873TIP3    H148034   2.944   3.882  12.683  0.5954  0.0315  0.0440
 8873TIP3    H248035   2.982   4.029  12.673  0.1792  0.1701  0.4860
 8874TIP3   OH248036   5.956   3.410  13.854  0.1217 -0.1010 -0.1045
 8874TIP3    H148037   6.005   3.440  13.930 -1.1242  0.8940  0.3450
 8874TIP3    H248038   6.010   3.341  13.816  0.6020 -0.9041  1.9118
 8875TIP3   OH248039   2.497   6.098   1.226 -0.3113  0.3704 -0.7356
 8875TIP3    H148040   2.488   6.178   1.277 -2.6844 -0.3682  0.1310
 8875TIP3    H248041   2.415   6.051   1.240  0.3897 -1.5148 -2.4452
 8876TIP3   OH248042   4.258   5.018   4.760  0.4122 -0.1216 -0.2444
 8876TIP3    H148043   4.245   4.924   4.748  1.4850 -0.5330  1.4465
 8876TIP3    H248044   4.179   5.059   4.724  0.6092 -1.5299 -2.4526
 8877TIP3   OH248045   5.450   6.594   0.207 -0.4819 -0.8796  0.3692
 8877TIP3    H148046   5.418   6.680   0.235 -0.9969 -1.6032  2.1509
 8877TIP3    H248047   5.523   6.614   0.148 -1.6204  0.7737 -0.6034
 8878TIP3   OH248048   0.881   3.202  13.280  0.4453  0.5354  0.2408
 8878TIP3    H148049   0.818   3.259  13.325  1.5732  1.7116  0.3934
 8878TIP3    H248050   0.896   3.245  13.196  1.0354  0.2760  0.2078
 8879TIP3   OH248051   6.550   5.708  11.933 -0.5837  0.1800 -0.8515
 8879TIP3    H148052   6.568   5.790  11.888 -0.2036  1.1208  0.9383
 8879TIP3    H248053   6.535   5.733  12.024 -0.1405 -1.7597 -0.1963
 8880TIP3   OH248054   6.142   4.234   2.799 -0.1122 -0.2814  0.0671
 8880TIP3    H148055   6.082   4.170   2.837 -2.9883  1.4223 -1.2382
 8880TIP3    H248056   6.128   4.313   2.850  2.4899 -0.2353  0.8820
 8881TIP3   OH248057   1.946   2.845   5.015  1.0328  0.5560 -0.1221
 8881TIP3    H148058   1.982   2.928   5.045 -0.4892  0.9820  0.6188
 8881TIP3    H248059   1.859   2.866   4.983  1.4339 -0.4197 -1.9999
 8882TIP3   OH248060   1.994   4.656  14.881 -0.0998 -0.7495  0.2727
 8882TIP3    H148061   1.937   4.595  14.834  0.8125 -0.3950 -1.3841
 8882TIP3    H248062   2.081   4.618  14.874 -0.0916 -1.3978  2.9600
 8883TIP3   OH248063   5.315   5.195  10.803 -0.4451  0.4283  0.1798
 8883TIP3    H148064   5.398   5.223  10.763  0.3237 -1.3273  0.4776
 8883TIP3    H248065   5.290   5.117  10.753  0.0202 -1.2462  2.4113
 8884TIP3   OH248066   1.070   2.802   5.839 -0.2504  0.7158 -0.2103
 8884TIP3    H148067   1.025   2.883   5.862 -0.6845  0.0240  1.6067
 8884TIP3    H248068   1.004   2.734   5.853 -0.0198  0.0498 -2.0765
 8885TIP3   OH248069   5.832   4.255   2.323 -0.4750  0.2733  0.1742
 8885TIP3    H148070   5.818   4.340   2.365 -0.3088 -0.5214  1.9236
 8885TIP3    H248071   5.747   4.212   2.326  0.2203 -1.1862  3.0751
 8886TIP3   OH248072   4.107   4.038   5.292 -0.1566 -0.1306  0.6778
 8886TIP3    H148073   4.140   3.984   5.364 -0.2213 -0.3320  0.5574
 8886TIP3    H248074   4.116   3.983   5.214  0.7409  0.4169  0.3873
 8887TIP3   OH248075   2.908   1.535  14.245  0.4054 -0.7111  0.6408
 8887TIP3    H148076   2.909   1.629  14.262  1.7265 -0.8093  1.2755
 8887TIP3    H248077   2.816   1.514  14.228  0.2891  0.9223 -0.9940
 8888TIP3   OH248078   6.592   5.562   6.025 -0.0742 -0.1854  0.2860
 8888TIP3    H148079   6.615   5.597   6.111 -0.3957 -0.0763  0.3268
 8888TIP3    H248080   6.654   5.605   5.965 -1.5432  1.8046  0.0828
 8889TIP3   OH248081   5.551   1.530   2.816 -0.2891 -0.4180 -0.6254
 8889TIP3    H148082   5.621   1.572   2.866  0.7072  1.9488 -3.6579
 8889TIP3    H248083   5.475   1.530   2.875  0.9131  1.7102  1.0599
 8890TIP3   OH248084   6.051   4.874   4.999 -0.5089  0.3006 -0.3734
 8890TIP3    H148085   6.021   4.864   4.909 -1.3852 -2.5031  0.1346
 8890TIP3    H248086   6.004   4.952   5.031 -2.6465 -0.4664 -1.4321
 8891TIP3   OH248087   5.153   1.385   4.303 -0.4959  0.1958 -0.2548
 8891TIP3    H148088   5.140   1.392   4.209  0.4792 -0.1643 -0.4269
 8891TIP3    H248089   5.086   1.442   4.341 -1.9232 -0.8685 -1.0938
 8892TIP3   OH248090   5.017   4.298   5.591  0.5665 -0.0362 -0.6835
 8892TIP3    H148091   4.971   4.279   5.509 -0.3781 -0.8580  0.0131
 8892TIP3    H248092   5.023   4.394   5.593 -0.4842  0.0561 -1.1531
 8893TIP3   OH248093   6.049   3.705  10.666 -0.8143 -0.1691 -0.1482
 8893TIP3    H148094   6.114   3.754  10.615  1.9483 -0.9197  2.3305
 8893TIP3    H248095   6.064   3.613  10.642  1.3971 -0.6691  2.6277
 8894TIP3   OH248096   5.078   0.842  15.221  0.2077 -0.1553 -0.0365
 8894TIP3    H148097   5.132   0.781  15.272 -0.8515 -0.6566  0.5103
 8894TIP3    H248098   5.129   0.857  15.141  1.2430 -0.4645  0.5406
 8895TIP3   OH248099   5.575   2.130   6.135 -0.3006  0.2311  0.3773
 8895TIP3    H148100   5.518   2.085   6.198 -0.3048 -1.0958 -0.5324
 8895TIP3    H248101   5.608   2.206   6.183 -1.8733  0.3715  1.3305
 8896TIP3   OH248102   6.555   4.301  14.566 -0.1832 -0.3734 -0.2689
 8896TIP3    H148103   6.646   4.294  14.595 -0.3650  0.0255  0.4331
 8896TIP3    H248104   6.561   4.314  14.472  0.3879 -2.9087 -0.6643
 8897TIP3   OH248105   5.219   0.978   1.530 -0.4173  0.4036  0.4497
 8897TIP3    H148106   5.191   1.004   1.442 -0.5728 -0.4030  0.2500
 8897TIP3    H248107   5.285   0.910   1.514 -0.8519 -0.1425  0.9632
 8898TIP3   OH248108   2.839   2.211  13.487  0.4381 -0.3397 -0.1161
 8898TIP3    H148109   2.793   2.187  13.407 -0.8977 -0.3799  0.6519
 8898TIP3    H248110   2.771   2.234  13.549  1.3397 -1.9618  1.5829
 8899TIP3   OH248111   0.688   2.940   1.520 -0.2472  0.0563 -0.1176
 8899TIP3    H148112   0.635   2.870   1.482 -0.9035 -0.9357  2.4442
 8899TIP3    H248113   0.626   3.009   1.540  0.3985  1.5337 -2.6507
 8900TIP3   OH248114   0.518   4.687  15.800 -0.3756 -0.4352 -0.4177
 8900TIP3    H148115   0.607   4.684  15.836 -1.0734  0.3837  1.4978
 8900TIP3    H248116   0.463   4.711  15.874 -1.8532  2.0267 -2.1622
 8901TIP3   OH248117   0.657   2.509   0.065 -0.0647  0.0296  0.3284
 8901TIP3    H148118   0.648   2.593   0.021 -0.0946  0.3838  0.9910
 8901TIP3    H248119   0.741   2.474   0.033 -0.9528 -0.6155 -1.4389
 8902TIP3   OH248120   5.058   6.626   1.241 -0.5836  0.3826  0.0715
 8902TIP3    H148121   4.995   6.671   1.185 -0.8526  0.5994  0.5360
 8902TIP3    H248122   5.099   6.697   1.292 -0.5978  0.1596  0.4008
 8903TIP3   OH248123   5.831   2.805   0.965 -0.0870  0.1985 -0.9353
 8903TIP3    H148124   5.878   2.816   1.047 -1.4686  2.2480 -0.3338
 8903TIP3    H248125   5.893   2.758   0.908  1.4179 -0.0413  0.7972
 8904TIP3   OH248126   4.698   3.376   4.631 -0.4326  0.1639 -0.1279
 8904TIP3    H148127   4.691   3.464   4.595 -1.9236 -0.5882 -1.7748
 8904TIP3    H248128   4.617   3.364   4.681 -0.2003 -0.2674  0.1502
 8905TIP3   OH248129   2.511   6.450   5.578 -0.1019  0.3527  0.1358
 8905TIP3    H148130   2.526   6.414   5.491  2.2874  0.2353  0.5399
 8905TIP3    H248131   2.466   6.533   5.562  1.1133  0.7799 -1.2897
 8906TIP3   OH248132   5.132   1.055  13.778 -0.0830  0.2952 -0.0972
 8906TIP3    H148133   5.224   1.049  13.752  0.1859  0.8668  0.6881
 8906TIP3    H248134   5.083   1.039  13.697  0.6951 -0.3323 -0.4607
 8907TIP3   OH248135   2.857   6.422   4.711 -0.2798  0.0600 -0.3912
 8907TIP3    H148136   2.876   6.354   4.775  2.0858  0.0683 -0.9581
 8907TIP3    H248137   2.769   6.404   4.680  0.0641 -2.3879 -0.0744
 8908TIP3   OH248138   1.633   0.423  11.335  0.6685  0.4301 -0.4145
 8908TIP3    H148139   1.665   0.472  11.260  1.7013 -0.2063 -0.4026
 8908TIP3    H248140   1.697   0.354  11.348  0.2154  0.1992  0.7202
 8909TIP3   OH248141   0.347   3.156   5.993 -0.8381 -0.1839 -0.0051
 8909TIP3    H148142   0.416   3.095   6.019 -1.3804 -1.2628 -1.0125
 8909TIP3    H248143   0.374   3.240   6.031  1.6118 -0.3058 -1.2812
 8910TIP3   OH248144   0.625   0.780  10.625 -1.2325 -0.1572  0.4131
 8910TIP3    H148145   0.546   0.811  10.582 -1.1681 -2.1720 -1.3302
 8910TIP3    H248146   0.594   0.720  10.693 -1.2277  0.5019  1.0105
 8911TIP3   OH248147   1.617   3.593  10.610 -0.3037  0.0753  0.2437
 8911TIP3    H148148   1.588   3.506  10.584 -0.0239  0.5839 -2.0324
 8911TIP3    H248149   1.558   3.618  10.682 -0.7402 -1.7367  0.5640
 8912TIP3   OH248150   3.574   4.306  16.301 -0.7128 -0.1579 -0.2781
 8912TIP3    H148151   3.538   4.266  16.380 -3.4867  0.9424 -0.8370
 8912TIP3    H248152   3.571   4.400  16.318  1.4471  0.0200 -0.6414
 8913TIP3   OH248153   2.187   2.703  11.816  0.3348 -0.0106  0.2407
 8913TIP3    H148154   2.191   2.619  11.770  2.3396  0.3610 -0.3792
 8913TIP3    H248155   2.093   2.723  11.822 -0.2380 -2.6101  1.0578
 8914TIP3   OH248156   5.127   3.726   2.249  0.0344 -0.7689  0.1663
 8914TIP3    H148157   5.043   3.693   2.283  0.1901 -3.2242 -1.5354
 8914TIP3    H248158   5.105   3.765   2.165  0.5149 -0.8006  0.0242
 8915TIP3   OH248159   6.766   6.745  11.083  0.5603  0.0352 -0.2332
 8915TIP3    H148160   6.856   6.770  11.064  1.0004 -1.6673 -0.5859
 8915TIP3    H248161   6.732   6.713  10.999 -0.1595  0.0726  0.0401
 8916TIP3   OH248162   2.331   2.806   0.091 -0.1738 -0.3172  0.2273
 8916TIP3    H148163   2.395   2.749   0.134  0.5866  2.1014  2.6035
 8916TIP3    H248164   2.250   2.791   0.139 -0.0445  0.2888  0.6617
 8917TIP3   OH248165   1.233   3.770  14.541 -0.0113 -0.1247  0.2184
 8917TIP3    H148166   1.302   3.829  14.511 -0.3564  0.7086  1.0380
 8917TIP3    H248167   1.257   3.746  14.630 -0.3833 -0.4554  0.2369
 8918TIP3   OH248168   4.359   3.814  16.030  0.0536 -0.1496 -0.3827
 8918TIP3    H148169   4.294   3.848  16.091  1.0247  0.1666  0.4959
 8918TIP3    H248170   4.321   3.731  15.999 -0.3586 -0.4249  0.8183
 8919TIP3   OH248171   5.386   6.676   3.260  0.1972  0.4863 -0.3421
 8919TIP3    H148172   5.473   6.715   3.270  0.3460 -0.0295  0.4798
 8919TIP3    H248173   5.328   6.749   3.238  0.7701  0.8886 -0.5275
 8920TIP3   OH248174   1.072   0.541  16.221  0.0873  0.4321 -0.3889
 8920TIP3    H148175   1.064   0.548  16.316 -1.5006 -1.3002 -0.3296
 8920TIP3    H248176   1.011   0.607  16.188 -2.3464 -1.5179 -0.0832
 8921TIP3   OH248177   1.360   0.139   2.782 -0.0329  0.0733 -0.0263
 8921TIP3    H148178   1.269   0.162   2.760 -0.3852 -1.8709 -0.8587
 8921TIP3    H248179   1.378   0.061   2.729  1.2765 -1.0855  1.9899
 8922TIP3   OH248180   5.957   2.619   4.481 -0.5422 -0.6427  0.1845
 8922TIP3    H148181   6.006   2.538   4.465  0.4902  0.0151 -0.1049
 8922TIP3    H248182   5.893   2.595   4.548 -1.0031 -1.9743 -0.6762
 8923TIP3   OH248183   6.690   2.834  16.497 -0.2667  0.7410  0.4326
 8923TIP3    H148184   6.698   2.929  16.508  1.5452  0.6960 -0.1003
 8923TIP3    H248185   6.777   2.806  16.468 -0.5841 -1.1767  1.1636
 8924TIP3   OH248186   2.867   5.261  16.876 -0.2111 -0.1737  0.3257
 8924TIP3    H148187   2.796   5.197  16.864  0.2711 -0.5074 -0.9232
 8924TIP3    H248188   2.843   5.334  16.819  0.5073 -0.3451 -0.2040
 8925TIP3   OH248189   4.084   6.657   3.028 -0.3517 -0.0900 -0.6502
 8925TIP3    H148190   4.040   6.611   3.100 -0.6489  0.3073 -0.5756
 8925TIP3    H248191   4.058   6.748   3.039 -1.0458 -0.1455 -1.7293
 8926TIP3   OH248192   2.253   3.506  13.100  1.0274  0.4379  0.1350
 8926TIP3    H148193   2.249   3.458  13.183 -0.6954  1.0105  0.4074
 8926TIP3    H248194   2.223   3.594  13.121  1.5497  0.8799 -0.9044
 8927TIP3   OH248195   0.048   1.037  16.307  0.0176 -0.1541  0.3873
 8927TIP3    H148196   0.103   1.115  16.297 -0.6175  0.2895  0.3178
 8927TIP3    H248197  -0.008   1.056  16.382 -0.7753 -0.1601 -0.1925
 8928TIP3   OH248198   3.634   4.831  12.830 -0.4214 -0.2391  0.0053
 8928TIP3    H148199   3.547   4.799  12.857 -0.4234  0.1390  0.4638
 8928TIP3    H248200   3.626   4.927  12.832 -0.0499 -0.2044 -0.1337
 8929TIP3   OH248201   6.343   0.905  14.655 -0.1592 -0.2405 -0.1600
 8929TIP3    H148202   6.403   0.870  14.720 -0.1707  1.1568  0.6273
 8929TIP3    H248203   6.374   0.869  14.572  2.6189  1.4621  0.0171
 8930TIP3   OH248204   4.373   6.498  12.988  0.4253 -0.0942 -0.0029
 8930TIP3    H148205   4.313   6.489  13.062  1.2634 -2.0329  0.4896
 8930TIP3    H248206   4.459   6.507  13.028  0.6071  2.0068 -0.7228
 8931TIP3   OH248207   1.889   1.922   0.940 -0.8208 -0.0334  0.0622
 8931TIP3    H148208   1.940   1.855   0.984 -0.7229  0.5911  0.9366
 8931TIP3    H248209   1.938   1.942   0.861  0.3419  0.5741  0.8957
 8932TIP3   OH248210   2.277   4.450   5.619 -0.0171 -0.2767  0.3844
 8932TIP3    H148211   2.317   4.383   5.675 -1.4899  1.0482  3.2691
 8932TIP3    H248212   2.323   4.531   5.641 -2.0256  0.6707  1.3830
 8933TIP3   OH248213   1.618   0.932  16.652 -0.1813 -0.3679  0.2670
 8933TIP3    H148214   1.585   0.946  16.563 -0.9232  0.2489  0.6328
 8933TIP3    H248215   1.668   1.011  16.672 -0.0714 -0.4762  0.4185
 8934TIP3   OH248216   3.248   3.406  11.682 -0.0239 -0.1435  0.2100
 8934TIP3    H148217   3.178   3.367  11.629  1.0286  0.5097 -1.7494
 8934TIP3    H248218   3.328   3.363  11.652  0.8353  1.5951 -0.1107
 8935TIP3   OH248219   4.052   0.247  11.959 -0.3608 -0.2010 -0.2062
 8935TIP3    H148220   3.963   0.223  11.934 -0.9058  0.2097  1.2048
 8935TIP3    H248221   4.058   0.221  12.051  0.9981 -0.2524 -0.2924
 8936TIP3   OH248222   0.648   0.863  14.092 -0.4268  0.6639 -0.1971
 8936TIP3    H148223   0.654   0.770  14.115 -0.0360  0.3945 -1.3490
 8936TIP3    H248224   0.621   0.906  14.173  0.4119 -0.3188  0.6243
 8937TIP3   OH248225   6.259   0.422   0.830  0.2895  0.1206  0.1629
 8937TIP3    H148226   6.254   0.511   0.794  1.0908 -0.4101 -1.3555
 8937TIP3    H248227   6.302   0.371   0.762 -0.2929 -1.4838  0.9350
 8938TIP3   OH248228   6.053   4.328  15.211 -0.5642  0.7271 -0.2647
 8938TIP3    H148229   6.009   4.398  15.258 -1.5448  1.4753 -2.1815
 8938TIP3    H248230   5.987   4.294  15.150 -0.0272 -1.6784  0.3618
 8939TIP3   OH248231   2.121   5.196  10.933  0.2438  0.3923  0.1608
 8939TIP3    H148232   2.083   5.257  10.869  1.9230  1.6531  0.2710
 8939TIP3    H248233   2.046   5.155  10.975 -0.9295  0.6136 -1.5998
 8940TIP3   OH248234   4.878   6.369  11.594  0.9553 -0.2511  0.4922
 8940TIP3    H148235   4.941   6.356  11.665  1.0396 -1.5752  0.1971
 8940TIP3    H248236   4.902   6.302  11.529 -1.8685 -2.0258  1.1393
 8941TIP3   OH248237   4.399   4.407  15.699  0.0254  0.3850 -0.3323
 8941TIP3    H148238   4.487   4.373  15.684 -0.3299 -0.6764 -0.1055
 8941TIP3    H248239   4.380   4.384  15.789 -0.2566  1.1659 -0.1857
 8942TIP3   OH248240   4.803   3.021  12.417  0.4253 -0.1270  0.0592
 8942TIP3    H148241   4.887   3.002  12.458  0.3045  0.0743  0.4099
 8942TIP3    H248242   4.758   2.937  12.413  0.2309 -0.0717  0.8307
 8943TIP3   OH248243   2.065   2.943  16.590  0.1786  0.6209 -0.2014
 8943TIP3    H148244   2.123   2.920  16.517 -0.7834 -2.1562 -0.2175
 8943TIP3    H248245   2.111   3.013  16.636  1.6339  1.2583 -2.4570
 8944TIP3   OH248246   5.868   4.458   2.735 -0.4008  0.3586 -0.4373
 8944TIP3    H148247   5.789   4.414   2.767  0.0243  0.5649  0.9628
 8944TIP3    H248248   5.894   4.517   2.806  0.6294  0.8030 -1.1488
 8945TIP3   OH248249   1.672   3.483   2.371  0.2997 -0.3738  0.2051
 8945TIP3    H148250   1.744   3.425   2.346  0.0787 -0.8371  0.6362
 8945TIP3    H248251   1.600   3.460   2.311  1.2361  1.7690 -1.9175
 8946TIP3   OH248252   1.220   5.854   3.615  0.1965  0.1695  0.0069
 8946TIP3    H148253   1.226   5.776   3.671  0.2546 -1.2590 -1.8792
 8946TIP3    H248254   1.158   5.911   3.659  0.1275 -0.9623  1.4394
 8947TIP3   OH248255   5.606   5.990  16.163 -0.0124  0.2335 -0.0860
 8947TIP3    H148256   5.698   6.011  16.178 -0.0380  1.9551 -1.8933
 8947TIP3    H248257   5.584   5.926  16.231  3.0937 -1.9698 -0.9646
 8948TIP3   OH248258   1.495   0.254  10.677  0.1968  0.5249 -0.3920
 8948TIP3    H148259   1.484   0.310  10.754 -2.6983  0.2471 -0.4937
 8948TIP3    H248260   1.514   0.315  10.606 -0.3539  1.1171 -0.0404
 8949TIP3   OH248261   1.796   4.430  16.080  0.0060  0.3476 -0.2514
 8949TIP3    H148262   1.861   4.469  16.139 -1.6783  1.4253  0.9969
 8949TIP3    H248263   1.711   4.451  16.120 -1.1773 -0.0966 -2.3465
 8950TIP3   OH248264   3.231   0.840  15.763 -0.5471  0.1217 -0.2480
 8950TIP3    H148265   3.240   0.806  15.674  0.2904 -1.5722  0.4414
 8950TIP3    H248266   3.166   0.782  15.804 -0.1423  0.2190  0.5408
 8951TIP3   OH248267   2.533   4.450  16.847  0.0324  0.0656  0.5926
 8951TIP3    H148268   2.592   4.375  16.852  0.3079  0.1788 -0.5718
 8951TIP3    H248269   2.591   4.526  16.859 -0.1338  0.1226  1.0514
 8952TIP3   OH248270   2.046   6.521   0.801 -0.2045 -0.4958 -0.1747
 8952TIP3    H148271   2.079   6.600   0.758  0.6052 -1.1174 -0.7221
 8952TIP3    H248272   2.021   6.464   0.728 -2.1753 -0.2052  0.2077
 8953TIP3   OH248273   5.484   3.088  13.809 -0.5183  0.0483  0.1727
 8953TIP3    H148274   5.406   3.034  13.800 -0.9970  0.6200  0.7733
 8953TIP3    H248275   5.474   3.156  13.743 -0.6478  0.2595  0.4086
 8954TIP3   OH248276   0.263   5.691   0.845 -0.7129 -0.2735 -0.0065
 8954TIP3    H148277   0.317   5.612   0.859  0.5982  0.6701  0.4454
 8954TIP3    H248278   0.220   5.706   0.929  1.9457  1.5617  1.1551
 8955TIP3   OH248279   2.602   6.586   1.269  0.2247  0.3596 -0.0901
 8955TIP3    H148280   2.663   6.514   1.282  0.2172 -0.4387 -3.6980
 8955TIP3    H248281   2.609   6.637   1.350  3.3790 -1.3305  0.8836
 8956TIP3   OH248282   3.884   5.680   0.218 -0.0150  0.3410 -0.3845
 8956TIP3    H148283   3.894   5.711   0.128 -1.0355  0.2291 -0.5428
 8956TIP3    H248284   3.974   5.661   0.246  0.2594 -0.3316 -1.6174
 8957TIP3   OH248285   4.918   3.989  11.361  0.5186  0.6703 -0.5747
 8957TIP3    H148286   4.861   4.054  11.321 -0.6427 -1.0315 -1.8446
 8957TIP3    H248287   4.858   3.922  11.394  1.7097 -0.6004 -0.8964
 8958TIP3   OH248288   5.713   1.029   0.001 -0.6790  0.4492  0.2901
 8958TIP3    H148289   5.648   0.984   0.055  0.9519 -1.1942  1.0007
 8958TIP3    H248290   5.793   1.028   0.054  0.0979  1.9277 -0.7732
 8959TIP3   OH248291   3.717   1.452  16.485  0.1962 -0.5618 -0.2623
 8959TIP3    H148292   3.752   1.475  16.399  1.5327  2.8879  1.0077
 8959TIP3    H248293   3.672   1.532  16.513 -1.3031 -2.0413  1.7397
 8960TIP3   OH248294   1.124   4.263  17.048  0.3138  0.4854 -0.0174
 8960TIP3    H148295   1.031   4.267  17.027  0.3638  0.9114 -0.1736
 8960TIP3    H248296   1.129   4.214  17.131 -0.0264  0.2690 -0.1251
 8961TIP3   OH248297   6.386   1.936  14.452  0.3607  0.0866  0.0968
 8961TIP3    H148298   6.447   1.988  14.400 -0.2946  1.2246  0.4213
 8961TIP3    H248299   6.405   1.959  14.543 -0.5508  0.4908  0.2028
 8962TIP3   OH248300   5.074   1.162  11.335  0.3584 -0.7140 -0.1026
 8962TIP3    H148301   5.007   1.095  11.321 -0.5735  0.2001 -0.1672
 8962TIP3    H248302   5.041   1.238  11.288  2.2326 -0.7025 -1.4933
 8963TIP3   OH248303   5.736   6.332   3.459 -0.4083 -0.1611 -0.1570
 8963TIP3    H148304   5.810   6.337   3.398  1.2429  0.1586  1.7613
 8963TIP3    H248305   5.695   6.418   3.454 -0.9373 -0.4686 -1.5330
 8964TIP3   OH248306   2.326   4.588  13.161 -0.5151 -0.1789 -0.2755
 8964TIP3    H148307   2.404   4.539  13.135  0.2823  1.0640 -0.3283
 8964TIP3    H248308   2.295   4.629  13.080 -0.4828  0.3326 -0.0333
 8965TIP3   OH248309   3.511   4.524  12.851  0.3249 -0.4997  0.1475
 8965TIP3    H148310   3.554   4.476  12.922  0.7368 -0.6351 -0.1892
 8965TIP3    H248311   3.418   4.513  12.868  0.4158 -0.3301  0.8033
 8966TIP3   OH248312   6.495   4.790  15.018  0.0521 -0.1610 -0.4200
 8966TIP3    H148313   6.442   4.861  14.981 -0.2679 -0.4193 -0.4525
 8966TIP3    H248314   6.572   4.835  15.055  0.1710  0.1415 -1.0203
 8967TIP3   OH248315   0.383   2.249  14.810  0.0419 -0.5855  0.0853
 8967TIP3    H148316   0.438   2.172  14.816 -1.7775 -2.0942 -1.2964
 8967TIP3    H248317   0.443   2.323  14.816  1.8899 -2.0966  0.9923
 8968TIP3   OH248318   0.826   1.962   4.378 -0.5286  0.5219 -0.6856
 8968TIP3    H148319   0.747   1.918   4.408  0.0073  0.5472  0.8582
 8968TIP3    H248320   0.834   2.038   4.436  1.2198 -0.1105 -0.0298
 8969TIP3   OH248321   0.540   0.239   3.295 -0.1104 -0.7585 -0.2159
 8969TIP3    H148322   0.556   0.246   3.389 -2.1875 -0.5985  0.1761
 8969TIP3    H248323   0.578   0.319   3.259 -0.2573 -0.2752  0.6593
 8970TIP3   OH248324   0.915   3.502   3.843  0.1952 -0.1721 -0.3080
 8970TIP3    H148325   0.955   3.563   3.906  0.3351  0.4300 -0.9644
 8970TIP3    H248326   0.863   3.559   3.786 -1.8692 -0.9441  0.6888
 8971TIP3   OH248327   5.729   4.969  12.611  0.1110 -0.7403 -0.0220
 8971TIP3    H148328   5.653   4.932  12.655 -1.5669  0.2600 -1.8974
 8971TIP3    H248329   5.701   5.056  12.583  2.1700 -0.0974 -0.2562
 8972TIP3   OH248330   4.218   4.995   0.777 -0.2340 -0.5665  0.8785
 8972TIP3    H148331   4.179   5.028   0.858 -0.2915 -1.5592  1.2732
 8972TIP3    H248332   4.144   4.981   0.718 -0.1623  0.4489  0.5386
 8973TIP3   OH248333   3.829   4.796  14.019  0.8922 -0.4761 -0.7750
 8973TIP3    H148334   3.747   4.832  13.987  0.4217  0.8652  1.6992
 8973TIP3    H248335   3.828   4.704  13.991 -0.9775 -0.2449 -1.5777
 8974TIP3   OH248336   1.347   6.754   4.957  0.8068  0.6706 -0.2256
 8974TIP3    H148337   1.382   6.665   4.954  0.3501  0.4755  0.1638
 8974TIP3    H248338   1.378   6.794   4.876 -1.2016 -0.6711 -1.7678
 8975TIP3   OH248339   6.124   0.096  14.942  0.3094 -0.0405  0.2565
 8975TIP3    H148340   6.180   0.091  15.020 -1.7467 -0.9918  1.7802
 8975TIP3    H248341   6.158   0.028  14.884  0.5917 -0.7927  1.2625
 8976TIP3   OH248342   4.454   5.944   5.228 -0.4801  0.1375  0.3213
 8976TIP3    H148343   4.451   5.978   5.139 -1.0595 -0.5347  0.0797
 8976TIP3    H248344   4.477   5.851   5.218 -0.9267 -0.0341  0.8464
 8977TIP3   OH248345   3.467   4.495   0.280 -0.3973 -0.2827 -0.1171
 8977TIP3    H148346   3.425   4.415   0.311  0.1823 -0.5883 -0.1173
 8977TIP3    H248347   3.508   4.470   0.197 -2.7057  0.7454 -1.6716
 8978TIP3   OH248348   4.985   0.101   4.446  0.5073  0.1817  0.7128
 8978TIP3    H148349   4.915   0.166   4.458  1.4363  1.5066 -0.7494
 8978TIP3    H248350   5.002   0.102   4.352  0.6368 -2.1376  0.6666
 8979TIP3   OH248351   3.794   5.880   3.249  0.1274  0.2727  0.1245
 8979TIP3    H148352   3.885   5.851   3.243  0.2553  0.8438 -0.9275
 8979TIP3    H248353   3.761   5.841   3.330  1.3331  0.1391  0.5603
 8980TIP3   OH248354   5.688   0.190  15.325 -0.2811  0.0159  0.1764
 8980TIP3    H148355   5.682   0.274  15.280  2.0678  0.3349  0.3176
 8980TIP3    H248356   5.692   0.212  15.418  0.6437 -0.1828  0.2006
 8981TIP3   OH248357   3.036   3.647   4.207 -0.4795  0.2784 -0.6303
 8981TIP3    H148358   3.096   3.573   4.203 -0.7885  0.0412 -0.9562
 8981TIP3    H248359   3.085   3.721   4.172 -0.2606  0.1653 -0.5629
 8982TIP3   OH248360   3.982   4.308  13.842 -0.2751 -0.3163  0.8150
 8982TIP3    H148361   3.933   4.382  13.879 -0.2260 -0.7532  1.7786
 8982TIP3    H248362   3.928   4.277  13.770 -1.1166 -0.3790  1.4519
 8983TIP3   OH248363   6.624   4.619   5.109 -0.1374  0.0499 -0.1354
 8983TIP3    H148364   6.642   4.712   5.117 -0.4829  0.0667  0.4733
 8983TIP3    H248365   6.583   4.610   5.023  3.2379 -0.0816 -1.9009
 8984TIP3   OH248366   3.655   5.530   0.444 -0.0564 -0.6099 -0.6812
 8984TIP3    H148367   3.714   5.473   0.395  0.6822  0.5118 -1.1494
 8984TIP3    H248368   3.581   5.543   0.386  0.9962  1.0367 -1.7433
 8985TIP3   OH248369   1.973   3.262  16.190 -0.5347 -0.2722 -0.3202
 8985TIP3    H148370   1.898   3.207  16.213 -0.3379 -0.1587  0.6187
 8985TIP3    H248371   1.935   3.331  16.135 -0.4912 -2.3552 -3.2110
 8986TIP3   OH248372   2.202   4.200   1.764  0.3796  0.0347 -0.4274
 8986TIP3    H148373   2.209   4.171   1.854  1.1477 -0.7062 -0.7195
 8986TIP3    H248374   2.185   4.294   1.771 -0.3866 -0.1510  0.4886
 8987TIP3   OH248375   4.763   0.044  14.966 -0.4974 -0.4944 -0.6692
 8987TIP3    H148376   4.766  -0.046  14.999 -1.9326 -0.3764 -0.1185
 8987TIP3    H248377   4.804   0.097  15.034 -0.5885 -0.6244 -0.5114
 8988TIP3   OH248378   4.123   4.237  12.647  0.5398 -0.3179 -0.3607
 8988TIP3    H148379   4.191   4.200  12.703  0.3183  1.4398  1.1529
 8988TIP3    H248380   4.165   4.310  12.602 -0.0877  0.1977 -0.1278
 8989TIP3   OH248381   2.593   6.030   2.372 -0.0781  0.0874 -0.4018
 8989TIP3    H148382   2.596   5.992   2.284  3.4861  0.6671 -0.6893
 8989TIP3    H248383   2.586   5.954   2.430  0.9266 -0.5969 -1.1380
 8990TIP3   OH248384   1.678   2.038   3.979 -0.4945 -0.0105 -0.0085
 8990TIP3    H148385   1.712   2.124   4.002 -2.0937  0.5492  0.3331
 8990TIP3    H248386   1.624   2.053   3.901 -2.3410 -0.3400  1.1545
 8991TIP3   OH248387   6.811   3.491  15.838 -0.2395 -0.3358 -0.2654
 8991TIP3    H148388   6.900   3.488  15.873  0.2259 -0.5020 -1.4056
 8991TIP3    H248389   6.813   3.432  15.762 -0.9690  0.6293 -1.0611
 8992TIP3   OH248390   2.173   5.814   4.968  0.5458 -0.5183  0.7766
 8992TIP3    H148391   2.161   5.723   4.994  1.4858 -1.5185 -1.9471
 8992TIP3    H248392   2.255   5.840   5.010  0.1446 -0.7968  1.7745
 8993TIP3   OH248393   6.774   4.050  13.064  0.2023 -0.4056  0.2919
 8993TIP3    H148394   6.761   4.111  13.137  1.7496 -0.3261  0.5229
 8993TIP3    H248395   6.864   4.019  13.074 -0.1383 -1.7597 -0.5647
 8994TIP3   OH248396   2.124   1.910  17.096  0.1884  0.7255 -0.1273
 8994TIP3    H148397   2.048   1.942  17.143 -0.6792 -1.6043  0.1985
 8994TIP3    H248398   2.190   1.894  17.163  0.3983  1.2273 -0.2121
 8995TIP3   OH248399   1.486   2.948   1.943  0.1993 -0.0961 -0.0932
 8995TIP3    H148400   1.500   2.853   1.950 -0.0957 -0.1760 -0.5144
 8995TIP3    H248401   1.551   2.977   1.880 -1.6688 -0.5366 -2.3914
 8996TIP3   OH248402   1.241   2.535  14.881 -0.4165 -0.4590 -0.3366
 8996TIP3    H148403   1.173   2.588  14.923  1.3752  0.3439  1.7782
 8996TIP3    H248404   1.301   2.599  14.843 -0.6147 -1.1506 -1.8969
 8997TIP3   OH248405   0.501   4.909   1.288  0.2067 -0.2259 -0.5854
 8997TIP3    H148406   0.426   4.965   1.304 -0.2213 -0.4162 -1.8019
 8997TIP3    H248407   0.572   4.949   1.338 -0.6141  0.1581  0.2903
 8998TIP3   OH248408   6.057   6.809   3.962 -0.4340 -0.1321  0.0001
 8998TIP3    H148409   6.141   6.855   3.968 -0.1499 -0.2504 -2.2864
 8998TIP3    H248410   6.069   6.730   4.014  1.9121 -1.5284 -2.4062
 8999TIP3   OH248411   5.045   4.276  13.854 -0.2702 -0.5565  0.0336
 8999TIP3    H148412   4.951   4.273  13.834 -0.2942 -0.4255  0.1232
 8999TIP3    H248413   5.065   4.370  13.857 -0.6850 -0.4877  2.5604
 9000TIP3   OH248414   5.269   5.647  17.091 -0.7236 -0.3761 -0.2246
 9000TIP3    H148415   5.212   5.574  17.116 -0.5842 -0.1719  0.7314
 9000TIP3    H248416   5.233   5.677  17.008 -2.5182  0.2555  0.7182
 9001TIP3   OH248417   5.237   6.496   6.271  0.3813  0.4960 -0.0149
 9001TIP3    H148418   5.230   6.549   6.350  2.1023 -1.7940  1.8325
 9001TIP3    H248419   5.171   6.428   6.281  0.7930  0.0250 -0.4018
 9002TIP3   OH248420   2.845   0.083   4.327  0.0615  0.2121  0.4654
 9002TIP3    H148421   2.936   0.056   4.315 -0.3257 -1.0553  0.2548
 9002TIP3    H248422   2.830   0.075   4.421 -0.0826 -0.4118  0.3896
 9003TIP3   OH248423   5.318   1.203  11.456 -0.9489 -0.6166 -0.2251
 9003TIP3    H148424   5.248   1.175  11.397 -1.4562  2.3060 -1.1395
 9003TIP3    H248425   5.289   1.287  11.491  1.5036  0.0550  0.4132
 9004TIP3   OH248426   1.711   5.917   5.882  0.0250 -0.4657 -0.5151
 9004TIP3    H148427   1.708   5.892   5.790 -1.1408  0.7636 -0.8582
 9004TIP3    H248428   1.646   5.861   5.924  1.2562 -1.7218 -0.2166
 9005TIP3   OH248429   4.909   4.269  11.667 -0.0468 -0.4258 -0.1528
 9005TIP3    H148430   4.995   4.303  11.644  0.5066 -1.0088  0.9250
 9005TIP3    H248431   4.853   4.292  11.594  0.6268  1.4749 -0.1123
 9006TIP3   OH248432   0.497   6.516   2.526  0.2281 -0.7090 -0.1742
 9006TIP3    H148433   0.562   6.452   2.498  2.8757  2.4261 -1.8970
 9006TIP3    H248434   0.536   6.559   2.602  0.1265  1.0328 -1.0569
 9007TIP3   OH248435   5.084   4.375  12.310  0.3984  0.1064  0.2613
 9007TIP3    H148436   5.148   4.365  12.381  0.4682 -0.7829  0.0917
 9007TIP3    H248437   4.999   4.383  12.355  0.4649 -0.2443  0.4521
 9008TIP3   OH248438   3.246   3.889   2.128 -0.7761  0.3854  0.0495
 9008TIP3    H148439   3.154   3.870   2.105 -0.3973  1.1012 -2.3479
 9008TIP3    H248440   3.256   3.982   2.111  0.4011  0.3097  0.2760
 9009TIP3   OH248441   2.746   0.254  16.497 -0.0134  0.2522 -0.4041
 9009TIP3    H148442   2.670   0.270  16.441 -0.5880 -0.4882  0.1457
 9009TIP3    H248443   2.710   0.251  16.586  0.6736 -0.0266 -0.1315
 9010TIP3   OH248444   3.793   3.542   1.828 -0.2905  0.6931  0.0969
 9010TIP3    H148445   3.867   3.518   1.884 -1.8791 -2.8848  0.9659
 9010TIP3    H248446   3.718   3.542   1.887 -1.7164 -1.1354 -1.5682
 9011TIP3   OH248447   1.199   3.929  13.069  0.2156 -0.1593 -0.0303
 9011TIP3    H148448   1.136   3.932  12.997 -0.8518 -0.9667  0.8506
 9011TIP3    H248449   1.146   3.920  13.148  1.3660  0.8271  0.8848
 9012TIP3   OH248450   5.375   6.297  16.429 -0.4174 -0.3211 -0.0610
 9012TIP3    H148451   5.391   6.266  16.340  0.5891  0.0417 -0.0183
 9012TIP3    H248452   5.443   6.362  16.445  0.1676 -1.2420  1.4008
 9013TIP3   OH248453   4.225   5.724  12.377  0.6463 -0.1130  0.3507
 9013TIP3    H148454   4.186   5.756  12.458  1.0119 -0.6688  0.7498
 9013TIP3    H248455   4.269   5.643  12.402  1.5593  0.1999 -0.2074
 9014TIP3   OH248456   2.140   4.962  14.635 -0.3765 -0.3107  0.4904
 9014TIP3    H148457   2.054   4.997  14.612 -0.5088 -2.1100 -2.2158
 9014TIP3    H248458   2.190   4.964  14.553  2.1534  0.4361  1.9093
 9015TIP3   OH248459   0.197   0.991  11.154 -0.0881 -0.0378 -0.0190
 9015TIP3    H148460   0.212   0.951  11.240 -0.8438  1.2950  0.7712
 9015TIP3    H248461   0.198   0.917  11.093  0.2530 -1.0455  1.1577
 9016TIP3   OH248462   4.035   3.038  12.492  0.3183  0.3765  0.2989
 9016TIP3    H148463   4.005   3.068  12.577  0.5403 -0.9150  0.8561
 9016TIP3    H248464   4.125   3.009  12.507  0.4309  0.3224 -0.4249
 9017TIP3   OH248465   4.909   4.026  13.682 -0.0117  0.2242 -0.2737
 9017TIP3    H148466   4.896   4.119  13.698  0.6694  0.5326 -1.4093
 9017TIP3    H248467   4.946   4.021  13.594 -1.3856 -1.2181 -0.8260
 9018TIP3   OH248468   3.779   2.399   4.636 -0.1171 -0.3790 -0.0989
 9018TIP3    H148469   3.862   2.359   4.664 -0.6627 -0.5437  1.3863
 9018TIP3    H248470   3.801   2.491   4.622  0.1573 -0.2455  1.1076
 9019TIP3   OH248471   5.963   2.179  12.788  0.1569 -0.1264  0.2738
 9019TIP3    H148472   5.940   2.267  12.817  1.2238  0.2673 -0.0436
 9019TIP3    H248473   5.880   2.141  12.759 -0.3972  0.5811  0.9009
 9020TIP3   OH248474   1.183   0.484  15.930 -0.7312 -0.3513 -0.7446
 9020TIP3    H148475   1.257   0.422  15.934 -0.6913 -0.2896 -0.4741
 9020TIP3    H248476   1.165   0.504  16.022 -2.0511 -1.5198 -0.7033
 9021TIP3   OH248477   0.728   2.260  13.998  0.3443 -0.3036 -0.1787
 9021TIP3    H148478   0.643   2.223  13.974  0.4048 -1.4521  1.2413
 9021TIP3    H248479   0.742   2.331  13.935 -1.8353  0.1780 -0.2032
 9022TIP3   OH248480   0.562   0.581   5.471 -0.0381  0.2050  0.3053
 9022TIP3    H148481   0.520   0.567   5.555  0.7028  2.2085  1.0814
 9022TIP3    H248482   0.577   0.676   5.467  3.3661 -0.2266 -0.3735
 9023TIP3   OH248483   4.167   0.293  13.916 -0.6274  0.3089  0.2414
 9023TIP3    H148484   4.173   0.371  13.971  1.8288  1.2771 -1.2248
 9023TIP3    H248485   4.127   0.323  13.835 -1.6696 -0.4935  0.4299
 9024TIP3   OH248486   0.057   3.760   0.491 -0.3599 -0.0661 -0.0629
 9024TIP3    H148487  -0.010   3.692   0.479 -1.2421  1.0019 -1.6357
 9024TIP3    H248488   0.009   3.842   0.480  1.3167  0.7360 -2.0169
 9025TIP3   OH248489   2.199   1.826  16.399 -0.4664  0.6294  0.6319
 9025TIP3    H148490   2.251   1.869  16.467  1.7629 -0.5449 -0.2248
 9025TIP3    H248491   2.111   1.820  16.436 -0.2961  3.6290  1.7366
 9026TIP3   OH248492   1.711   2.046  10.489  0.3205  0.3015 -0.3211
 9026TIP3    H148493   1.738   2.128  10.448  2.5425  0.3156  1.0005
 9026TIP3    H248494   1.701   1.985  10.416 -0.3063  1.4283 -1.2224
 9027TIP3   OH248495   4.359   5.913   0.672 -0.0881 -0.0326 -0.3727
 9027TIP3    H148496   4.387   5.857   0.599 -0.3856 -0.3251 -0.2650
 9027TIP3    H248497   4.438   5.925   0.724 -0.0973 -0.6548 -0.2048
 9028TIP3   OH248498   6.458   2.211  13.443 -0.8116 -0.6583 -0.1457
 9028TIP3    H148499   6.484   2.131  13.487  0.3578 -1.0356 -1.4481
 9028TIP3    H248500   6.485   2.198  13.352 -0.6833  1.1809 -0.4043
 9029TIP3   OH248501   4.765   4.569  16.921 -0.0229 -0.0025 -1.0774
 9029TIP3    H148502   4.828   4.577  16.849 -1.1816  0.9682 -2.0317
 9029TIP3    H248503   4.699   4.509  16.887  0.1806 -0.7382 -0.2162
 9030TIP3   OH248504   5.565   1.683  16.888 -0.2682 -0.4933  0.5030
 9030TIP3    H148505   5.571   1.778  16.894 -1.5754 -0.4674  1.8857
 9030TIP3    H248506   5.643   1.657  16.839  1.4137  1.0787  2.2004
 9031TIP3   OH248507   0.829   1.319  13.974  0.0172 -0.6193  0.2890
 9031TIP3    H148508   0.746   1.281  14.002  0.1071 -0.8212  0.2863
 9031TIP3    H248509   0.895   1.270  14.024  0.0318  1.1039  2.0829
 9032TIP3   OH248510   5.835   4.173  14.397  0.0947  0.1827 -0.0334
 9032TIP3    H148511   5.771   4.237  14.427  1.4894  1.3559  0.5101
 9032TIP3    H248512   5.919   4.206  14.427  1.0603 -0.9512 -1.3524
 9033TIP3   OH248513   0.940   6.642   5.329 -0.3375 -0.2907  0.0052
 9033TIP3    H148514   0.952   6.679   5.416  1.2832 -2.5677  0.8380
 9033TIP3    H248515   1.005   6.686   5.275  0.0849 -0.3466  0.4631
 9034TIP3   OH248516   0.301   4.367  16.184  0.1491  0.4609 -0.1000
 9034TIP3    H148517   0.312   4.273  16.201  2.0876  0.6257 -0.2733
 9034TIP3    H248518   0.232   4.371  16.118  0.8485 -0.9308 -0.9475
 9035TIP3   OH248519   1.553   4.040   2.365 -0.1373  0.2382 -0.1737
 9035TIP3    H148520   1.502   4.107   2.321  0.6463  0.3008 -1.0208
 9035TIP3    H248521   1.608   4.002   2.296  2.0837  1.2308  0.9224
 9036TIP3   OH248522   2.978   2.501   0.507 -0.2358 -0.3725 -0.1670
 9036TIP3    H148523   3.023   2.418   0.490 -0.8648 -0.6097 -0.7237
 9036TIP3    H248524   2.956   2.535   0.420 -0.9034 -0.1338  0.0846
 9037TIP3   OH248525   1.251   4.691  14.022  0.0239  0.1663 -0.1592
 9037TIP3    H148526   1.178   4.753  14.026  2.1737  2.8300  1.3737
 9037TIP3    H248527   1.291   4.705  13.937 -0.0209  0.1879 -0.1769
 9038TIP3   OH248528   1.583   4.950  13.409  0.5609 -0.1841  0.2725
 9038TIP3    H148529   1.602   4.907  13.326 -0.0104  0.4370 -0.1832
 9038TIP3    H248530   1.642   5.026  13.411 -0.4404  0.6212 -0.2365
 9039TIP3   OH248531   5.369   4.842  16.852 -0.1996 -0.3678 -0.2361
 9039TIP3    H148532   5.379   4.897  16.774  0.6011 -0.0482  0.0800
 9039TIP3    H248533   5.427   4.768  16.837 -0.0610 -0.3182  0.0484
 9040TIP3   OH248534   2.876   2.643  13.779  0.4620 -0.1397 -0.0225
 9040TIP3    H148535   2.872   2.705  13.851 -1.7155 -0.5486  0.2906
 9040TIP3    H248536   2.834   2.564  13.813 -0.5521 -0.3725 -1.6690
 9041TIP3   OH248537   6.597   1.404   4.694  0.5926  0.1502  0.0972
 9041TIP3    H148538   6.667   1.346   4.723 -0.6770 -1.2794  0.4386
 9041TIP3    H248539   6.587   1.384   4.601  0.1336 -0.1993  0.2217
 9042TIP3   OH248540   6.269   4.937  16.446 -0.0566 -0.4686  0.3246
 9042TIP3    H148541   6.285   4.991  16.368 -0.5441 -1.2871 -0.3526
 9042TIP3    H248542   6.320   4.858  16.431 -0.3755 -0.7499  0.7110
 9043TIP3   OH248543   3.839   4.068  15.689 -0.0326  0.3779  0.0854
 9043TIP3    H148544   3.853   4.149  15.641  0.5786  0.1225 -0.1776
 9043TIP3    H248545   3.811   4.096  15.776 -0.0163  0.8606 -0.0614
 9044TIP3   OH248546   4.883   0.182  15.174 -0.0848  0.3925 -0.2429
 9044TIP3    H148547   4.854   0.273  15.166  0.2625  0.6578  1.2774
 9044TIP3    H248548   4.848   0.153  15.257 -0.6909 -1.0835 -0.9870
 9045TIP3   OH248549   2.607   3.130  14.474  0.2004 -0.0087 -0.3399
 9045TIP3    H148550   2.571   3.047  14.444 -0.1569  0.3434 -0.9203
 9045TIP3    H248551   2.541   3.163  14.535  0.5973 -0.4009  0.3033
 9046TIP3   OH248552   3.783   2.859  13.026  0.6206  0.2061  0.1924
 9046TIP3    H148553   3.729   2.791  12.986  0.5436 -0.1644  0.8981
 9046TIP3    H248554   3.821   2.816  13.103 -1.8363  1.7682  2.4564
 9047TIP3   OH248555   4.650   5.783   0.763 -0.3053 -0.1085 -0.1547
 9047TIP3    H148556   4.647   5.693   0.731 -0.2650 -0.2110  0.1289
 9047TIP3    H248557   4.654   5.837   0.683  0.2318 -0.3776 -0.3184
 9048TIP3   OH248558   4.524   1.467   6.342 -0.5166  0.2664  0.1234
 9048TIP3    H148559   4.597   1.413   6.309  0.1499  0.5670  1.0586
 9048TIP3    H248560   4.476   1.408   6.401  0.1880  0.6604  1.1139
 9049TIP3   OH248561   1.410   5.233  13.437  0.1495 -0.3348 -0.1461
 9049TIP3    H148562   1.497   5.215  13.403  0.3750  0.0798  0.1996
 9049TIP3    H248563   1.403   5.181  13.517  1.1330  1.6769  1.3353
 9050TIP3   OH248564   4.410   2.055  11.083 -0.3348  0.9055 -0.2842
 9050TIP3    H148565   4.349   2.040  11.012 -1.9755 -1.4551  1.4604
 9050TIP3    H248566   4.355   2.065  11.161  1.4094  0.5147  1.0794
 9051TIP3   OH248567   5.828   2.644   3.058 -0.5851  0.0395 -0.6257
 9051TIP3    H148568   5.818   2.700   2.981 -1.8176  0.2509 -0.3264
 9051TIP3    H248569   5.922   2.625   3.061 -0.2806  1.3024 -1.2829
 9052TIP3   OH248570   4.474   0.077  11.720  0.0873 -0.3642  0.0337
 9052TIP3    H148571   4.474  -0.019  11.728 -1.5073 -0.3291  0.8982
 9052TIP3    H248572   4.527   0.095  11.642  0.4158 -1.9455 -0.1417
 9053TIP3   OH248573   4.446   1.651   3.427 -0.3243  0.1824 -0.1854
 9053TIP3    H148574   4.466   1.744   3.426 -1.1594  0.4544  2.1486
 9053TIP3    H248575   4.357   1.646   3.460 -0.8230 -1.4225 -1.6016
 9054TIP3   OH248576   6.716   5.242  16.491 -0.2054 -0.0706 -0.1974
 9054TIP3    H148577   6.628   5.212  16.514 -0.7966  0.8912 -1.1040
 9054TIP3    H248578   6.706   5.336  16.476  1.5673  0.6595  2.5079
 9055TIP3   OH248579   6.660   0.592   4.791  0.5624 -0.7975 -1.0208
 9055TIP3    H148580   6.702   0.584   4.876 -1.1996 -0.4625 -0.0635
 9055TIP3    H248581   6.686   0.513   4.743  0.7102 -1.5309  0.2333
 9056TIP3   OH248582   6.459   4.880  16.116 -0.2430 -0.1134 -0.1157
 9056TIP3    H148583   6.542   4.845  16.085 -1.0307 -1.6045 -0.6775
 9056TIP3    H248584   6.400   4.805  16.116 -1.8754  1.1057 -0.7652
 9057TIP3   OH248585   1.162   0.581  15.392  0.3258 -0.7229  0.5216
 9057TIP3    H148586   1.207   0.632  15.324  1.2945  0.8394  2.2499
 9057TIP3    H248587   1.070   0.584  15.367  0.7805 -1.4712 -1.4975
 9058TIP3   OH248588   2.766   1.625   3.025  0.1655  0.1923  0.5005
 9058TIP3    H148589   2.716   1.597   3.102  2.4250  0.8390  2.3369
 9058TIP3    H248590   2.780   1.718   3.039  2.2174 -0.0510  0.3122
 9059TIP3   OH248591   0.125   2.578   3.020  0.4147  0.0914  0.0645
 9059TIP3    H148592   0.156   2.496   3.059 -0.9504  0.0272  1.0528
 9059TIP3    H248593   0.032   2.564   3.004  0.0900  1.5599  0.5348
 9060TIP3   OH248594   3.991   0.342   0.691  0.2930  0.4617  0.2918
 9060TIP3    H148595   4.009   0.416   0.632  0.8339  2.7861  3.1214
 9060TIP3    H248596   3.896   0.340   0.698  0.3014  1.7936  1.1569
 9061TIP3   OH248597   6.192   4.814   2.512 -0.4359 -0.2187  0.1221
 9061TIP3    H148598   6.157   4.874   2.578 -1.1600 -1.2504  0.6973
 9061TIP3    H248599   6.195   4.729   2.556  1.1698 -0.5050 -0.4708
 9062TIP3   OH248600   3.933   3.777  11.629  0.2364 -0.2776 -0.1108
 9062TIP3    H148601   3.931   3.753  11.721 -1.3737  1.0590  0.2683
 9062TIP3    H248602   3.869   3.719  11.588 -1.1398  0.9817  0.1770
 9063TIP3   OH248603   5.686   1.292   0.109 -0.9775 -0.2715  0.2182
 9063TIP3    H148604   5.685   1.209   0.061 -1.1003  0.6665 -1.4970
 9063TIP3    H248605   5.594   1.314   0.122 -0.9971  0.5147 -1.0747
 9064TIP3   OH248606   3.461   0.905   3.091 -0.2742 -0.1420  0.5566
 9064TIP3    H148607   3.383   0.895   3.146 -0.3033  0.4041  0.6214
 9064TIP3    H248608   3.429   0.951   3.013 -0.1270 -0.4289  0.3273
 9065TIP3   OH248609   0.187   5.134   3.971  0.0171 -0.1539 -0.0724
 9065TIP3    H148610   0.161   5.226   3.964 -2.5128 -0.7282  0.8437
 9065TIP3    H248611   0.181   5.101   3.881  1.2917  0.6346 -0.4642
 9066TIP3   OH248612   2.327   3.117   0.558  0.6219  0.1985 -0.2099
 9066TIP3    H148613   2.373   3.082   0.635  0.9938  0.3914 -0.3424
 9066TIP3    H248614   2.234   3.103   0.578  0.7014  0.4406  0.3755
 9067TIP3   OH248615   2.464   0.380  14.227  0.1979 -0.0734  0.6404
 9067TIP3    H148616   2.472   0.410  14.318  0.5122 -0.5043  0.7553
 9067TIP3    H248617   2.548   0.339  14.208 -0.4919 -1.5834  0.7335
 9068TIP3   OH248618   6.672   5.782   4.498  0.1530  0.6665 -0.0302
 9068TIP3    H148619   6.591   5.780   4.446 -0.7664  1.6367  1.2894
 9068TIP3    H248620   6.685   5.875   4.518  1.9524  0.5919 -0.7134
 9069TIP3   OH248621   2.256   3.274  12.332  0.6983 -0.8866 -0.0590
 9069TIP3    H148622   2.229   3.185  12.356  0.2966 -1.2283 -1.6707
 9069TIP3    H248623   2.299   3.264  12.247 -1.7791  0.7780 -1.6312
 9070TIP3   OH248624   5.194   6.750  15.627  0.2696 -0.4349 -0.0975
 9070TIP3    H148625   5.186   6.716  15.538  0.9194 -0.3683 -0.1828
 9070TIP3    H248626   5.140   6.829  15.627 -0.5348 -0.9671 -0.1459
 9071TIP3   OH248627   3.375   5.472  10.604  0.5123 -0.9705  0.0857
 9071TIP3    H148628   3.287   5.466  10.565  1.0661 -1.5897 -1.0936
 9071TIP3    H248629   3.372   5.554  10.654 -1.5467 -2.1845  2.1501
 9072TIP3   OH248630   3.849   3.139  12.716 -0.1656 -0.3213 -0.1219
 9072TIP3    H148631   3.781   3.147  12.783 -1.3870 -4.0991 -0.6931
 9072TIP3    H248632   3.805   3.163  12.635 -0.1020 -0.3693 -0.1707
 9073TIP3   OH248633   6.776   4.885   4.407  0.2222 -0.2006  0.1610
 9073TIP3    H148634   6.783   4.946   4.481  0.0090 -1.0646  0.9185
 9073TIP3    H248635   6.856   4.833   4.411 -0.1129 -0.7236  0.2304
 9074TIP3   OH248636   2.058   1.464   3.070 -0.1524 -0.0417  0.2939
 9074TIP3    H148637   1.997   1.458   3.143 -0.9505  0.0989 -0.3421
 9074TIP3    H248638   2.028   1.541   3.020  0.4878 -0.0246 -0.0740
 9075TIP3   OH248639   6.360   1.841   3.422 -0.0757  0.3602 -0.2349
 9075TIP3    H148640   6.368   1.861   3.516  1.3602  1.6366 -0.5803
 9075TIP3    H248641   6.321   1.754   3.419 -1.6008  0.9211  1.5174
 9076TIP3   OH248642   0.902   5.316  16.283 -0.5901 -0.3006 -0.5935
 9076TIP3    H148643   0.816   5.355  16.294 -0.7875 -0.7192 -0.6332
 9076TIP3    H248644   0.931   5.345  16.196 -0.5522  0.0946 -0.4531
 9077TIP3   OH248645   5.423   4.856  14.155 -0.3414 -0.1699  0.1839
 9077TIP3    H148646   5.493   4.919  14.172  0.6634 -0.9462 -0.9052
 9077TIP3    H248647   5.351   4.908  14.120  0.9714  0.2654 -2.0742
 9078TIP3   OH248648   2.117   3.736  13.268  0.1199  0.1769 -0.1619
 9078TIP3    H148649   2.188   3.787  13.229  0.0728 -0.2066 -0.7668
 9078TIP3    H248650   2.160   3.687  13.339  0.0624  1.4206  0.7718
 9079TIP3   OH248651   4.323   3.890   2.522 -0.2937 -0.1933  0.0894
 9079TIP3    H148652   4.292   3.806   2.556 -2.1480 -0.4268 -1.9083
 9079TIP3    H248653   4.416   3.876   2.505 -0.9965 -2.7690 -2.4383
 9080TIP3   OH248654   2.986   4.497   1.594 -0.1587 -0.1262 -0.3903
 9080TIP3    H148655   2.982   4.445   1.513 -0.8254 -0.8410  0.0880
 9080TIP3    H248656   2.918   4.460   1.649  0.8935 -0.2495  0.8644
 9081TIP3   OH248657   4.786   0.730   2.634 -0.2848 -0.3799  0.5325
 9081TIP3    H148658   4.702   0.763   2.603  0.9573  1.3762 -1.1670
 9081TIP3    H248659   4.831   0.700   2.555  0.4817 -1.8920  1.4901
 9082TIP3   OH248660   0.028   1.624  15.213  0.1465 -0.2799 -0.2071
 9082TIP3    H148661   0.098   1.668  15.261  0.4277 -1.6581  0.7258
 9082TIP3    H248662   0.028   1.535  15.248 -0.9140 -0.8022 -1.4522
 9083TIP3   OH248663   3.277   2.409  15.994 -0.3739  0.1775  0.8010
 9083TIP3    H148664   3.370   2.396  15.978 -0.3902  0.8217  0.1282
 9083TIP3    H248665   3.269   2.498  16.026 -0.8885  0.6425 -0.5253
 9084TIP3   OH248666   0.706   0.421   4.525  0.2902  0.0195  0.1682
 9084TIP3    H148667   0.636   0.480   4.554  0.7596  0.3118  0.7431
 9084TIP3    H248668   0.660   0.344   4.491 -0.3541  0.8918 -1.0317
 9085TIP3   OH248669   2.782   6.641  12.598  0.2160 -0.2388 -0.3805
 9085TIP3    H148670   2.861   6.692  12.582  0.5179  0.2464  2.1962
 9085TIP3    H248671   2.710   6.700  12.574  0.5966  0.9065  1.1590
 9086TIP3   OH248672   4.890   5.968   5.323  0.5181 -0.0200 -0.4873
 9086TIP3    H148673   4.978   5.985   5.357  0.1172  0.9227  0.1154
 9086TIP3    H248674   4.901   5.965   5.228  1.2399 -0.1869 -0.4065
 9087TIP3   OH248675   2.591   4.980  14.445  0.0876  0.0743 -0.2922
 9087TIP3    H148676   2.574   4.958  14.536  2.6984  1.3229  0.6265
 9087TIP3    H248677   2.553   5.067  14.433  1.2043  0.6528  0.1845
 9088TIP3   OH248678   0.103   2.622   5.482  0.6385 -0.1471 -0.1839
 9088TIP3    H148679   0.119   2.659   5.395 -0.6242 -0.5258 -0.6008
 9088TIP3    H248680   0.008   2.624   5.492  0.7463 -0.3353  1.1012
 9089TIP3   OH248681   1.495   0.428  14.582 -0.0733 -0.0648  0.0255
 9089TIP3    H148682   1.411   0.383  14.571 -0.1523  0.0740  0.0512
 9089TIP3    H248683   1.560   0.364  14.556 -0.2379  0.1406 -0.9224
 9090TIP3   OH248684   2.652   1.346   4.123  0.5227  0.0647 -0.1148
 9090TIP3    H148685   2.594   1.420   4.104  0.8762  0.1369 -0.9604
 9090TIP3    H248686   2.593   1.273   4.139  0.1811  0.2862 -0.3415
 9091TIP3   OH248687   2.089   1.037   5.501  0.3915 -0.2857 -0.1415
 9091TIP3    H148688   2.134   1.017   5.583 -0.2724  1.7314  0.7808
 9091TIP3    H248689   2.058   1.127   5.512 -1.0059 -0.4739 -2.0314
 9092TIP3   OH248690   3.635   0.500  10.802 -0.0405 -0.0764 -0.4624
 9092TIP3    H148691   3.724   0.506  10.836  0.5159 -1.6814 -1.5400
 9092TIP3    H248692   3.590   0.441  10.863  0.0830 -0.5001 -0.7773
 9093TIP3   OH248693   5.562   0.078   5.527 -0.2209  0.2985 -0.2132
 9093TIP3    H148694   5.506   0.124   5.590  1.2869  1.8391  0.1051
 9093TIP3    H248695   5.637   0.048   5.580  0.1396 -0.1056 -0.9376
 9094TIP3   OH248696   0.221   4.152   3.056  0.0654 -0.1293 -0.1517
 9094TIP3    H148697   0.175   4.101   3.124 -1.3530 -0.0222 -0.9930
 9094TIP3    H248698   0.159   4.220   3.032  1.9062  2.0264  0.8947
 9095TIP3   OH248699   4.047   1.554   3.113  0.0075 -0.6612  0.0473
 9095TIP3    H148700   4.032   1.616   3.042  0.7292 -2.5018 -1.8272
 9095TIP3    H248701   3.960   1.534   3.147 -0.3245  0.4990 -0.0876
 9096TIP3   OH248702   2.217   2.852   3.975  0.5017 -0.5221 -0.2006
 9096TIP3    H148703   2.142   2.814   3.929  0.6748 -1.6414  0.4191
 9096TIP3    H248704   2.184   2.936   4.008 -1.3003 -1.9958  2.1127
 9097TIP3   OH248705   5.019   6.503  13.771  0.8213 -0.2620  0.3484
 9097TIP3    H148706   4.978   6.569  13.715 -0.9911 -1.3198  0.3318
 9097TIP3    H248707   5.055   6.553  13.844  0.4455  0.8486 -0.1986
 9098TIP3   OH248708   0.989   5.172   5.551 -0.2343 -0.0698 -0.6261
 9098TIP3    H148709   1.084   5.172   5.565 -0.4356  1.4020  1.0329
 9098TIP3    H248710   0.952   5.144   5.635 -1.3204  1.8224 -0.4225
 9099TIP3   OH248711   3.750   3.668   5.416 -0.2872  0.5292 -0.4623
 9099TIP3    H148712   3.780   3.744   5.466  0.3806  0.3417 -0.5592
 9099TIP3    H248713   3.660   3.689   5.391  0.0409  1.5006 -0.8840
 9100TIP3   OH248714   5.015   3.015   4.765 -0.0120  0.2362  0.4753
 9100TIP3    H148715   4.985   3.082   4.704  0.1257  0.0139  0.1628
 9100TIP3    H248716   5.108   3.006   4.747 -0.6236 -2.7561 -2.2005
 9101TIP3   OH248717   2.722   4.529   2.513  0.5614 -0.0142 -0.2604
 9101TIP3    H148718   2.742   4.475   2.591 -0.7041 -0.4908 -0.2408
 9101TIP3    H248719   2.807   4.558   2.482  1.4394 -2.7733 -0.7842
 9102TIP3   OH248720   4.352   1.167   0.686 -0.0861  0.6385 -0.7108
 9102TIP3    H148721   4.329   1.081   0.721  1.2663  0.8391  0.7727
 9102TIP3    H248722   4.283   1.225   0.720 -0.2553  0.3730 -0.5953
 9103TIP3   OH248723   2.525   2.957   1.742 -0.3392 -0.2804 -0.1853
 9103TIP3    H148724   2.472   2.987   1.816 -1.3947  0.4010 -1.1820
 9103TIP3    H248725   2.570   3.035   1.712 -2.3811  0.2135 -2.2169
 9104TIP3   OH248726   2.595   0.231  16.778 -0.7351  0.5396 -0.7845
 9104TIP3    H148727   2.521   0.180  16.810 -1.0671  2.5397  1.9780
 9104TIP3    H248728   2.672   0.185  16.809 -1.0308  1.5617  1.6657
 9105TIP3   OH248729   3.376   2.198  11.355 -0.4695 -0.2509  0.6316
 9105TIP3    H148730   3.344   2.108  11.356  1.5644 -1.0361  1.9283
 9105TIP3    H248731   3.445   2.199  11.289 -0.2511  0.2718  0.8618
 9106TIP3   OH248732   2.970   5.059   4.975  0.2988 -0.9384 -0.2840
 9106TIP3    H148733   2.997   5.033   4.887 -0.8175  0.7611 -1.1905
 9106TIP3    H248734   2.904   4.993   4.999  0.0568 -0.9903 -1.0450
 9107TIP3   OH248735   1.253   3.543  11.389 -0.4777  0.5595  0.4080
 9107TIP3    H148736   1.234   3.522  11.297  0.1903  2.4137 -0.2078
 9107TIP3    H248737   1.169   3.572  11.424 -1.1530 -1.8290  0.9542
 9108TIP3   OH248738   0.782   2.137   3.874  0.1462 -0.2265 -0.1371
 9108TIP3    H148739   0.790   2.093   3.959  3.6700 -0.0648 -0.2393
 9108TIP3    H248740   0.857   2.196   3.871 -2.6995  3.8098 -1.2513
 9109TIP3   OH248741   1.299   5.583  13.550 -0.2880 -0.2289 -0.2883
 9109TIP3    H148742   1.297   5.614  13.641 -0.5823  0.9873 -0.6849
 9109TIP3    H248743   1.369   5.634  13.510  0.3641 -1.3272 -0.5616
 9110TIP3   OH248744   4.926   1.115  17.050  0.5204  0.1520 -0.1578
 9110TIP3    H148745   4.884   1.167  16.982 -1.0515 -1.7175 -0.7086
 9110TIP3    H248746   4.870   1.126  17.127  1.2329  0.7360  0.2971
 9111TIP3   OH248747   0.746   1.670  11.715  0.2118  0.3497  0.0097
 9111TIP3    H148748   0.818   1.722  11.750  1.1702  0.2522 -1.6867
 9111TIP3    H248749   0.718   1.615  11.788  2.0715  0.1780  0.6437
 9112TIP3   OH248750   0.901   1.643   3.864 -0.6140 -0.1775  0.0779
 9112TIP3    H148751   0.994   1.659   3.881 -0.5926  0.2781 -0.4344
 9112TIP3    H248752   0.879   1.704   3.793 -1.1755 -0.6389 -0.1519
 9113TIP3   OH248753   1.121   6.734  11.629 -0.0853  0.9202 -0.2626
 9113TIP3    H148754   1.150   6.804  11.571 -0.1762  0.1901 -1.2082
 9113TIP3    H248755   1.042   6.769  11.671 -0.5310  1.1347 -1.2483
 9114TIP3   OH248756   6.381   2.964   1.732  0.3104  0.3485  0.2975
 9114TIP3    H148757   6.450   2.900   1.716  2.4467  2.4534  0.4248
 9114TIP3    H248758   6.349   2.944   1.820  0.9075 -0.5527  0.3191
 9115TIP3   OH248759   0.399   3.650   5.332 -0.1548  0.5885 -0.2874
 9115TIP3    H148760   0.418   3.574   5.387 -0.5876 -0.7824 -1.9439
 9115TIP3    H248761   0.361   3.715   5.392 -0.1329 -0.6348  1.1013
 9116TIP3   OH248762   1.933   6.215   4.597  0.0278  0.3149 -0.2260
 9116TIP3    H148763   2.023   6.214   4.631  0.3069  0.2751 -0.9444
 9116TIP3    H248764   1.931   6.290   4.538 -0.2227 -0.0861 -0.7256
 9117TIP3   OH248765   0.477   1.421  13.946  0.1170  0.5091 -0.5715
 9117TIP3    H148766   0.458   1.329  13.928  0.6085  0.2081  0.3500
 9117TIP3    H248767   0.475   1.427  14.042 -0.2680  1.5395 -0.6352
 9118TIP3   OH248768   0.052   6.232   4.125  0.3348 -0.1677 -0.1911
 9118TIP3    H148769   0.028   6.143   4.148 -0.3469  0.2475  0.7366
 9118TIP3    H248770  -0.031   6.277   4.108  0.7180  0.0244 -1.7342
 9119TIP3   OH248771   6.798   5.392  13.568  0.3014  0.1133 -0.6430
 9119TIP3    H148772   6.731   5.352  13.623  1.8605 -0.0635  1.2422
 9119TIP3    H248773   6.768   5.481  13.553 -0.0690  0.2214  0.6866
 9120TIP3   OH248774   4.398   6.479   0.554  0.0193 -0.3083 -0.7672
 9120TIP3    H148775   4.307   6.483   0.586  0.2050 -1.6716  0.0071
 9120TIP3    H248776   4.408   6.389   0.523  1.5891 -0.6904  0.7039
 9121TIP3   OH248777   1.081   2.529   5.459  0.4806  0.6633  0.3450
 9121TIP3    H148778   1.032   2.512   5.540 -1.2096 -0.6582 -0.9002
 9121TIP3    H248779   1.045   2.612   5.427  1.2788  1.2831  0.9943
 9122TIP3   OH248780   4.892   0.978  11.272 -0.2143  0.1628 -0.0562
 9122TIP3    H148781   4.950   0.903  11.284 -0.2506  0.2339  0.5983
 9122TIP3    H248782   4.841   0.956  11.194  1.2378  0.4649 -1.1202
 9123TIP3   OH248783   5.650   2.083  11.549  0.4144 -0.3408 -1.1148
 9123TIP3    H148784   5.674   1.999  11.589  0.5489  0.3018  0.1999
 9123TIP3    H248785   5.554   2.085  11.551  0.3614 -0.9942 -2.3103
 9124TIP3   OH248786   5.652   5.169   2.111  0.1211  0.9628  0.2382
 9124TIP3    H148787   5.700   5.226   2.171 -2.6765  0.8084  2.8641
 9124TIP3    H248788   5.587   5.125   2.167 -1.1192 -0.9991 -2.5466
 9125TIP3   OH248789   6.600   6.348   3.085 -0.0301 -0.1317  0.3669
 9125TIP3    H148790   6.558   6.279   3.034 -0.7632 -0.1821  1.0125
 9125TIP3    H248791   6.693   6.324   3.086 -0.2508 -1.0327  0.4497
 9126TIP3   OH248792   6.787   6.128   3.252 -0.0776  0.0183  0.6151
 9126TIP3    H148793   6.862   6.185   3.236 -0.0078  0.3158  1.9032
 9126TIP3    H248794   6.783   6.119   3.347 -1.3606 -0.4290  0.5432
 9127TIP3   OH248795   2.947   0.577  16.849  0.7918 -0.0943 -0.5544
 9127TIP3    H148796   2.907   0.547  16.930  0.4210  2.1626  0.1716
 9127TIP3    H248797   3.022   0.631  16.877  0.7473  0.6003 -1.6985
 9128TIP3   OH248798   2.154   5.398   2.111  0.2545  0.3382  0.2478
 9128TIP3    H148799   2.159   5.445   2.028  0.2278 -0.2932 -0.1154
 9128TIP3    H248800   2.088   5.330   2.097  0.5234 -0.0179  0.6583
 9129TIP3   OH248801   2.213   2.093   3.102  0.4608  0.0025 -0.3550
 9129TIP3    H148802   2.178   2.027   3.161  1.3304 -0.4490 -0.3297
 9129TIP3    H248803   2.261   2.044   3.036  2.4418  0.6456  0.5260
 9130TIP3   OH248804   5.393   2.531   4.415  0.9218 -0.3861 -0.4655
 9130TIP3    H148805   5.481   2.531   4.453  0.9082 -0.2668 -0.4329
 9130TIP3    H248806   5.334   2.514   4.488  0.7847  1.2427 -0.1506
 9131TIP3   OH248807   6.461   5.752  16.282  0.4172  0.3594  0.0970
 9131TIP3    H148808   6.509   5.691  16.226  1.5493 -0.2857  1.6954
 9131TIP3    H248809   6.432   5.699  16.356 -0.9416  1.2206  0.2186
 9132TIP3   OH248810   2.116   4.056  15.672  0.1564  0.7878 -0.2888
 9132TIP3    H148811   2.108   4.109  15.751  0.4699  2.2264 -1.1939
 9132TIP3    H248812   2.031   4.013  15.663  0.4954 -0.3380  1.4446
 9133TIP3   OH248813   3.283   3.764   4.741 -0.0205  0.4871 -0.6427
 9133TIP3    H148814   3.308   3.830   4.677 -2.3066  1.6261 -0.4539
 9133TIP3    H248815   3.320   3.795   4.823  0.7873  0.3330 -0.9331
 9134TIP3   OH248816   0.627   2.091  11.816  0.6821 -0.2800  0.4377
 9134TIP3    H148817   0.586   2.096  11.902  1.4360 -1.8153  0.9356
 9134TIP3    H248818   0.562   2.126  11.756  0.0416  0.5876  1.5993
 9135TIP3   OH248819   4.909   3.993   2.548 -0.4148 -0.5665 -0.5875
 9135TIP3    H148820   4.969   4.042   2.603 -2.1050  1.1551 -0.1560
 9135TIP3    H248821   4.892   3.912   2.597 -0.3423  0.0294  0.4513
 9136TIP3   OH248822   5.387   3.324  16.400 -0.0402 -0.4361 -0.2259
 9136TIP3    H148823   5.323   3.375  16.349  0.1052 -2.0014 -2.0876
 9136TIP3    H248824   5.456   3.387  16.421 -0.5513  0.4845 -1.1923
 9137TIP3   OH248825   5.651   1.399  14.541 -0.2712  0.0271 -0.2799
 9137TIP3    H148826   5.721   1.464  14.531 -0.5968  0.7547  1.7892
 9137TIP3    H248827   5.676   1.328  14.483  1.5192  0.8170 -0.5352
 9138TIP3   OH248828   6.559   0.999   2.097  0.2203 -0.3900 -0.1243
 9138TIP3    H148829   6.470   0.987   2.129  0.2972  2.3029  1.4170
 9138TIP3    H248830   6.608   0.926   2.135 -0.9542 -0.8027  0.6519
 9139TIP3   OH248831   6.576   5.811   2.634  0.5128 -0.0169 -0.0512
 9139TIP3    H148832   6.488   5.803   2.672 -0.0748  1.0748 -1.0979
 9139TIP3    H248833   6.636   5.793   2.706 -0.5670 -0.5828  0.7311
 9140TIP3   OH248834   5.418   1.499   3.483  0.8073  0.0787  0.6593
 9140TIP3    H148835   5.340   1.445   3.498  2.5969 -2.3471  1.7630
 9140TIP3    H248836   5.383   1.580   3.445 -2.0902 -1.5936 -0.6245
 9141TIP3   OH248837   1.108   3.346  16.830  0.9776  1.0483 -0.5374
 9141TIP3    H148838   1.114   3.440  16.812 -1.8972  0.9564 -2.6353
 9141TIP3    H248839   1.015   3.332  16.852  1.7629 -1.0278  1.9901
 9142TIP3   OH248840   4.764   1.833  14.162  0.4691  0.5306 -0.0154
 9142TIP3    H148841   4.782   1.755  14.109  0.9155  0.1174  0.7238
 9142TIP3    H248842   4.717   1.892  14.103 -1.4732 -0.9874 -0.1052
 9143TIP3   OH248843   0.084   1.817   4.712 -0.1969  0.1505  0.9042
 9143TIP3    H148844   0.135   1.872   4.773  1.7404  1.4108 -1.6482
 9143TIP3    H248845   0.006   1.869   4.693 -0.1019  0.4142  1.2130
 9144TIP3   OH248846   4.505   2.792  15.937  0.3479 -0.1098 -0.6959
 9144TIP3    H148847   4.513   2.875  15.983  1.5477  0.0020 -1.0851
 9144TIP3    H248848   4.592   2.753  15.941  0.4040 -0.2618 -2.5471
 9145TIP3   OH248849   2.834   6.626  14.336 -0.0750 -0.5878  0.2066
 9145TIP3    H148850   2.770   6.665  14.276  3.2434  3.3896 -1.2914
 9145TIP3    H248851   2.858   6.543  14.295  0.9243  1.2756 -3.4166
 9146TIP3   OH248852   3.119   4.326   1.810 -0.2303  0.4992 -0.0459
 9146TIP3    H148853   3.210   4.306   1.791 -0.7738 -1.4725 -0.8243
 9146TIP3    H248854   3.088   4.374   1.733  0.3306  1.9296  0.5841
 9147TIP3   OH248855   4.020   1.391   6.448 -0.4899 -0.6137  0.0725
 9147TIP3    H148856   3.982   1.387   6.360  0.0646 -1.8921 -0.1431
 9147TIP3    H248857   4.112   1.416   6.433 -0.1625 -1.6962  0.1876
 9148TIP3   OH248858   3.401   0.878   5.473  0.0060  0.4417 -0.2200
 9148TIP3    H148859   3.319   0.911   5.437  0.6504  2.3796 -0.0049
 9148TIP3    H248860   3.462   0.878   5.400 -0.1683 -1.1011 -0.4067
 9149TIP3   OH248861   2.937   3.807  10.530  0.5189 -0.1614  0.6046
 9149TIP3    H148862   3.007   3.860  10.491 -0.2820  0.0239 -0.6354
 9149TIP3    H248863   2.973   3.718  10.534  0.0267 -0.5798 -2.3172
 9150TIP3   OH248864   3.049   5.254  15.020  0.0946 -0.0160 -0.1546
 9150TIP3    H148865   3.128   5.298  14.988  0.7683 -0.1325  1.2640
 9150TIP3    H248866   3.072   5.161  15.016 -0.0595 -0.0613  0.0488
 9151TIP3   OH248867   2.443   2.587   2.937 -0.0315 -0.0916  0.5732
 9151TIP3    H148868   2.361   2.548   2.906  0.4965 -2.0331  1.4601
 9151TIP3    H248869   2.439   2.578   3.033  0.9809  0.2588  0.6597
 9152TIP3   OH248870   3.652   6.512  13.806 -0.7272  0.1384  0.9027
 9152TIP3    H148871   3.734   6.498  13.854 -1.7180  0.7115  2.8795
 9152TIP3    H248872   3.658   6.603  13.777  0.0818 -0.3488 -0.5466
 9153TIP3   OH248873   5.701   3.180  11.019  0.1646  0.0808 -0.1095
 9153TIP3    H148874   5.794   3.202  11.020  0.4177 -0.9377  0.3820
 9153TIP3    H248875   5.696   3.093  11.060 -1.1761  0.8089  1.4255
 9154TIP3   OH248876   2.709   4.340  16.556 -0.2864  0.0846  0.0156
 9154TIP3    H148877   2.688   4.282  16.628 -0.2867 -0.9167 -0.7647
 9154TIP3    H248878   2.760   4.411  16.595 -1.6651  0.4421  1.2621
 9155TIP3   OH248879   6.505   3.228  11.494  0.1172 -0.1540 -0.2042
 9155TIP3    H148880   6.536   3.295  11.433  1.6981  0.2086  0.9609
 9155TIP3    H248881   6.541   3.146  11.459  0.7976  0.0174  0.0891
 9156TIP3   OH248882   4.163   6.747  11.134 -0.0133  0.3605  0.1797
 9156TIP3    H148883   4.255   6.743  11.160 -0.0599  0.8557  0.4314
 9156TIP3    H248884   4.115   6.732  11.215 -0.1561  0.5541  0.1299
 9157TIP3   OH248885   4.767   6.584  12.429 -0.1349 -0.0810  0.2119
 9157TIP3    H148886   4.799   6.498  12.455  0.2043 -0.2959 -0.8741
 9157TIP3    H248887   4.780   6.639  12.507  1.8013 -0.4376  0.1751
 9158TIP3   OH248888   2.605   5.743   0.091  0.1985 -0.6248  0.4152
 9158TIP3    H148889   2.614   5.818   0.032  0.4742 -1.2979 -0.4338
 9158TIP3    H248890   2.693   5.704   0.093  0.2786 -0.4205  1.5532
 9159TIP3   OH248891   4.699   5.248  12.677 -0.9518 -0.0344 -0.2836
 9159TIP3    H148892   4.704   5.324  12.618  1.4045 -0.0585 -0.2204
 9159TIP3    H248893   4.737   5.176  12.627 -2.3363 -0.9916 -0.0166
 9160TIP3   OH248894   4.537   2.080   2.769 -0.6671  0.4105  0.4643
 9160TIP3    H148895   4.611   2.135   2.793  0.2882 -0.9889  0.8550
 9160TIP3    H248896   4.573   2.016   2.708 -1.0566 -1.4587  2.0818
 9161TIP3   OH248897   3.183   2.510  15.585 -0.0341  0.6740  0.7778
 9161TIP3    H148898   3.198   2.569  15.658  2.0200 -0.0795  1.0423
 9161TIP3    H248899   3.190   2.423  15.622  1.4495  0.2731 -0.3349
 9162TIP3   OH248900   4.731   3.291   3.472 -0.1140  0.3060 -0.6968
 9162TIP3    H148901   4.816   3.319   3.436  0.0831  0.2413 -0.2868
 9162TIP3    H248902   4.667   3.328   3.411  0.2021  0.4707 -0.9386
 9163TIP3   OH248903   6.273   5.056  13.111 -0.1597  0.1831  0.1081
 9163TIP3    H148904   6.222   5.054  13.191 -1.5014  0.1075 -0.7195
 9163TIP3    H248905   6.356   5.097  13.136  0.3971 -1.9158  2.0425
 9164TIP3   OH248906   4.625   4.831   2.750  0.1166 -0.2483 -0.5404
 9164TIP3    H148907   4.638   4.838   2.844 -0.4421  1.7057 -0.5842
 9164TIP3    H248908   4.686   4.763   2.723 -0.2153 -1.3573  1.3130
 9165TIP3   OH248909   3.100   5.978  14.724  0.5172 -0.4047  0.6947
 9165TIP3    H148910   3.015   5.956  14.762 -0.9695  0.1200 -2.0055
 9165TIP3    H248911   3.096   5.941  14.636  2.1417  1.6100 -0.3138
 9166TIP3   OH248912   5.402   1.313  13.781 -0.2798  0.4091  0.4083
 9166TIP3    H148913   5.329   1.332  13.840 -0.4181  1.0794  0.0346
 9166TIP3    H248914   5.374   1.350  13.697  0.1118 -0.1207  0.0396
 9167TIP3   OH248915   2.538   2.840  14.383 -0.7243 -0.0255 -0.7925
 9167TIP3    H148916   2.544   2.767  14.322 -2.5943 -1.0853  0.1947
 9167TIP3    H248917   2.528   2.799  14.469 -1.2968  1.3814 -0.1542
 9168TIP3   OH248918   1.378   5.446  14.343  0.6203 -0.2349 -0.3610
 9168TIP3    H148919   1.297   5.480  14.382  0.6540 -0.5157 -0.0402
 9168TIP3    H248920   1.447   5.478  14.401  0.7628  0.1664 -0.7413
 9169TIP3   OH248921   2.257   1.382   4.450  0.3377 -0.4347  0.3927
 9169TIP3    H148922   2.165   1.394   4.424  0.9517  0.8727 -1.3265
 9169TIP3    H248923   2.263   1.289   4.470 -1.3801 -0.5398  0.6380
 9170TIP3   OH248924   6.129   6.817   2.704  0.5090  0.5066 -0.0191
 9170TIP3    H148925   6.085   6.754   2.647 -0.8048 -0.0935  1.5651
 9170TIP3    H248926   6.206   6.845   2.655 -0.9438  0.6184 -2.3828
 9171TIP3   OH248927   4.955   3.414  11.444  0.3573  0.2059 -0.1752
 9171TIP3    H148928   4.941   3.389  11.536  1.5014 -0.6745 -0.2235
 9171TIP3    H248929   5.050   3.421  11.435  0.4115 -1.8025 -1.8161
 9172TIP3   OH248930   5.988   1.153  12.525 -1.0084 -0.1286 -0.0096
 9172TIP3    H148931   6.001   1.195  12.611  1.0741  0.3969 -0.5357
 9172TIP3    H248932   5.903   1.187  12.496 -1.7404 -0.2686  1.7989
 9173TIP3   OH248933   6.257   2.116  15.244  0.0263 -0.1731  0.8327
 9173TIP3    H148934   6.182   2.135  15.189 -1.2539 -1.0345  2.2141
 9173TIP3    H248935   6.265   2.192  15.301  1.1784  0.5926 -0.2891
 9174TIP3   OH248936   5.263   6.087  14.897 -0.6499 -0.2290 -0.7332
 9174TIP3    H148937   5.240   6.142  14.822  0.6480  0.8043 -0.4004
 9174TIP3    H248938   5.272   5.999  14.860 -1.0245  0.0844 -1.5961
 9175TIP3   OH248939   1.788   5.441  16.984 -0.2089  0.0224 -0.2508
 9175TIP3    H148940   1.716   5.385  16.954  0.6402 -0.0636 -2.2860
 9175TIP3    H248941   1.788   5.432  17.079 -2.8673  0.0078 -0.1714
 9176TIP3   OH248942   1.062   4.414  13.442 -0.2170 -0.0571 -0.7145
 9176TIP3    H148943   1.041   4.362  13.365 -0.1240  1.5627 -1.9038
 9176TIP3    H248944   0.978   4.446  13.474 -0.3329 -1.3999  0.3939
 9177TIP3   OH248945   2.255   5.583   5.693 -0.5708 -0.6228 -0.4259
 9177TIP3    H148946   2.191   5.655   5.692 -1.5839 -1.4387  1.2178
 9177TIP3    H248947   2.203   5.504   5.701  0.6087 -1.3981 -0.1208
 9178TIP3   OH248948   5.772   5.652   0.772 -0.0518 -0.0559 -0.4651
 9178TIP3    H148949   5.762   5.639   0.867  0.0819 -0.4532 -0.5040
 9178TIP3    H248950   5.864   5.632   0.755  0.3372  1.5429 -0.4323
 9179TIP3   OH248951   3.332   1.705  14.106 -0.4411  0.5462 -0.8210
 9179TIP3    H148952   3.295   1.710  14.194 -1.0145  1.6147 -1.1187
 9179TIP3    H248953   3.256   1.704  14.048 -0.0336  1.7428 -1.3890
 9180TIP3   OH248954   6.432   2.216  11.353 -0.0049  0.2599  0.1298
 9180TIP3    H148955   6.354   2.269  11.368 -0.6522 -0.7468  0.4025
 9180TIP3    H248956   6.476   2.213  11.438  0.1723  0.5664  0.0509
 9181TIP3   OH248957   0.643   2.550   5.594 -0.2588 -0.1607  0.1526
 9181TIP3    H148958   0.567   2.573   5.540  0.5699  3.0917  0.1512
 9181TIP3    H248959   0.664   2.631   5.641  1.5724 -1.7186  2.2586
 9182TIP3   OH248960   2.253   5.271   2.334  0.7081 -0.2684  0.7722
 9182TIP3    H148961   2.203   5.310   2.262 -0.0975 -1.1991  0.8094
 9182TIP3    H248962   2.265   5.180   2.309  1.2842 -0.3590  1.3613
 9183TIP3   OH248963   3.617   5.069   1.524 -0.0576  0.1762 -0.2491
 9183TIP3    H148964   3.684   5.000   1.528  1.6455  1.7576 -0.2462
 9183TIP3    H248965   3.656   5.143   1.569 -1.7884  1.2149 -0.3797
 9184TIP3   OH248966   5.803   4.221   5.778 -0.1497  0.0464  0.5991
 9184TIP3    H148967   5.867   4.186   5.716 -1.4259 -0.0487 -0.7227
 9184TIP3    H248968   5.781   4.147   5.835 -0.5773 -0.4879 -0.2411
 9185TIP3   OH248969   4.015   2.720  16.783  0.2251 -0.0384  0.3661
 9185TIP3    H148970   4.074   2.651  16.753  1.3648  0.9025  0.3862
 9185TIP3    H248971   3.958   2.676  16.846  0.4132 -1.1294 -0.1933
 9186TIP3   OH248972   1.187   6.551  14.199  0.1328  0.7119 -0.1697
 9186TIP3    H148973   1.126   6.547  14.273 -1.1519 -1.5464 -1.2619
 9186TIP3    H248974   1.130   6.547  14.122  1.4807  2.4476 -1.3347
 9187TIP3   OH248975   5.237   1.111   4.372  0.2878  0.1438  0.0149
 9187TIP3    H148976   5.213   1.165   4.447 -1.2083 -1.5374  0.8344
 9187TIP3    H248977   5.258   1.174   4.303 -0.1039  1.7412  1.2830
 9188TIP3   OH248978   1.825   0.869   3.024 -0.1436 -0.0496 -0.0231
 9188TIP3    H148979   1.904   0.921   3.036 -0.6921  0.7044  0.4804
 9188TIP3    H248980   1.802   0.839   3.112  0.3345 -1.4216 -0.3500
 9189TIP3   OH248981   4.174   0.980   3.525 -0.5527 -0.0328 -0.5565
 9189TIP3    H148982   4.127   0.926   3.588  0.9268 -0.5357  0.1634
 9189TIP3    H248983   4.265   0.977   3.554 -0.0647  0.9147 -1.8870
 9190TIP3   OH248984   4.825   0.447   2.751 -0.3093  0.2005 -0.4418
 9190TIP3    H148985   4.858   0.478   2.836  3.0161  1.5483 -2.0284
 9190TIP3    H248986   4.789   0.525   2.709  2.3442  0.7574 -1.9629
 9191TIP3   OH248987   5.430   1.808   1.934 -0.6856 -0.3142  0.3754
 9191TIP3    H148988   5.416   1.890   1.887  1.3093 -0.2377 -0.1713
 9191TIP3    H248989   5.383   1.820   2.017  0.1946  1.7101  0.6379
 9192TIP3   OH248990   2.918   3.794   5.806  0.5799 -0.1447  0.3753
 9192TIP3    H148991   2.970   3.874   5.807 -0.5938  0.7192 -1.3346
 9192TIP3    H248992   2.858   3.803   5.880  1.6027 -0.2647  1.2238
 9193TIP3   OH248993   4.922   2.190   4.723  0.0567 -0.2939  0.0224
 9193TIP3    H148994   4.940   2.115   4.666 -0.1225 -0.7235  0.5193
 9193TIP3    H248995   5.005   2.207   4.768  1.0317  1.7952 -2.3161
 9194TIP3   OH248996   4.574   4.898  15.952 -0.4707 -0.1477 -0.2386
 9194TIP3    H148997   4.534   4.957  15.889 -1.1777 -0.2773  0.0869
 9194TIP3    H248998   4.663   4.885  15.919 -0.6891  0.1460 -0.9595
 9195TIP3   OH248999   3.479   3.629   5.281 -0.1529 -0.0357 -0.0930
 9195TIP3    H149000   3.525   3.567   5.226  1.8822  2.2074 -1.1120
 9195TIP3    H249001   3.435   3.688   5.220  0.7514  1.4888  0.6359
 9196TIP3   OH249002   5.488   4.535   0.159  0.4014  0.4650 -0.1386
 9196TIP3    H149003   5.442   4.517   0.076  1.3613  0.8783 -0.7847
 9196TIP3    H249004   5.508   4.448   0.194  1.7657  0.2257 -1.3838
 9197TIP3   OH249005   5.977   2.060  10.533 -0.3816 -0.0937  0.3313
 9197TIP3    H149006   5.972   2.106  10.617  3.0833 -0.2895  0.7909
 9197TIP3    H249007   6.054   2.098  10.490  0.9828 -3.4670 -0.4835
 9198TIP3   OH249008   0.460   5.413   0.161 -0.0652  0.2159  0.4733
 9198TIP3    H149009   0.489   5.502   0.183  2.3350 -0.0204 -1.3205
 9198TIP3    H249010   0.539   5.359   0.171 -1.0501 -1.4023 -0.1115
 9199TIP3   OH249011   3.932   1.334  15.923 -0.0189 -0.3616 -0.3313
 9199TIP3    H149012   3.906   1.243  15.908  0.8054 -0.3431 -2.1157
 9199TIP3    H249013   3.980   1.359  15.844  0.3297  1.4323  0.3923
 9200TIP3   OH249014   5.793   6.730  12.219 -0.1139 -0.0266 -0.3977
 9200TIP3    H149015   5.740   6.755  12.295  0.0528  0.0536 -0.3073
 9200TIP3    H249016   5.800   6.635  12.225  2.3496  0.1742  1.3482
 9201TIP3   OH249017   0.887   4.634   4.848  0.7005 -0.2347 -0.6005
 9201TIP3    H149018   0.852   4.595   4.928  0.5721  1.8412  0.4242
 9201TIP3    H249019   0.867   4.727   4.856  1.5546  0.1735 -2.6113
 9202TIP3   OH249020   3.487   6.729   1.609 -0.5008  0.3212  0.0883
 9202TIP3    H149021   3.430   6.659   1.576 -0.3399  0.7301 -1.1090
 9202TIP3    H249022   3.563   6.727   1.551 -0.2583  1.1591  0.3697
 9203TIP3   OH249023   0.554   6.586  14.939 -0.3960  0.2623  0.8588
 9203TIP3    H149024   0.567   6.678  14.963  2.5001 -0.0391  0.9098
 9203TIP3    H249025   0.585   6.538  15.016  0.9405 -0.7141 -0.2423
 9204TIP3   OH249026   1.840   1.542  11.760  0.4756 -0.4036  0.3231
 9204TIP3    H149027   1.883   1.592  11.691 -1.0383  2.1613  1.1064
 9204TIP3    H249028   1.864   1.587  11.841  0.3521 -1.9749  1.2809
 9205TIP3   OH249029   0.564   4.861  14.574  0.2888 -0.0203 -0.6656
 9205TIP3    H149030   0.581   4.830  14.485  0.8245 -1.3962 -0.1083
 9205TIP3    H249031   0.640   4.833  14.624 -0.6529 -0.5317  0.5192
 9206TIP3   OH249032   3.630   0.067  12.916 -0.0219  0.2596  0.1271
 9206TIP3    H149033   3.619   0.120  12.837  1.7383  0.3430 -0.0842
 9206TIP3    H249034   3.571   0.108  12.980 -2.1245 -0.3067 -1.3159
 9207TIP3   OH249035   6.531   0.937  10.870 -0.8686  0.1213 -0.8825
 9207TIP3    H149036   6.488   0.959  10.952  0.7724  0.3004 -0.0195
 9207TIP3    H249037   6.553   0.844  10.879  3.3718  1.0476  1.0053
 9208TIP3   OH249038   0.943   4.838  12.400 -0.1695  0.6895  1.1347
 9208TIP3    H149039   0.903   4.818  12.484 -2.4787 -1.4117 -0.3212
 9208TIP3    H249040   1.021   4.783  12.396 -1.8705 -1.8846  0.6670
 9209TIP3   OH249041   1.453   1.905  11.572 -0.5241 -0.3571 -0.0488
 9209TIP3    H149042   1.537   1.887  11.529 -0.4919 -0.5547  0.0957
 9209TIP3    H249043   1.466   1.876  11.662  0.0430  1.7489  0.6163
 9210TIP3   OH249044   0.303   6.183   3.491 -0.5414  0.6501  0.6500
 9210TIP3    H149045   0.256   6.128   3.553  0.4336 -0.7753  0.1931
 9210TIP3    H249046   0.377   6.218   3.540 -0.9611  1.2821  0.8441
 9211TIP3   OH249047   1.754   5.190   1.460 -0.4330 -0.3537  0.2748
 9211TIP3    H149048   1.762   5.258   1.527  0.2602  1.3735 -1.4748
 9211TIP3    H249049   1.840   5.186   1.419 -0.8782 -1.2621 -0.6192
 9212TIP3   OH249050   6.767   1.172  11.866  0.5582 -0.5545  0.8941
 9212TIP3    H149051   6.776   1.105  11.798  2.5788  0.3587  0.1662
 9212TIP3    H249052   6.695   1.142  11.921  0.0712 -2.2544 -0.5962
 9213TIP3   OH249053   4.416   4.809  14.195 -0.1862  0.8684 -0.2439
 9213TIP3    H149054   4.388   4.828  14.285 -0.0929 -0.7945  0.1611
 9213TIP3    H249055   4.360   4.737  14.167  1.1061  0.0659 -0.8147
 9214TIP3   OH249056   4.379   4.424  16.558  0.5834 -0.2004  0.4209
 9214TIP3    H149057   4.352   4.345  16.605  0.1571  0.9353  2.1930
 9214TIP3    H249058   4.302   4.480  16.559  0.8880  0.2626 -0.8047
 9215TIP3   OH249059   0.339   1.896   1.581 -0.2570  0.1208  0.1777
 9215TIP3    H149060   0.375   1.882   1.494 -0.0177  0.3539  0.2387
 9215TIP3    H249061   0.246   1.875   1.572 -0.6059  1.7838 -0.5560
 9216TIP3   OH249062   1.330   0.244   6.617  0.2647  0.1854 -0.0883
 9216TIP3    H149063   1.242   0.237   6.655  0.3704 -0.7398  0.0203
 9216TIP3    H249064   1.329   0.184   6.542  0.5794  0.7338 -0.5439
 9217TIP3   OH249065   3.058   0.135   1.058  0.1357 -0.6716 -0.0241
 9217TIP3    H149066   2.993   0.172   0.999 -0.2187  0.1427  0.8440
 9217TIP3    H249067   3.018   0.053   1.089 -0.6339 -0.0448  0.7142
 9218TIP3   OH249068   6.107   0.667   0.982 -0.0052 -0.3330 -0.0900
 9218TIP3    H149069   6.191   0.643   0.942 -0.0952 -1.5886  0.4207
 9218TIP3    H249070   6.042   0.635   0.920 -0.1715 -3.1386  1.3841
 9219TIP3   OH249071   1.298   5.320  10.864 -0.4499  0.0843  0.4759
 9219TIP3    H149072   1.382   5.361  10.883 -0.9343  1.9990 -1.1867
 9219TIP3    H249073   1.319   5.227  10.853  1.1614  0.2831  1.5508
 9220TIP3   OH249074   2.759   0.453  14.627 -0.6058 -0.8649 -0.1328
 9220TIP3    H149075   2.803   0.423  14.706 -1.6920  2.9468  2.1504
 9220TIP3    H249076   2.673   0.410  14.631 -0.1978 -1.6969  0.0069
 9221TIP3   OH249077   4.619   5.592  16.494  0.0691  0.5979 -0.5678
 9221TIP3    H149078   4.584   5.503  16.485  0.2684  0.5024 -0.4097
 9221TIP3    H249079   4.669   5.589  16.576  0.5619  0.7008 -0.8667
 9222TIP3   OH249080   6.357   2.188  11.727  0.4308 -0.1355 -0.2334
 9222TIP3    H149081   6.381   2.221  11.814 -0.9830 -1.2498  0.6158
 9222TIP3    H249082   6.281   2.241  11.702  2.9491  2.7792 -2.5261
 9223TIP3   OH249083   2.020   1.411   5.782 -0.1301  0.0948  0.2519
 9223TIP3    H149084   1.958   1.450   5.844 -0.0725  0.1631  0.2669
 9223TIP3    H249085   2.005   1.458   5.700  1.5123  1.7834  0.8353
 9224TIP3   OH249086   2.639   2.013  16.827  0.0534  0.1446 -0.4787
 9224TIP3    H149087   2.712   2.071  16.850 -0.5225  0.9284 -0.5586
 9224TIP3    H249088   2.604   1.984  16.912 -1.7117  2.5805 -0.2452
 9225TIP3   OH249089   4.108   2.637  13.702 -0.5489  0.2013 -0.3253
 9225TIP3    H149090   4.034   2.688  13.733  0.7135  0.9971  1.5521
 9225TIP3    H249091   4.125   2.574  13.771  1.0717  0.6607 -0.2523
 9226TIP3   OH249092   2.271   2.594  11.079  0.6482 -0.6163 -0.2873
 9226TIP3    H149093   2.357   2.634  11.091  1.0590 -1.7447  0.7172
 9226TIP3    H249094   2.266   2.527  11.148 -0.1361 -2.0690 -1.6895
 9227TIP3   OH249095   4.229   1.285  16.800 -0.0962 -0.0049  0.1535
 9227TIP3    H149096   4.296   1.353  16.790  0.6018 -0.6993  0.0708
 9227TIP3    H249097   4.182   1.286  16.717 -1.9226  2.2645  1.0945
 9228TIP3   OH249098   1.929   6.582   5.733  0.1186  0.4851  0.3224
 9228TIP3    H149099   1.994   6.519   5.702 -0.3710 -0.5414  1.3003
 9228TIP3    H249100   1.851   6.529   5.749 -0.5903  1.5029  0.2989
 9229TIP3   OH249101   1.310   1.521  11.991  0.2835 -0.0657 -0.7492
 9229TIP3    H149102   1.249   1.564  11.931  1.1262  0.6962 -1.0864
 9229TIP3    H249103   1.367   1.469  11.934  0.9571  0.4976 -0.6094
 9230TIP3   OH249104   0.873   0.983  15.833  0.1126 -0.4084  0.2482
 9230TIP3    H149105   0.909   0.933  15.760  0.4969  1.0016 -0.5621
 9230TIP3    H249106   0.898   0.933  15.911  0.8857 -1.2114 -0.4974
 9231TIP3   OH249107   2.497   1.579  11.879  0.0118  0.3497  0.1030
 9231TIP3    H149108   2.576   1.534  11.851  0.5242 -0.4344  2.5451
 9231TIP3    H249109   2.451   1.516  11.935 -1.7301  1.2210 -0.2568
 9232TIP3   OH249110   5.535   0.930   5.400  0.1731 -0.3196  0.1106
 9232TIP3    H149111   5.469   0.929   5.469 -0.8952 -0.0605 -0.8964
 9232TIP3    H249112   5.569   0.840   5.399  1.0298 -0.0611  1.7142
 9233TIP3   OH249113   6.168   5.259  14.027 -0.7809 -0.2252  0.5660
 9233TIP3    H149114   6.156   5.207  14.106  1.7619 -2.3585 -0.3023
 9233TIP3    H249115   6.165   5.195  13.955  0.9111  1.0166 -0.6980
 9234TIP3   OH249116   3.294   4.647   0.118  0.3982 -0.3991 -0.5947
 9234TIP3    H149117   3.246   4.711   0.171 -0.5951 -0.1682 -1.7445
 9234TIP3    H249118   3.341   4.594   0.183 -0.9250 -0.2553  0.5413
 9235TIP3   OH249119   5.285   4.775   4.618 -0.3308 -0.4294 -0.4784
 9235TIP3    H149120   5.223   4.737   4.680  1.2795 -1.4737  0.5591
 9235TIP3    H249121   5.239   4.850   4.581 -2.7130 -1.9166 -0.7758
 9236TIP3   OH249122   5.029   3.366   0.008 -0.4130 -0.2404 -0.7305
 9236TIP3    H149123   5.011   3.436   0.071  1.8389  0.2283 -0.5351
 9236TIP3    H249124   5.087   3.306   0.055 -1.4033 -1.6854 -1.2814
 9237TIP3   OH249125   4.790   5.066  16.361  0.1755 -0.1386  0.1847
 9237TIP3    H149126   4.798   5.136  16.297 -1.2012 -1.1543 -1.1771
 9237TIP3    H249127   4.701   5.073  16.394 -0.0457 -1.3074 -0.1031
 9238TIP3   OH249128   4.286   3.118  13.736 -0.2835  0.0961 -0.3811
 9238TIP3    H149129   4.274   3.189  13.799 -1.0907 -0.9901  0.7439
 9238TIP3    H249130   4.378   3.124  13.711  0.3833 -0.0803  1.7733
 9239TIP3   OH249131   3.353   4.093  14.131 -0.1297  0.0848 -0.6881
 9239TIP3    H149132   3.417   4.163  14.144 -0.5249  0.6910 -1.8283
 9239TIP3    H249133   3.381   4.023  14.190 -0.1233  1.4630  1.0377
 9240TIP3   OH249134   4.670   3.136   5.720  0.1486  0.0460 -0.0911
 9240TIP3    H149135   4.677   3.126   5.815 -0.4930 -1.7995 -0.1999
 9240TIP3    H249136   4.752   3.179   5.695  0.1844  0.8709  1.3102
 9241TIP3   OH249137   1.339   3.233  16.738 -0.0319  0.6140  0.4093
 9241TIP3    H149138   1.263   3.257  16.791 -0.9746  0.1409 -0.6839
 9241TIP3    H249139   1.340   3.299  16.668 -0.4995 -0.3850 -0.5644
 9242TIP3   OH249140   4.043   4.566  14.069  0.4522 -0.1009 -0.1360
 9242TIP3    H149141   4.070   4.652  14.102 -1.0612  0.8167 -1.1842
 9242TIP3    H249142   3.997   4.525  14.143 -1.9620  1.4979 -0.6329
 9243TIP3   OH249143   6.195   3.218   1.839  0.5116 -0.6804 -0.7487
 9243TIP3    H149144   6.108   3.216   1.799  0.0833 -2.0973  0.1864
 9243TIP3    H249145   6.240   3.142   1.801  1.0013 -0.5286 -0.4810
 9244TIP3   OH249146   3.537   4.323   2.971 -0.4800 -0.7958 -0.6921
 9244TIP3    H149147   3.471   4.393   2.974  1.5371  1.2121  0.3206
 9244TIP3    H249148   3.515   4.266   3.044 -0.4293  0.5774  0.4531
 9245TIP3   OH249149   4.449   2.493  13.696 -0.8097  0.5880 -0.1371
 9245TIP3    H149150   4.396   2.572  13.681 -0.6304  0.7113 -0.1326
 9245TIP3    H249151   4.391   2.434  13.743 -0.8067  0.8899  0.2481
 9246TIP3   OH249152   3.041   1.095   6.243  0.1566  0.0270 -0.1769
 9246TIP3    H149153   3.130   1.070   6.265  0.0974 -0.5686 -0.6099
 9246TIP3    H249154   2.991   1.013   6.242 -0.4070  0.3582  0.1221
 9247TIP3   OH249155   3.891   5.351  10.363 -0.3915  0.2575  0.2615
 9247TIP3    H149156   3.917   5.341  10.271 -1.1338 -2.7284  0.2983
 9247TIP3    H249157   3.905   5.444  10.381  1.6376  0.5561 -2.2821
 9248TIP3   OH249158   6.674   5.421   6.301 -0.2711  0.4535 -0.9155
 9248TIP3    H149159   6.675   5.516   6.295 -0.4199  0.4372 -1.1919
 9248TIP3    H249160   6.658   5.403   6.394 -0.1691  0.6958 -0.8504
 9249TIP3   OH249161   2.360   4.707   2.415  0.2169  0.1083 -0.1507
 9249TIP3    H149162   2.363   4.731   2.322 -1.2348  0.9903  0.0043
 9249TIP3    H249163   2.301   4.632   2.418  1.0520 -0.5518 -0.0517
 9250TIP3   OH249164   3.550   6.090   5.614  0.0965  0.2727  0.1762
 9250TIP3    H149165   3.576   6.017   5.670 -1.1616  0.0845  0.5564
 9250TIP3    H249166   3.456   6.099   5.629 -0.2691  0.2741 -1.8532
 9251TIP3   OH249167   5.025   4.843  13.818  0.0126  0.3329  0.2980
 9251TIP3    H149168   4.939   4.802  13.809 -0.2741  0.7791  0.8908
 9251TIP3    H249169   5.008   4.936  13.802 -0.0330  0.7663  2.5020
 9252TIP3   OH249170   1.782   2.831   5.296 -0.2683  0.2203  0.1796
 9252TIP3    H149171   1.849   2.839   5.228 -1.3289  0.3915 -0.8758
 9252TIP3    H249172   1.770   2.737   5.307 -0.8159  0.1855 -0.6225
 9253TIP3   OH249173   2.422   1.208  14.899 -0.0938  0.2513 -0.1683
 9253TIP3    H149174   2.425   1.280  14.962 -1.1134  0.1864 -0.0258
 9253TIP3    H249175   2.332   1.176  14.903 -0.4971  0.8973 -2.3823
 9254TIP3   OH249176   5.108   4.595   5.514  0.2456  0.2514 -0.5933
 9254TIP3    H149177   5.082   4.656   5.583 -2.0980 -0.9026 -0.3489
 9254TIP3    H249178   5.043   4.608   5.445 -0.7260 -2.3139 -0.2764
 9255TIP3   OH249179   5.834   5.539   3.749  0.2170 -0.3372 -0.2691
 9255TIP3    H149180   5.887   5.615   3.726  0.8883 -0.2988  1.2880
 9255TIP3    H249181   5.749   5.556   3.708  0.2602  1.4000  0.2653
 9256TIP3   OH249182   0.033   5.539  15.723 -0.2860 -0.5354  0.3822
 9256TIP3    H149183  -0.013   5.623  15.725  0.2029 -0.2755  1.1155
 9256TIP3    H249184   0.014   5.499  15.808  1.5972  0.0027  1.0984
 9257TIP3   OH249185   0.475   5.872   3.601 -0.7830  0.2610 -0.6237
 9257TIP3    H149186   0.477   5.869   3.505  0.5947  1.1925 -0.6591
 9257TIP3    H249187   0.392   5.830   3.625 -0.9626 -0.3529 -2.1991
 9258TIP3   OH249188   2.771   3.345  10.861 -1.0156  0.2730  0.0899
 9258TIP3    H149189   2.708   3.415  10.842  0.5384  1.3651 -1.3184
 9258TIP3    H249190   2.779   3.297  10.779  1.3034  1.3032 -0.3752
 9259TIP3   OH249191   2.823   3.787   1.504 -0.0307 -0.1644 -0.0896
 9259TIP3    H149192   2.802   3.708   1.456  1.1398 -0.6796  0.2325
 9259TIP3    H249193   2.769   3.782   1.583 -0.5319 -0.2454 -0.4330
 9260TIP3   OH249194   4.323   5.740  12.722  0.2986 -0.5291  0.2862
 9260TIP3    H149195   4.248   5.775  12.674  1.3010  1.7246  0.2298
 9260TIP3    H249196   4.326   5.791  12.803  2.5735  0.5565 -0.3725
 9261TIP3   OH249197   4.006   3.283   1.514  0.1821  0.1450  0.2205
 9261TIP3    H149198   4.038   3.367   1.481 -2.4344  1.5247  0.8716
 9261TIP3    H249199   4.076   3.251   1.571  1.2283  1.9056 -0.0001
 9262TIP3   OH249200   6.184   1.715  15.019 -0.3178  0.4798  0.0063
 9262TIP3    H149201   6.251   1.741  14.956  1.5474 -2.2122  0.6891
 9262TIP3    H249202   6.199   1.772  15.095 -0.4716  1.5648 -0.7535
 9263TIP3   OH249203   3.975   0.106   4.128  0.2092 -0.6876  0.3187
 9263TIP3    H149204   3.974   0.202   4.126  0.2211 -0.6947 -0.1605
 9263TIP3    H249205   4.043   0.084   4.192  0.8192 -0.3786 -0.2082
 9264TIP3   OH249206   4.270   3.982   4.099 -0.0757 -0.0323  0.3798
 9264TIP3    H149207   4.272   3.900   4.050 -0.8253  0.2666 -0.1708
 9264TIP3    H249208   4.352   3.984   4.148 -0.3255 -1.4221  0.8958
 9265TIP3   OH249209   1.957   0.321   5.989 -0.2800  0.0750  0.2168
 9265TIP3    H149210   1.960   0.393   5.926 -1.6700 -1.9672 -2.3644
 9265TIP3    H249211   2.033   0.337   6.046  0.4173  2.6504 -1.2357
 9266TIP3   OH249212   5.521   2.794  12.781  0.9398  0.2667  0.7385
 9266TIP3    H149213   5.591   2.822  12.840  0.6700  1.1623  0.6518
 9266TIP3    H249214   5.463   2.870  12.774  0.8735  0.1213 -0.5510
 9267TIP3   OH249215   1.704   5.572   5.900  0.2921 -0.1671  0.1685
 9267TIP3    H149216   1.635   5.633   5.872 -0.8883 -1.5843 -0.1642
 9267TIP3    H249217   1.671   5.486   5.874  1.5277 -1.0326  1.3349
 9268TIP3   OH249218   0.601   0.985   1.244 -0.4391 -0.7414 -0.1055
 9268TIP3    H149219   0.520   0.976   1.194 -0.3724 -1.4623 -0.0889
 9268TIP3    H249220   0.641   0.898   1.240  0.4768 -0.3142 -0.3576
 9269TIP3   OH249221   4.292   1.771   1.904  0.3545  0.1047 -0.5341
 9269TIP3    H149222   4.330   1.784   1.991  0.5727 -1.3458 -0.3888
 9269TIP3    H249223   4.350   1.708   1.862  0.1106  0.6017 -1.6553
 9270TIP3   OH249224   3.885   4.651   5.193 -0.3619  1.0070  0.2234
 9270TIP3    H149225   3.948   4.719   5.168  0.2396  0.2012 -0.5164
 9270TIP3    H249226   3.837   4.632   5.113 -0.8357  0.8713  0.5346
 9271TIP3   OH249227   3.306   5.703  12.146 -0.2231  0.0573  0.0393
 9271TIP3    H149228   3.270   5.615  12.134  0.2158 -0.1750  0.3984
 9271TIP3    H249229   3.371   5.713  12.077 -1.1680  0.5859 -0.7873
 9272TIP3   OH249230   6.721   6.460   4.120  0.0503  0.5129  0.2434
 9272TIP3    H149231   6.734   6.518   4.045  0.9876 -0.2542 -0.2037
 9272TIP3    H249232   6.761   6.507   4.193  0.1407  0.7644  0.0344
 9273TIP3   OH249233   3.037   5.621  12.267 -0.5435  0.4070 -0.3952
 9273TIP3    H149234   3.026   5.581  12.181  0.9387  0.1254 -0.4873
 9273TIP3    H249235   3.103   5.689  12.253  0.0478  0.0555  0.5918
 9274TIP3   OH249236   0.145   3.304   0.664  0.3655  0.0620 -0.7438
 9274TIP3    H149237   0.206   3.348   0.605 -0.3140  0.5567 -1.1021
 9274TIP3    H249238   0.191   3.300   0.748  1.3873 -0.7453 -1.3146
 9275TIP3   OH249239   0.423   2.490  12.683  0.1018  0.0582 -0.3333
 9275TIP3    H149240   0.467   2.534  12.756 -1.0190 -1.0368  1.0482
 9275TIP3    H249241   0.493   2.446  12.636  0.8332  0.7256  0.1025
 9276TIP3   OH249242   3.187   1.921   4.393 -0.3657  0.0186  0.5255
 9276TIP3    H149243   3.174   1.827   4.405 -2.7537  0.4989  2.4893
 9276TIP3    H249244   3.125   1.945   4.324  2.3531 -0.2189 -2.1814
 9277TIP3   OH249245   3.949   5.950  14.992  0.1990  0.1860 -0.2242
 9277TIP3    H149246   3.928   5.925  15.082  0.9360  0.3229 -0.0061
 9277TIP3    H249247   4.041   5.927  14.982 -0.2934 -1.3888 -1.4902
 9278TIP3   OH249248   4.087   2.094  15.080  0.1080  0.2483 -0.4355
 9278TIP3    H149249   4.024   2.065  15.147  0.9983 -1.2530 -0.2186
 9278TIP3    H249250   4.171   2.094  15.125  0.3569  1.8676 -0.8357
 9279TIP3   OH249251   3.135   4.590  11.964  0.9287  0.0403 -0.6853
 9279TIP3    H149252   3.213   4.549  12.003  0.5507 -0.0482 -0.0140
 9279TIP3    H249253   3.080   4.613  12.039 -0.3569 -1.2010 -1.1972
 9280TIP3   OH249254   3.601   3.195  15.530 -0.3271  0.0571  0.0008
 9280TIP3    H149255   3.682   3.245  15.540 -0.4201  0.0396  0.9253
 9280TIP3    H249256   3.569   3.217  15.443 -1.5135  3.3190  1.1108
 9281TIP3   OH249257   5.746   4.524   5.241  0.1208  0.0379 -0.0318
 9281TIP3    H149258   5.831   4.548   5.277  0.0486  2.1774 -1.0897
 9281TIP3    H249259   5.693   4.498   5.316  1.2317  0.2392  0.8333
 9282TIP3   OH249260   4.389   6.340   0.299 -0.2255 -0.3845 -0.0029
 9282TIP3    H149261   4.360   6.267   0.245 -2.8214 -1.4950  2.6179
 9282TIP3    H249262   4.460   6.304   0.352 -0.1047 -0.3813 -0.1623
 9283TIP3   OH249263   0.914   3.792   0.670 -0.3192  0.2409 -0.1639
 9283TIP3    H149264   0.989   3.738   0.644  0.5263  1.2372  0.1376
 9283TIP3    H249265   0.838   3.733   0.662  0.3151 -0.4263 -1.7295
 9284TIP3   OH249266   6.182   4.296   0.109  0.4276 -0.2857  0.1245
 9284TIP3    H149267   6.128   4.287   0.030  0.4747  2.3051 -0.3040
 9284TIP3    H249268   6.237   4.218   0.110 -0.0052 -0.6857 -2.0829
 9285TIP3   OH249269   3.226   6.476  16.830  0.4295  0.4449 -0.0219
 9285TIP3    H149270   3.262   6.541  16.890  1.1107 -0.4162  0.5306
 9285TIP3    H249271   3.286   6.401  16.836 -0.7340 -0.5242 -0.0720
 9286TIP3   OH249272   3.185   2.614  11.982 -0.4365 -0.0302 -0.1621
 9286TIP3    H149273   3.238   2.626  12.061 -2.3800 -2.1444  1.6140
 9286TIP3    H249274   3.162   2.703  11.955  2.3747  0.8712  0.0502
 9287TIP3   OH249275   1.013   6.267  13.522  0.0728  0.1166 -0.3929
 9287TIP3    H149276   1.089   6.294  13.470  0.2428 -1.6327 -1.1513
 9287TIP3    H249277   1.051   6.217  13.594 -0.3341 -1.7336 -1.3869
 9288TIP3   OH249278   3.634   2.891  16.618 -0.0004 -0.3125  0.2747
 9288TIP3    H149279   3.539   2.886  16.629 -0.2478  3.1079  0.7522
 9288TIP3    H249280   3.667   2.907  16.706  0.5317  2.3960 -0.3149
 9289TIP3   OH249281   2.608   1.455   1.045 -0.1949 -0.5208  0.5709
 9289TIP3    H149282   2.566   1.507   0.976  0.2497  0.0048  0.6956
 9289TIP3    H249283   2.559   1.477   1.124  0.8495  0.7714  0.8879
 9290TIP3   OH249284   1.961   3.552   0.028 -0.3073 -0.6862 -0.4844
 9290TIP3    H149285   2.055   3.552   0.049 -0.3433 -4.5595  0.3735
 9290TIP3    H249286   1.956   3.590  -0.059  1.9800  0.1602 -0.3107
 9291TIP3   OH249287   3.066   2.120  11.235 -0.0192 -0.1910  0.0722
 9291TIP3    H149288   3.148   2.133  11.282  0.1931  0.1284 -0.3777
 9291TIP3    H249289   3.018   2.056  11.287 -0.2627  0.9666  1.3015
 9292TIP3   OH249290   1.218   5.746  13.790  0.4147  0.1381  0.3245
 9292TIP3    H149291   1.266   5.753  13.872 -1.6097 -1.9914  1.8000
 9292TIP3    H249292   1.152   5.679  13.806 -1.8424  1.5715 -2.1684
 9293TIP3   OH249293   2.279   2.129  11.565  0.2991  0.0405 -0.0281
 9293TIP3    H149294   2.232   2.104  11.486  1.5465 -2.2274 -0.1415
 9293TIP3    H249295   2.337   2.200  11.537 -0.0723  0.0218 -0.8758
 9294TIP3   OH249296   6.392   6.556  14.835  0.1876  0.1172 -0.3618
 9294TIP3    H149297   6.356   6.635  14.795  1.2938  0.0975 -1.4926
 9294TIP3    H249298   6.450   6.520  14.767 -1.5345 -2.5965 -0.5639
 9295TIP3   OH249299   2.803   2.476  11.754 -0.1130 -0.0412 -0.1001
 9295TIP3    H149300   2.825   2.552  11.808  0.0495 -1.1616  1.4939
 9295TIP3    H249301   2.871   2.474  11.687 -1.1251  2.2055 -1.2875
 9296TIP3   OH249302   3.677   4.471   3.242  0.6512 -0.7569 -0.1157
 9296TIP3    H149303   3.664   4.526   3.164 -0.5400 -3.4073 -1.9198
 9296TIP3    H249304   3.589   4.456   3.276  1.1506  0.2829  1.7685
 9297TIP3   OH249305   0.542   5.434   4.196 -0.1260 -0.8428 -0.0829
 9297TIP3    H149306   0.461   5.445   4.247  0.6638  3.1616  0.6642
 9297TIP3    H249307   0.513   5.436   4.105 -1.0005 -0.5336  0.1886
 9298TIP3   OH249308   3.615   5.224   3.790 -0.1155  0.2719  0.3900
 9298TIP3    H149309   3.562   5.232   3.869  0.4393  2.1260  0.6166
 9298TIP3    H249310   3.705   5.239   3.820  0.0218  1.8289 -0.6594
 9299TIP3   OH249311   3.263   6.643   1.327 -0.1514  0.0315 -0.3245
 9299TIP3    H149312   3.217   6.710   1.376 -0.7296 -0.3324 -0.3654
 9299TIP3    H249313   3.299   6.585   1.395  1.8002  1.2831 -0.2034
 9300TIP3   OH249314   4.071   3.544  13.881 -0.3324  0.1571  0.1182
 9300TIP3    H149315   4.148   3.532  13.826  0.6602  0.7730  1.3207
 9300TIP3    H249316   4.008   3.590  13.825  1.7979  3.6978  0.3626
 9301TIP3   OH249317   1.401   5.764  14.863 -0.4942 -0.2429  0.4930
 9301TIP3    H149318   1.448   5.739  14.783 -0.0430 -0.8945  0.9472
 9301TIP3    H249319   1.325   5.813  14.832 -0.6015 -0.9246 -0.3641
 9302TIP3   OH249320   6.545   0.117   6.098 -0.3716  0.0959  0.0382
 9302TIP3    H149321   6.605   0.080   6.033  0.7516 -1.4345  1.8512
 9302TIP3    H249322   6.462   0.125   6.050  0.5617 -0.3260 -1.7722
 9303TIP3   OH249323   6.557   6.431  12.049 -0.3128 -0.0141  0.5538
 9303TIP3    H149324   6.616   6.496  12.011 -0.2481 -0.4266 -0.0637
 9303TIP3    H249325   6.615   6.367  12.090 -0.3883  0.9034  2.2182
 9304TIP3   OH249326   4.892   5.368  16.987  0.1324  0.1199 -0.0980
 9304TIP3    H149327   4.842   5.295  17.022  0.6465  0.5362  1.5847
 9304TIP3    H249328   4.964   5.327  16.938 -1.4976 -0.4753 -2.1473
 9305TIP3   OH249329   4.833   6.310   5.433  0.1741 -0.1311 -0.1908
 9305TIP3    H149330   4.751   6.269   5.404 -0.9336  1.2116  0.9273
 9305TIP3    H249331   4.866   6.354   5.355 -0.0138 -0.8899 -0.7139
 9306TIP3   OH249332   1.092   0.983   4.564 -0.6022  0.5004 -0.0406
 9306TIP3    H149333   1.068   0.956   4.476 -0.1602 -0.1547  0.0330
 9306TIP3    H249334   1.174   1.031   4.553  0.3113 -0.9566  0.1742
 9307TIP3   OH249335   5.544   2.163   2.723 -0.7399  0.0031  0.2702
 9307TIP3    H149336   5.606   2.229   2.693  0.2298 -0.8194  0.3906
 9307TIP3    H249337   5.498   2.203   2.796  0.2111  0.3584  0.6784
 9308TIP3   OH249338   5.706   2.040  11.205 -0.2387 -0.3539  0.4082
 9308TIP3    H149339   5.749   1.984  11.270 -0.4972  0.2727  1.1397
 9308TIP3    H249340   5.767   2.041  11.131  0.4017 -0.5225  0.9192
 9309TIP3   OH249341   0.011   5.415   4.908 -0.6251  0.3804 -0.1007
 9309TIP3    H149342   0.107   5.404   4.911 -0.5486  1.0021 -0.2929
 9309TIP3    H249343  -0.005   5.466   4.829 -1.0850  0.6695  0.1775
 9310TIP3   OH249344   5.436   6.083   4.019 -0.0671 -0.4200 -0.0816
 9310TIP3    H149345   5.429   5.998   3.976  0.3171  0.0131 -1.0428
 9310TIP3    H249346   5.523   6.083   4.058 -0.3759 -0.7744  0.6126
 9311TIP3   OH249347   1.703   0.056   1.009 -0.0412 -0.1919 -0.5998
 9311TIP3    H149348   1.768   0.006   0.960  0.4169 -0.3261  0.1302
 9311TIP3    H249349   1.754   0.123   1.055 -0.3231 -0.6623  0.4503
 9312TIP3   OH249350   2.128   5.879  16.358 -0.1115  0.3709  0.3676
 9312TIP3    H149351   2.120   5.967  16.396 -1.3395  1.8587 -2.9045
 9312TIP3    H249352   2.038   5.854  16.337 -0.0085 -2.6097  2.8809
 9313TIP3   OH249353   2.002   1.001   1.573 -0.1521 -0.9779 -0.0091
 9313TIP3    H149354   2.081   0.973   1.526 -0.2377 -1.3935  0.0922
 9313TIP3    H249355   2.033   1.020   1.661 -0.0568 -0.5477 -0.1330
 9314TIP3   OH249356   2.970   4.997  11.031 -0.1491  0.4223  0.0284
 9314TIP3    H149357   3.001   5.017  11.120  0.3567 -0.0664 -0.0321
 9314TIP3    H249358   3.033   5.040  10.973  1.6949 -2.2584 -0.1213
 9315TIP3   OH249359   2.803   2.668   5.350 -0.2813 -0.3954  0.4833
 9315TIP3    H149360   2.830   2.759   5.360  0.2769 -0.2769 -1.5594
 9315TIP3    H249361   2.730   2.671   5.288  0.3444 -1.3917 -0.3347
 9316TIP3   OH249362   5.219   5.031  12.661  0.2934 -0.5412 -0.0680
 9316TIP3    H149363   5.177   4.946  12.653  0.3977 -0.4237 -2.4705
 9316TIP3    H249364   5.267   5.027  12.745 -1.2627 -2.0854  0.7999
 9317TIP3   OH249365   1.709   1.117   3.505  0.2451  0.8604 -0.1834
 9317TIP3    H149366   1.635   1.058   3.519 -1.2860  2.3984 -1.3749
 9317TIP3    H249367   1.775   1.062   3.462 -1.2392  0.0202 -1.5375
 9318TIP3   OH249368   3.747   4.382  10.525 -0.3016 -0.2908 -0.1827
 9318TIP3    H149369   3.710   4.460  10.484  1.8705  0.7469 -0.3262
 9318TIP3    H249370   3.717   4.385  10.616 -2.6072 -0.9205 -0.8667
 9319TIP3   OH249371   0.803   5.923   1.127 -0.1753 -0.0511  0.0522
 9319TIP3    H149372   0.728   5.909   1.071 -1.6042 -3.1132  2.4081
 9319TIP3    H249373   0.879   5.901   1.073 -1.4922 -2.9939 -0.7861
 9320TIP3   OH249374   4.985   4.307  15.435 -0.4111 -0.0619  0.3726
 9320TIP3    H149375   5.010   4.353  15.515 -0.9585 -2.0284  1.7724
 9320TIP3    H249376   4.935   4.371  15.385  0.2351  1.3406  1.4383
 9321TIP3   OH249377   4.076   1.001  12.078  0.1570 -0.5666 -0.1397
 9321TIP3    H149378   4.132   1.026  12.003 -0.0889 -0.3270 -0.2455
 9321TIP3    H249379   4.121   1.038  12.154  1.3451 -2.2921  0.0568
 9322TIP3   OH249380   1.486   0.275   1.056  0.5030  0.5113  0.4345
 9322TIP3    H149381   1.540   0.199   1.034  1.2350  1.2080 -0.2365
 9322TIP3    H249382   1.477   0.324   0.974 -0.4971  0.8286  0.7091
 9323TIP3   OH249383   4.685   1.608   6.624 -0.0777 -0.1906 -0.2433
 9323TIP3    H149384   4.771   1.648   6.640  0.4488 -0.8862 -1.2273
 9323TIP3    H249385   4.704   1.533   6.568 -1.6946  1.8834 -3.9395
 9324TIP3   OH249386   5.889   1.578  12.606  0.2312 -0.1302  0.5245
 9324TIP3    H149387   5.902   1.625  12.523 -0.4536 -0.1521  0.3996
 9324TIP3    H249388   5.832   1.635  12.657 -2.3077 -1.6550 -0.4104
 9325TIP3   OH249389   0.364   4.527   3.009 -0.5458 -0.1480  0.1076
 9325TIP3    H149390   0.382   4.470   3.084 -1.4089 -0.9849 -0.3184
 9325TIP3    H249391   0.427   4.599   3.020 -0.6060 -0.2812  1.5960
 9326TIP3   OH249392   1.607   6.766  11.924 -0.3357  0.6972 -0.0926
 9326TIP3    H149393   1.625   6.809  11.841  0.6579  2.2717  0.8926
 9326TIP3    H249394   1.538   6.818  11.964 -0.8802 -0.1118  0.0475
 9327TIP3   OH249395   4.431   1.117   0.421  0.5494  0.3291  0.8887
 9327TIP3    H149396   4.438   1.140   0.514 -0.4367  0.6554  0.8892
 9327TIP3    H249397   4.482   1.184   0.376 -0.1025  0.9636  1.0935
 9328TIP3   OH249398   4.047   5.491   2.229 -0.2796  0.2058 -0.6271
 9328TIP3    H149399   4.121   5.504   2.170 -0.8625 -0.1202 -1.4347
 9328TIP3    H249400   4.051   5.565   2.289  0.4078  0.4549 -0.9704
 9329TIP3   OH249401   3.557   1.676  10.800  0.4491  0.1121  0.0804
 9329TIP3    H149402   3.591   1.749  10.748  2.9954 -1.2496 -0.3314
 9329TIP3    H249403   3.558   1.601  10.739 -0.8408 -0.5658  0.8533
 9330TIP3   OH249404   5.492   1.208  16.251  0.0672  0.3723  0.0724
 9330TIP3    H149405   5.427   1.237  16.315 -0.0885 -0.9989  0.5650
 9330TIP3    H249406   5.536   1.134  16.293  3.8407  2.8045  0.9134
 9331TIP3   OH249407   0.773   1.363  15.001 -0.2672 -0.0963  0.1240
 9331TIP3    H149408   0.868   1.372  15.008 -0.3260  0.4059  0.3082
 9331TIP3    H249409   0.741   1.453  14.996 -0.6408 -0.2896 -1.2212
 9332TIP3   OH249410   5.702   3.289  11.400 -0.2656 -0.7723  0.4523
 9332TIP3    H149411   5.763   3.217  11.387  0.9388  0.1215  0.9795
 9332TIP3    H249412   5.757   3.362  11.428 -1.8059 -0.4913  3.0113
 9333TIP3   OH249413   4.102   1.131  15.753  0.2943  0.1907  0.4230
 9333TIP3    H149414   4.023   1.112  15.804  0.7292  0.9636  1.3935
 9333TIP3    H249415   4.137   1.211  15.791  1.2442  0.1701 -0.3772
 9334TIP3   OH249416   2.004   3.773  12.248 -0.1507  0.3197  0.1578
 9334TIP3    H149417   1.938   3.743  12.310  0.5269 -0.1198  0.6745
 9334TIP3    H249418   2.035   3.856  12.285 -0.9406  0.9208 -0.4825
 9335TIP3   OH249419   0.771   6.409  11.524 -0.0497  0.1307 -0.0940
 9335TIP3    H149420   0.773   6.315  11.507 -0.4688  0.1184 -0.0833
 9335TIP3    H249421   0.683   6.426  11.557 -0.1619  0.6242 -0.6381
 9336TIP3   OH249422   0.131   0.847   2.073 -0.4024 -0.3679 -0.5751
 9336TIP3    H149423   0.164   0.937   2.067 -1.3119 -0.0431 -0.7873
 9336TIP3    H249424   0.036   0.856   2.078 -0.4128 -1.2037  1.8258
 9337TIP3   OH249425   6.226   1.542   0.417  0.3307  0.4042  0.0388
 9337TIP3    H149426   6.211   1.450   0.436  1.2881  0.0380 -0.8877
 9337TIP3    H249427   6.204   1.588   0.498 -0.5155 -0.5963  0.3844
 9338TIP3   OH249428   3.401   3.713  13.279  0.7139  0.1925  0.3732
 9338TIP3    H149429   3.448   3.751  13.352  2.1974 -0.3816 -0.2363
 9338TIP3    H249430   3.402   3.780  13.211 -0.6195  0.7073  0.8286
 9339TIP3   OH249431   2.418   6.578  15.650  0.2610  0.2482 -0.1962
 9339TIP3    H149432   2.351   6.558  15.585 -0.4171  1.0142  0.2411
 9339TIP3    H249433   2.374   6.569  15.734  1.0353 -0.3918  0.1487
 9340TIP3   OH249434   2.126   1.513   1.883  0.0681 -0.1363 -0.2718
 9340TIP3    H149435   2.042   1.505   1.839  0.4643  0.0806 -1.0932
 9340TIP3    H249436   2.142   1.607   1.890  1.1658 -0.1423 -2.0022
 9341TIP3   OH249437   5.405   4.330  12.072  0.8936  0.5147 -0.3383
 9341TIP3    H149438   5.465   4.259  12.048  0.8073  0.2628  0.1950
 9341TIP3    H249439   5.325   4.311  12.023  1.0236  0.4905 -0.5415
 9342TIP3   OH249440   2.850   2.212  14.374 -0.5811  0.3045  0.0949
 9342TIP3    H149441   2.927   2.262  14.403 -0.9778 -0.5735  2.9623
 9342TIP3    H249442   2.822   2.256  14.294  2.3819  1.1708 -0.5917
 9343TIP3   OH249443   5.838   1.452   5.026  0.7130  0.5176 -0.6001
 9343TIP3    H149444   5.760   1.502   5.052  0.3806  0.3608 -1.2549
 9343TIP3    H249445   5.816   1.361   5.046  0.6747  0.4611 -0.8856
 9344TIP3   OH249446   2.797   3.682  15.986 -0.0314  0.8463  0.2658
 9344TIP3    H149447   2.883   3.674  16.028 -0.6958 -1.0245  1.3652
 9344TIP3    H249448   2.736   3.644  16.049 -1.4781  0.7505 -1.1381
 9345TIP3   OH249449   4.297   3.973  14.465 -0.3656  0.1504 -0.4339
 9345TIP3    H149450   4.371   3.987  14.524 -1.3187  0.6370  0.6897
 9345TIP3    H249451   4.336   3.967  14.378  0.9364  1.1209  0.0534
 9346TIP3   OH249452   1.744   1.294   1.939  0.0694  0.1577  0.0422
 9346TIP3    H149453   1.758   1.373   1.886  1.7769  0.1731  0.4578
 9346TIP3    H249454   1.731   1.224   1.875 -0.1803  0.5619 -0.3522
 9347TIP3   OH249455   4.401   1.952   3.351 -0.3124 -0.5257  0.4241
 9347TIP3    H149456   4.457   1.986   3.281 -0.2268 -0.4386  0.5347
 9347TIP3    H249457   4.342   1.891   3.307 -1.0130  0.3706  0.0884
 9348TIP3   OH249458   4.777   6.486   5.703  0.5003 -0.1927 -0.1286
 9348TIP3    H149459   4.820   6.499   5.618  2.3048 -1.7935  0.4514
 9348TIP3    H249460   4.783   6.571   5.746  2.1113 -0.0426 -0.5626
 9349TIP3   OH249461   4.700   3.495  15.169 -0.1676  0.5972  0.1035
 9349TIP3    H149462   4.724   3.403  15.158  0.6279  0.9089 -0.9862
 9349TIP3    H249463   4.645   3.515  15.093  0.0181  1.1200  0.1002
 9350TIP3   OH249464   4.781   3.012  11.969  0.1798 -0.1577 -0.4728
 9350TIP3    H149465   4.855   3.036  11.914 -0.3752  1.7705 -0.4436
 9350TIP3    H249466   4.709   3.000  11.908  0.0650 -0.1282 -0.3430
 9351TIP3   OH249467   1.375   1.200  13.153  0.0842  0.0755  0.6233
 9351TIP3    H149468   1.420   1.123  13.190  2.6495  2.0463  1.9401
 9351TIP3    H249469   1.419   1.275  13.194 -3.1170  2.2781  0.3525
 9352TIP3   OH249470   2.351   4.961  16.539  0.0649 -0.3069 -0.2257
 9352TIP3    H149471   2.423   4.969  16.477 -0.4942  0.5411 -0.7832
 9352TIP3    H249472   2.289   5.029  16.513 -1.1231 -1.2686 -0.0021
 9353TIP3   OH249473   6.720   0.908  12.469  0.5049 -0.2451  0.1650
 9353TIP3    H149474   6.648   0.945  12.520  0.3822 -1.0779  0.6198
 9353TIP3    H249475   6.716   0.814  12.487  0.2490 -0.6176 -1.6523
 9354TIP3   OH249476   0.297   3.918  17.005  0.0204 -0.1386 -0.0217
 9354TIP3    H149477   0.226   3.973  17.036  1.2925  0.9235  1.1536
 9354TIP3    H249478   0.272   3.829  17.029 -0.5143  0.3167  1.1817
 9355TIP3   OH249479   3.362   5.793   0.354 -0.1336 -0.0760  0.0518
 9355TIP3    H149480   3.317   5.796   0.270 -1.1553 -0.2255  0.5720
 9355TIP3    H249481   3.420   5.870   0.354  0.1598 -0.2880 -0.9273
 9356TIP3   OH249482   3.620   5.586  10.510 -0.3306  0.3420 -0.2914
 9356TIP3    H149483   3.559   5.516  10.490 -0.1030 -0.4187  1.4781
 9356TIP3    H249484   3.583   5.630  10.587  1.8104 -0.8544  1.5670
 9357TIP3   OH249485   1.486   2.090  15.107  0.1636  0.7174  0.3800
 9357TIP3    H149486   1.486   2.182  15.081 -1.5639  1.1903  1.8281
 9357TIP3    H249487   1.396   2.061  15.089  0.6739 -0.6705  0.0094
 9358TIP3   OH249488   1.768   0.015   4.279 -0.4857  0.1990  0.2578
 9358TIP3    H149489   1.804   0.098   4.310  1.1468  0.3916 -1.9162
 9358TIP3    H249490   1.806  -0.051   4.338  0.8796  0.7210 -0.0070
 9359TIP3   OH249491   3.805   0.214   1.674 -0.3411  0.1705  0.0107
 9359TIP3    H149492   3.895   0.234   1.647  0.3935 -1.5847  1.0118
 9359TIP3    H249493   3.764   0.300   1.684  1.2113  1.0150 -0.4523
 9360TIP3   OH249494   3.193   4.690   2.035  0.9206 -0.2502  0.2947
 9360TIP3    H149495   3.266   4.631   2.018  1.2679  0.8814 -2.8245
 9360TIP3    H249496   3.229   4.777   2.022 -0.3503  0.5305  1.5941
 9361TIP3   OH249497   3.526   2.455   3.481 -0.4492  0.5446 -0.2262
 9361TIP3    H149498   3.487   2.420   3.561  0.1403  2.3899  0.9048
 9361TIP3    H249499   3.620   2.441   3.492 -0.5056 -1.5002 -1.7795
 9362TIP3   OH249500   3.444   2.048  16.011 -0.1645 -0.2231 -0.3343
 9362TIP3    H149501   3.431   1.957  15.986 -1.3840 -0.2960  0.4551
 9362TIP3    H249502   3.407   2.055  16.099  0.3425  0.9252 -0.1846
 9363TIP3   OH249503   2.083   1.192   2.323 -0.1466  0.4221 -0.4794
 9363TIP3    H149504   2.027   1.149   2.259 -0.9946  0.4411  0.2313
 9363TIP3    H249505   2.067   1.286   2.309 -1.4907  0.4157  0.7152
 9364TIP3   OH249506   3.237   5.385  11.642 -0.0030 -0.3732  0.3258
 9364TIP3    H149507   3.201   5.297  11.641  3.2417 -1.8324 -0.1070
 9364TIP3    H249508   3.327   5.375  11.673  1.7437  2.1828 -3.1052
 9365TIP3   OH249509   5.677   3.649   4.045  0.4240 -0.5497 -0.0242
 9365TIP3    H149510   5.721   3.728   4.013  0.8474 -1.3541 -1.5017
 9365TIP3    H249511   5.731   3.577   4.014  2.5663 -1.5045  4.9199
 9366TIP3   OH249512   4.605   3.224  15.783 -0.2012 -0.1155 -0.1067
 9366TIP3    H149513   4.586   3.284  15.710 -1.7624 -0.6525 -0.1720
 9366TIP3    H249514   4.667   3.272  15.837  0.1457  0.7410 -1.2182
 9367TIP3   OH249515   1.229   2.916  12.115  0.0308  0.2609 -0.7471
 9367TIP3    H149516   1.153   2.897  12.060 -1.5025  0.4066  1.1808
 9367TIP3    H249517   1.237   3.012  12.112 -0.9169  0.3994  0.2790
 9368TIP3   OH249518   4.456   0.796   1.238  0.0312  0.3113 -0.0155
 9368TIP3    H149519   4.363   0.793   1.212 -0.6703 -0.1895  2.3245
 9368TIP3    H249520   4.497   0.727   1.186 -0.6684  1.1921 -1.8247
 9369TIP3   OH249521   6.655   4.346   5.847 -0.3271 -1.1797 -0.3173
 9369TIP3    H149522   6.653   4.287   5.922 -0.6544  0.9414  1.4467
 9369TIP3    H249523   6.564   4.350   5.817 -0.7818  0.1422  1.0729
 9370TIP3   OH249524   3.673   0.137  16.773 -0.0079  0.2980  0.4915
 9370TIP3    H149525   3.587   0.138  16.731  1.4309  2.1785 -2.7856
 9370TIP3    H249526   3.677   0.220  16.821 -0.4740 -0.4145  1.8031
 9371TIP3   OH249527   0.022   1.640   2.543  0.0300  0.0591 -0.3074
 9371TIP3    H149528   0.108   1.679   2.557  0.1694 -0.4414  0.2813
 9371TIP3    H249529  -0.002   1.666   2.454  1.1403 -0.4396 -0.7679
 9372TIP3   OH249530   5.476   2.445  16.307  0.6252 -0.4050  0.0540
 9372TIP3    H149531   5.539   2.416  16.373  0.4443 -0.0015  0.4097
 9372TIP3    H249532   5.413   2.374  16.301 -0.0874  0.0905  1.2701
 9373TIP3   OH249533   3.538   6.233  14.739  0.0643 -0.4183  0.4964
 9373TIP3    H149534   3.576   6.164  14.793 -0.6457 -0.1199  1.3932
 9373TIP3    H249535   3.443   6.220  14.746 -0.0558  0.2086  0.0885
 9374TIP3   OH249536   5.637   2.424   4.492 -0.2562 -0.0424  0.2724
 9374TIP3    H149537   5.683   2.442   4.574 -0.3698 -0.0111  0.3303
 9374TIP3    H249538   5.684   2.474   4.426 -0.0164 -0.2596  0.2768
 9375TIP3   OH249539   2.447   3.753  13.450  0.2149  0.1051  0.1920
 9375TIP3    H149540   2.537   3.722  13.463  0.2142 -1.3847 -2.5954
 9375TIP3    H249541   2.395   3.673  13.451 -0.5772  0.5544 -1.6214
 9376TIP3   OH249542   2.576   6.240  16.176  0.1390 -0.1820  0.1039
 9376TIP3    H149543   2.546   6.153  16.203 -2.9206  0.6316 -0.2402
 9376TIP3    H249544   2.527   6.259  16.096  2.7245  0.8417 -1.3501
 9377TIP3   OH249545   5.350   5.019  11.230 -0.5135  0.0244  0.1149
 9377TIP3    H149546   5.324   5.048  11.317  0.4899  0.8130  0.1691
 9377TIP3    H249547   5.318   5.088  11.171  0.8046  0.6636  0.1169
 9378TIP3   OH249548   6.511   5.103   1.856 -0.1699 -0.1660  0.6195
 9378TIP3    H149549   6.517   5.026   1.913 -0.3495 -0.9170 -0.3466
 9378TIP3    H249550   6.553   5.075   1.774  0.3002  0.9655  0.4575
 9379TIP3   OH249551   2.581   6.238   1.532  0.1056  0.5223  0.1281
 9379TIP3    H149552   2.605   6.148   1.553 -0.0397  0.6136  0.7238
 9379TIP3    H249553   2.556   6.276   1.617  1.6967  1.5795  0.1776
 9380TIP3   OH249554   2.366   2.886  11.797  0.3539 -0.1332  0.1287
 9380TIP3    H149555   2.302   2.814  11.800  2.5189 -2.1814  1.2424
 9380TIP3    H249556   2.444   2.847  11.758  1.8739  1.3805  1.4907
 9381TIP3   OH249557   1.251   3.571   0.079  0.0899  0.0091 -0.1328
 9381TIP3    H149558   1.286   3.503   0.136  0.5352  0.7255  0.4680
 9381TIP3    H249559   1.328   3.614   0.043 -0.1638  1.1106  0.6025
 9382TIP3   OH249560   3.728   3.555   3.318  0.5021  0.2947  0.2662
 9382TIP3    H149561   3.657   3.611   3.288 -0.4642 -1.1121 -0.1985
 9382TIP3    H249562   3.768   3.602   3.391 -0.0641  1.7058 -0.3168
 9383TIP3   OH249563   3.672   4.836   5.724 -0.2609  0.9996 -0.2799
 9383TIP3    H149564   3.656   4.742   5.736 -0.5606  1.0673 -0.1544
 9383TIP3    H249565   3.645   4.876   5.806  1.7555  0.9802  0.4282
 9384TIP3   OH249566   3.643   4.560   0.897  0.0559 -0.3965 -0.1320
 9384TIP3    H149567   3.581   4.507   0.847 -2.4745  2.5319 -0.3864
 9384TIP3    H249568   3.686   4.498   0.955 -2.6622 -2.7288 -0.3857
 9385TIP3   OH249569   2.084   1.202  16.471 -0.5778  0.3669 -0.3134
 9385TIP3    H149570   2.036   1.214  16.389  1.4835  0.5608 -1.5619
 9385TIP3    H249571   2.040   1.260  16.533 -1.4615  1.1241 -1.6060
 9386TIP3   OH249572   6.269   6.567  13.867  0.1853  0.2167 -0.1845
 9386TIP3    H149573   6.234   6.564  13.778 -0.2424 -0.6802  0.0011
 9386TIP3    H249574   6.247   6.654  13.899 -2.4893 -0.4934  0.1462
 9387TIP3   OH249575   0.999   4.704  16.849  0.5754 -0.3581 -0.1903
 9387TIP3    H149576   0.948   4.768  16.800 -1.3211  0.3957  2.5034
 9387TIP3    H249577   1.073   4.753  16.884 -0.2347  0.1455  0.8888
 9388TIP3   OH249578   5.360   4.649  11.933 -0.9546  0.0120  0.1369
 9388TIP3    H149579   5.403   4.566  11.954 -1.6066 -0.0402  1.3617
 9388TIP3    H249580   5.345   4.690  12.018  2.2070  2.9055 -0.4601
 9389TIP3   OH249581   3.195   1.253   1.804  0.4278  0.0566 -0.5646
 9389TIP3    H149582   3.223   1.260   1.895  1.8368  0.1093 -0.9631
 9389TIP3    H249583   3.236   1.328   1.761 -0.0246 -0.0957 -1.2793
 9390TIP3   OH249584   0.968   3.401  16.027 -0.4685  0.1915 -0.0271
 9390TIP3    H149585   0.943   3.408  15.935  0.3832 -0.4450 -0.3213
 9390TIP3    H249586   1.056   3.438  16.032 -0.1299 -0.6280  0.3395
 9391TIP3   OH249587   6.449   3.422  13.561  0.4204  0.0383 -0.2986
 9391TIP3    H149588   6.502   3.347  13.534  1.4488  0.6382  0.0198
 9391TIP3    H249589   6.477   3.493  13.503  1.1264  0.7817  0.9166
 9392TIP3   OH249590   2.359   2.947   4.697 -0.2916  0.2153 -0.2484
 9392TIP3    H149591   2.317   3.017   4.748 -0.9029 -0.7592  0.6158
 9392TIP3    H249592   2.389   2.991   4.617  0.1498  1.6537  0.6635
 9393TIP3   OH249593   6.152   1.461  14.719 -0.0275  0.1385  0.1143
 9393TIP3    H149594   6.125   1.369  14.719  0.5898 -0.0539 -0.2477
 9393TIP3    H249595   6.079   1.508  14.759  0.2069 -0.6752  1.5967
 9394TIP3   OH249596   0.307   3.527   0.749  0.2018 -0.2753  0.1991
 9394TIP3    H149597   0.251   3.558   0.820 -0.2105  2.1873 -1.1024
 9394TIP3    H249598   0.367   3.599   0.732  2.0769 -1.8420 -0.2209
 9395TIP3   OH249599   5.618   5.576   1.953 -0.4933  0.3787 -0.0683
 9395TIP3    H149600   5.596   5.532   1.871 -0.7387  0.9916 -0.3404
 9395TIP3    H249601   5.539   5.568   2.007 -0.6336  0.7158 -0.2214
 9396TIP3   OH249602   3.844   1.042   6.029  0.0724 -0.0531 -0.0530
 9396TIP3    H149603   3.877   0.971   6.084 -0.8924 -0.2032  0.3396
 9396TIP3    H249604   3.804   1.104   6.090  0.0395  0.3612 -0.4862
 9397TIP3   OH249605   4.039   1.978   1.289 -0.4544  0.2024  0.3213
 9397TIP3    H149606   4.120   1.932   1.312 -1.2953 -0.8167  1.3393
 9397TIP3    H249607   4.052   2.067   1.324  0.2625  0.0816  0.3811
 9398TIP3   OH249608   2.442   5.559   4.859  0.6282 -0.1184  0.6062
 9398TIP3    H149609   2.399   5.475   4.845 -0.5974  0.4354  0.9142
 9398TIP3    H249610   2.504   5.543   4.929 -0.1337 -0.5968  1.1926
 9399TIP3   OH249611   5.835   5.544   0.050 -0.0820  0.4000 -0.2946
 9399TIP3    H149612   5.804   5.475   0.108  0.9789 -0.4055 -0.6395
 9399TIP3    H249613   5.891   5.498  -0.013 -0.3429  1.4066 -1.2938
 9400TIP3   OH249614   4.220   5.996   4.518  0.1794 -0.4673  0.3401
 9400TIP3    H149615   4.235   5.986   4.424  0.1553  0.1751  0.2659
 9400TIP3    H249616   4.192   5.909   4.547  0.9830 -0.8738 -0.0935
 9401TIP3   OH249617   2.350   0.127  16.875  0.1893  0.3309 -0.5153
 9401TIP3    H149618   2.283   0.063  16.899 -0.6479  1.1609 -0.5989
 9401TIP3    H249619   2.301   0.206  16.851  1.1738  0.7935 -1.0760
 9402TIP3   OH249620   1.958   5.091  13.870  0.2224  0.2434  0.1151
 9402TIP3    H149621   2.020   5.136  13.928  0.6703 -2.3544  1.7983
 9402TIP3    H249622   1.898   5.046  13.929 -0.8920 -0.4489 -1.4789
 9403TIP3   OH249623   5.704   1.622  13.488  0.0422 -0.8127 -0.6897
 9403TIP3    H149624   5.795   1.608  13.515  0.0089  0.1289 -0.0653
 9403TIP3    H249625   5.653   1.577  13.555 -0.0019  0.4675  0.1645
 9404TIP3   OH249626   3.930   1.977  11.634  0.0791 -0.4413 -0.0619
 9404TIP3    H149627   4.017   2.009  11.611 -0.5344 -1.1342 -4.0169
 9404TIP3    H249628   3.876   2.055  11.639  0.4917 -0.1749  0.3650
 9405TIP3   OH249629   1.433   3.964  14.464 -0.2598  0.3005 -0.5376
 9405TIP3    H149630   1.528   3.968  14.480 -0.5554  1.8660  1.2210
 9405TIP3    H249631   1.421   4.006  14.378  0.6634 -0.3989 -1.0255
 9406TIP3   OH249632   0.202   2.315  11.279  0.4271 -0.3438  0.1948
 9406TIP3    H149633   0.242   2.267  11.352  0.1537 -0.3576  0.3392
 9406TIP3    H249634   0.114   2.335  11.310  0.2368 -0.5355 -0.2191
 9407TIP3   OH249635   2.517   0.260  10.814 -0.2276  0.0730  0.2288
 9407TIP3    H149636   2.542   0.255  10.906  2.6071 -0.1161 -0.4361
 9407TIP3    H249637   2.552   0.344  10.784 -1.4249  0.2915 -0.6150
 9408TIP3   OH249638   5.277   4.601  15.714 -0.3977  1.1116  0.0180
 9408TIP3    H149639   5.337   4.673  15.734  1.5320  0.1583 -1.9329
 9408TIP3    H249640   5.302   4.531  15.775 -1.2658  1.5544  0.9035
 9409TIP3   OH249641   0.759   2.209   4.522 -0.0120  0.1967 -0.5210
 9409TIP3    H149642   0.781   2.248   4.437 -0.5755 -0.3327 -0.9153
 9409TIP3    H249643   0.666   2.229   4.534 -0.3399 -1.0750 -0.7759
 9410TIP3   OH249644   1.916   1.995   3.131  0.1071 -0.1767 -0.3191
 9410TIP3    H149645   1.920   2.077   3.180  0.1235 -0.0024 -0.6102
 9410TIP3    H249646   1.959   1.931   3.188 -1.3085 -0.3460  0.6200
 9411TIP3   OH249647   5.713   5.153  13.172 -0.5317  0.0625  0.5693
 9411TIP3    H149648   5.768   5.209  13.118 -2.2965  0.9029 -0.4465
 9411TIP3    H249649   5.774   5.094  13.216  1.0627  0.1443 -1.4080
 9412TIP3   OH249650   3.373   3.886   0.868 -0.2546 -0.1361  0.2909
 9412TIP3    H149651   3.313   3.823   0.829 -0.7814 -0.3353  1.3895
 9412TIP3    H249652   3.388   3.853   0.956  1.9067 -0.3749 -0.1117
 9413TIP3   OH249653   6.634   4.332   3.241 -0.8960  0.1735 -0.0520
 9413TIP3    H149654   6.653   4.323   3.334 -2.8688 -0.5311  0.3324
 9413TIP3    H249655   6.627   4.242   3.209 -2.3840  0.3651 -0.3575
 9414TIP3   OH249656   4.731   5.398  12.427 -0.4845  0.2469 -0.1542
 9414TIP3    H149657   4.729   5.462  12.356  0.7394  1.1162  0.5571
 9414TIP3    H249658   4.777   5.322  12.391 -0.4384  0.4324 -0.4850
 9415TIP3   OH249659   5.366   6.373   0.714 -0.3639  0.3425 -0.2654
 9415TIP3    H149660   5.450   6.391   0.754 -0.2914  1.6745 -0.9456
 9415TIP3    H249661   5.342   6.455   0.670 -1.2375 -0.5104 -1.4619
 9416TIP3   OH249662   3.181   1.361   4.075  0.5684  0.0517  0.3244
 9416TIP3    H149663   3.130   1.437   4.046  1.8986  1.5761  1.7481
 9416TIP3    H249664   3.120   1.288   4.072 -0.2637  0.6702 -3.1060
 9417TIP3   OH249665   5.529   4.326   1.627 -0.3012 -0.1471  0.8248
 9417TIP3    H149666   5.620   4.356   1.627 -0.6802  1.0844  0.5013
 9417TIP3    H249667   5.478   4.405   1.606 -1.3934 -0.9558  0.3269
 9418TIP3   OH249668   5.940   1.890   6.591 -0.2287  0.4081 -0.0940
 9418TIP3    H149669   5.923   1.981   6.567  0.4289  0.9753  1.4148
 9418TIP3    H249670   5.870   1.869   6.653  0.2205  0.2464  0.3604
 9419TIP3   OH249671   2.659   6.797   2.665  0.0503  0.5568 -0.4166
 9419TIP3    H149672   2.696   6.709   2.675 -1.9483 -0.4273 -1.1921
 9419TIP3    H249673   2.736   6.853   2.649  1.4003 -0.9467  0.4709
 9420TIP3   OH249674   3.943   3.795   3.167 -0.8490 -0.0565 -0.1135
 9420TIP3    H149675   3.886   3.797   3.244  0.2341 -0.2861  0.7251
 9420TIP3    H249676   4.031   3.807   3.203 -0.2783 -0.6351 -1.2724
 9421TIP3   OH249677   1.020   4.283   4.216 -0.3460 -0.7561  0.2471
 9421TIP3    H149678   1.039   4.304   4.125 -1.5180  1.7961  0.5080
 9421TIP3    H249679   0.990   4.192   4.214  1.1770 -1.2717 -1.6414
 9422TIP3   OH249680   1.881   2.280  14.303 -0.2852 -0.2065 -0.2978
 9422TIP3    H149681   1.821   2.224  14.352  0.2782 -0.2555  0.3486
 9422TIP3    H249682   1.906   2.348  14.365 -0.0619  0.1034 -0.7232
 9423TIP3   OH249683   1.824   5.962   4.580  0.2654 -0.3741 -0.0905
 9423TIP3    H149684   1.851   6.054   4.589 -0.3208 -0.2865  1.0892
 9423TIP3    H249685   1.885   5.914   4.636  1.7296 -0.9892 -2.0946
 9424TIP3   OH249686   0.040   5.743   0.419  0.0555 -0.0444  0.1716
 9424TIP3    H149687  -0.048   5.757   0.385  0.0102 -0.1865  0.2293
 9424TIP3    H249688   0.047   5.648   0.431  0.9811 -0.3036 -1.9507
 9425TIP3   OH249689   0.695   2.426   2.266  0.2109 -0.2216  0.3555
 9425TIP3    H149690   0.619   2.376   2.295  0.8249 -0.7524  1.0950
 9425TIP3    H249691   0.662   2.515   2.255 -1.2172 -0.9817 -2.2540
 9426TIP3   OH249692   2.255   0.767   0.194  0.0599  0.2270 -0.1653
 9426TIP3    H149693   2.172   0.735   0.159 -1.2949  1.4258  1.7899
 9426TIP3    H249694   2.287   0.696   0.249 -0.0823  0.0629 -0.2937
 9427TIP3   OH249695   2.768   5.910   0.832  0.4733  0.0106 -0.1664
 9427TIP3    H149696   2.771   5.938   0.923  0.4867  1.0888 -0.4896
 9427TIP3    H249697   2.861   5.899   0.808  0.4511 -0.8428  0.1117
 9428TIP3   OH249698   2.404   3.808  16.145 -0.5004  0.0971 -0.0346
 9428TIP3    H149699   2.468   3.867  16.105  1.5121 -2.6158 -1.1400
 9428TIP3    H249700   2.393   3.738  16.081 -0.9563 -1.9216  2.1274
 9429TIP3   OH249701   4.718   4.260  13.230  0.5008 -0.4584  0.2560
 9429TIP3    H149702   4.691   4.267  13.138 -0.6542  2.5404  0.6863
 9429TIP3    H249703   4.800   4.211  13.228  0.9269  0.1939 -2.4742
 9430TIP3   OH249704   6.459   2.412   0.962  0.5982  0.0348  0.2723
 9430TIP3    H149705   6.516   2.481   0.996  0.4955  1.2528 -1.8913
 9430TIP3    H249706   6.387   2.459   0.920 -0.3903 -1.4464  0.2426
 9431TIP3   OH249707   1.359   1.052   4.601  0.2818  0.9739 -0.2803
 9431TIP3    H149708   1.422   1.022   4.536 -0.0322 -0.5069  0.0597
 9431TIP3    H249709   1.359   0.985   4.669 -0.2959  1.8757  0.6575
 9432TIP3   OH249710   5.815   5.886  14.209  0.1086  0.0708 -0.6802
 9432TIP3    H149711   5.878   5.879  14.137 -0.8276 -3.8538 -1.3662
 9432TIP3    H249712   5.729   5.881  14.166 -0.5412  0.4184  0.5391
 9433TIP3   OH249713   1.309   6.351   2.782  0.3887 -0.3743 -0.0856
 9433TIP3    H149714   1.356   6.275   2.817 -1.6193 -1.8486 -0.4249
 9433TIP3    H249715   1.241   6.370   2.846  0.1595  0.4267 -0.5460
 9434TIP3   OH249716   6.085   1.492  10.858  0.1134  0.1288  0.1276
 9434TIP3    H149717   6.069   1.473  10.765  1.3801 -0.1503 -0.0447
 9434TIP3    H249718   6.157   1.434  10.882  0.3569  0.8117  1.0754
 9435TIP3   OH249719   2.124   1.826  14.226  0.4154 -0.0272  0.4192
 9435TIP3    H149720   2.216   1.847  14.211  0.2532  0.5428  0.2003
 9435TIP3    H249721   2.084   1.909  14.251 -0.2972 -0.0001 -0.7407
 9436TIP3   OH249722   0.170   1.272  16.387  0.2872 -0.2021 -0.8415
 9436TIP3    H149723   0.199   1.295  16.298  0.5516  0.0326 -0.6951
 9436TIP3    H249724   0.088   1.320  16.398  0.0340 -0.5649 -1.1148
 9437TIP3   OH249725   6.631   6.819  16.310 -0.0876  0.4779 -0.3788
 9437TIP3    H149726   6.669   6.907  16.306  1.5659 -0.2241 -1.2431
 9437TIP3    H249727   6.607   6.800  16.219 -0.2654 -0.0188 -0.2277
 9438TIP3   OH249728   5.788   5.264  10.646 -0.0237  0.1490  0.3952
 9438TIP3    H149729   5.796   5.192  10.584  1.1471  0.2731  0.3892
 9438TIP3    H249730   5.699   5.298  10.633  0.9783  1.8443 -3.0425
 9439TIP3   OH249731   3.223   5.965  17.105 -1.0222 -0.0021  0.4328
 9439TIP3    H149732   3.136   5.997  17.132 -1.3371 -0.7101  0.2852
 9439TIP3    H249733   3.276   6.044  17.096 -1.6656  0.4445  0.4893
 9440TIP3   OH249734   3.961   0.145   1.332  0.2785  0.2089  0.1810
 9440TIP3    H149735   4.001   0.161   1.247  1.2626 -0.6554  0.4604
 9440TIP3    H249736   3.962   0.049   1.342 -2.3869  0.0737 -0.0327
 9441TIP3   OH249737   0.069   6.740   1.052 -0.9113  0.1942  0.2481
 9441TIP3    H149738   0.014   6.775   1.122 -1.3095 -0.0717  0.0721
 9441TIP3    H249739   0.146   6.797   1.051 -0.9396  0.2449  0.8490
 9442TIP3   OH249740   1.993   6.325   4.107 -0.6214 -0.5051  0.0218
 9442TIP3    H149741   2.018   6.236   4.087  0.1797 -0.0395 -1.1352
 9442TIP3    H249742   1.898   6.327   4.095 -0.4175 -0.7354 -1.9581
 9443TIP3   OH249743   3.233   0.210   3.135  0.1411 -0.2415  0.2746
 9443TIP3    H149744   3.294   0.246   3.072  1.3368  0.7427  1.9018
 9443TIP3    H249745   3.282   0.207   3.218 -1.3182 -1.5311  1.1624
 9444TIP3   OH249746   0.510   0.500  12.609 -0.2017  0.2851 -0.6824
 9444TIP3    H149747   0.479   0.495  12.699  0.6216 -1.1766 -0.4450
 9444TIP3    H249748   0.546   0.413  12.591  0.0059  0.6668 -2.2968
 9445TIP3   OH249749   3.786   4.346   6.140  0.2640 -0.3640  0.4928
 9445TIP3    H149750   3.811   4.344   6.232 -1.5608  1.4834  1.1061
 9445TIP3    H249751   3.706   4.294   6.136  0.5131 -0.7081 -0.1261
 9446TIP3   OH249752   6.456   4.933   3.526  0.2733  0.0446  0.5610
 9446TIP3    H149753   6.419   4.951   3.612  0.3103  1.7808  0.2546
 9446TIP3    H249754   6.467   5.020   3.486  0.5038 -0.7009 -1.0851
 9447TIP3   OH249755   1.188   0.643  15.707  0.1136 -0.3933 -0.2457
 9447TIP3    H149756   1.188   0.557  15.667 -0.3344 -0.6682  0.3351
 9447TIP3    H249757   1.146   0.631  15.792 -1.0615  0.6174 -0.6417
 9448TIP3   OH249758   4.535   0.379  15.084 -0.4585  0.1917 -0.4483
 9448TIP3    H149759   4.454   0.412  15.123  0.1204  0.3441  0.6666
 9448TIP3    H249760   4.515   0.290  15.057 -0.7283 -0.1109  0.7087
 9449TIP3   OH249761   0.548   5.946  13.445 -0.4840 -0.5980  0.2493
 9449TIP3    H149762   0.585   5.926  13.531 -1.1584  0.3904  0.7812
 9449TIP3    H249763   0.482   5.878  13.431 -0.5939 -0.5725  0.6482
 9450TIP3   OH249764   0.775   2.907  11.411  0.0258 -0.4339 -0.5140
 9450TIP3    H149765   0.743   2.851  11.481 -2.4149  0.3117 -0.9486
 9450TIP3    H249766   0.729   2.990  11.424 -1.0472 -0.4816 -3.3390
 9451TIP3   OH249767   2.740   5.961   2.710 -0.0696  0.1224  0.0270
 9451TIP3    H149768   2.817   6.017   2.718  0.5563 -0.6982 -0.1379
 9451TIP3    H249769   2.668   6.022   2.692  0.7207  0.7997 -0.9483
 9452TIP3   OH249770   5.619   1.121  13.842  0.3962 -0.8580  0.6065
 9452TIP3    H149771   5.560   1.049  13.864  0.7719 -2.0011 -1.7844
 9452TIP3    H249772   5.563   1.185  13.797  0.5223 -0.7782  0.5627
 9453TIP3   OH249773   0.016   3.945  14.146 -0.0027 -0.2555 -0.2008
 9453TIP3    H149774   0.015   3.907  14.059  1.2900 -0.0771 -0.3091
 9453TIP3    H249775   0.035   3.872  14.205 -1.5506 -0.5049  0.0202
 9454TIP3   OH249776   4.273   0.595  14.326 -0.0636 -0.2496 -0.0115
 9454TIP3    H149777   4.207   0.643  14.275  0.2402  0.3467  0.1367
 9454TIP3    H249778   4.338   0.569  14.261  0.8840  1.4631  0.1846
 9455TIP3   OH249779   5.122   4.863  11.948  0.2782 -0.0062  0.0340
 9455TIP3    H149780   5.088   4.860  12.038  0.0864 -1.5914 -0.0686
 9455TIP3    H249781   5.212   4.894  11.958 -0.6533  2.9931  0.4338
 9456TIP3   OH249782   2.451   4.039   5.234  0.6525  0.2179  0.0266
 9456TIP3    H149783   2.508   4.042   5.157 -0.0865 -0.1051 -0.5416
 9456TIP3    H249784   2.511   4.019   5.307  1.1726 -0.7785 -0.6591
 9457TIP3   OH249785   6.379   1.053   2.370  0.8639 -0.7931  0.4495
 9457TIP3    H149786   6.331   1.016   2.443  0.0864 -0.9966 -0.1484
 9457TIP3    H249787   6.466   1.073   2.405  1.2336 -2.9404  0.8625
 9458TIP3   OH249788   0.560   6.615   1.482 -0.4525  0.3160  0.0429
 9458TIP3    H149789   0.629   6.549   1.482  0.5607  1.2780 -1.8592
 9458TIP3    H249790   0.498   6.585   1.415 -1.1463  0.2217  0.7010
 9459TIP3   OH249791   5.499   5.593   1.518 -0.3184 -0.1740  0.2857
 9459TIP3    H149792   5.554   5.672   1.521  1.3148 -1.2827  0.6135
 9459TIP3    H249793   5.522   5.551   1.435 -1.0534 -0.4227  0.1952
 9460TIP3   OH249794   0.866   1.364  10.101 -0.4249  0.0824  0.1109
 9460TIP3    H149795   0.813   1.442  10.081  1.3323  0.9628 -1.3757
 9460TIP3    H249796   0.945   1.399  10.142  0.9377 -0.7747 -1.6811
 9461TIP3   OH249797   1.775   1.381  12.938  0.2218 -0.1057 -0.5715
 9461TIP3    H149798   1.761   1.470  12.969  1.4830 -0.1700  0.2553
 9461TIP3    H249799   1.814   1.335  13.012  0.9558 -0.9584 -1.4534
 9462TIP3   OH249800   0.718   3.535   2.369 -0.4364  0.3161  0.4945
 9462TIP3    H149801   0.679   3.609   2.322 -1.8035 -0.6036  0.1114
 9462TIP3    H249802   0.807   3.563   2.388 -0.4021  1.4155 -1.0783
 9463TIP3   OH249803   1.948   2.650  12.182 -0.1862 -0.0363 -0.3895
 9463TIP3    H149804   1.982   2.563  12.159  0.4666  0.5133 -1.5778
 9463TIP3    H249805   2.026   2.700  12.207 -0.4787  0.4000 -0.3413
 9464TIP3   OH249806   4.425   6.640  12.605 -0.3638  0.3259 -0.3027
 9464TIP3    H149807   4.440   6.547  12.586 -1.2115  0.3907 -1.3685
 9464TIP3    H249808   4.489   6.661  12.673 -1.4615 -1.5402  1.4004
 9465TIP3   OH249809   1.453   0.997  15.871 -0.3402  0.5487  0.1614
 9465TIP3    H149810   1.403   0.928  15.826  1.1399 -1.0796  0.9064
 9465TIP3    H249811   1.459   0.967  15.962  1.2599  1.1066  0.2731
 9466TIP3   OH249812   4.143   6.168   2.081  0.4478 -0.0520 -0.4718
 9466TIP3    H149813   4.092   6.096   2.043  1.7547 -0.4361 -1.5661
 9466TIP3    H249814   4.175   6.134   2.164  0.0675 -0.2856 -0.4175
 9467TIP3   OH249815   5.717   3.635  12.423 -0.0185 -0.5197  0.6839
 9467TIP3    H149816   5.633   3.607  12.387 -1.4932  0.1907  3.3326
 9467TIP3    H249817   5.755   3.556  12.462 -0.3846 -0.4700  1.1493
 9468TIP3   OH249818   4.629   1.542  16.618  0.1347  0.2206  0.0915
 9468TIP3    H149819   4.576   1.552  16.697  1.1621  1.2893  0.6703
 9468TIP3    H249820   4.591   1.466  16.574 -1.4133  0.5252  0.8366
 9469TIP3   OH249821   5.396   0.660  11.122  0.3585 -0.4837 -0.2421
 9469TIP3    H149822   5.396   0.679  11.215 -0.7574 -0.6496 -0.1934
 9469TIP3    H249823   5.474   0.606  11.108 -0.3317 -1.8448  0.9077
 9470TIP3   OH249824   6.232   1.342  16.244  0.2584 -0.5539  0.0144
 9470TIP3    H149825   6.176   1.399  16.192  0.2458 -0.9092 -0.3662
 9470TIP3    H249826   6.281   1.402  16.300  0.2963 -0.1618 -0.4285
 9471TIP3   OH249827   1.753   0.548  13.809  0.3062  0.2602  0.2753
 9471TIP3    H149828   1.737   0.629  13.856 -3.6410 -0.7961  1.1170
 9471TIP3    H249829   1.773   0.484  13.877  1.0225  0.0031 -0.1607
 9472TIP3   OH249830   5.508   4.958   3.275  0.4277 -0.7517  0.4026
 9472TIP3    H149831   5.595   4.990   3.252 -0.0269  0.7133  0.5955
 9472TIP3    H249832   5.449   5.026   3.243 -0.7311 -2.1692 -0.6087
 9473TIP3   OH249833   0.709   5.875   2.304 -0.6998  0.3962  0.5516
 9473TIP3    H149834   0.651   5.838   2.237  1.3214  0.5034 -1.3583
 9473TIP3    H249835   0.765   5.801   2.329  1.0344  1.2221 -0.7034
 9474TIP3   OH249836   4.751   4.963   4.894  0.5309  0.6236 -0.1157
 9474TIP3    H149837   4.670   4.948   4.944  0.4550  1.3018 -0.0208
 9474TIP3    H249838   4.745   5.054   4.867  0.8260  0.4143 -0.9166
 9475TIP3   OH249839   3.534   5.735   3.686 -0.1695 -0.0208 -0.3101
 9475TIP3    H149840   3.541   5.776   3.772  0.3353  0.6911 -0.6822
 9475TIP3    H249841   3.531   5.641   3.704  2.1585 -0.0214  0.3964
 9476TIP3   OH249842   0.966   2.399   3.246  0.4153  0.2233  0.1233
 9476TIP3    H149843   0.942   2.449   3.168  3.1969 -1.0084 -1.6826
 9476TIP3    H249844   1.061   2.387   3.239  0.5241 -1.4903  2.8016
 9477TIP3   OH249845   0.271   5.512   1.643  0.3741 -0.1196 -0.2046
 9477TIP3    H149846   0.225   5.449   1.588  0.7512 -1.0646  0.5327
 9477TIP3    H249847   0.207   5.581   1.660  0.3240  0.3246 -2.0093
 9478TIP3   OH249848   4.778   0.519   4.566  0.1693 -0.1324  0.2193
 9478TIP3    H149849   4.784   0.535   4.660  1.5737  0.4173  0.0534
 9478TIP3    H249850   4.793   0.604   4.526 -0.1410 -0.4164 -0.5114
 9479TIP3   OH249851   6.688   1.592   0.358 -0.4978  0.2631  0.0376
 9479TIP3    H149852   6.731   1.666   0.400  0.8492  0.1193 -1.0157
 9479TIP3    H249853   6.612   1.631   0.314  0.2833  1.0626 -0.6310
 9480TIP3   OH249854   1.073   6.660   4.454 -0.3845 -0.0576  0.4657
 9480TIP3    H149855   1.085   6.749   4.422  0.6872 -0.5097 -0.4198
 9480TIP3    H249856   0.978   6.647   4.453 -0.6391 -1.2557 -6.1759
 9481TIP3   OH249857   0.331   2.912   0.316 -0.4112  0.4859 -0.0603
 9481TIP3    H149858   0.250   2.873   0.347 -0.6280  0.1547 -1.0047
 9481TIP3    H249859   0.326   3.004   0.343 -1.2146  0.5278 -0.3278
 9482TIP3   OH249860   2.394   0.653  10.673  0.0174 -0.1987 -0.0729
 9482TIP3    H149861   2.330   0.587  10.650 -1.0713  0.1463  1.7657
 9482TIP3    H249862   2.457   0.608  10.730  1.5962 -0.5844 -2.0068
 9483TIP3   OH249863   5.882   4.744   2.649  0.1924 -0.1239 -0.3520
 9483TIP3    H149864   5.930   4.660   2.644 -0.0742 -0.2136 -3.4437
 9483TIP3    H249865   5.943   4.808   2.612 -0.0334  0.8593  0.9307
 9484TIP3   OH249866   0.328   2.190   0.098  0.2595  0.1203  0.5159
 9484TIP3    H149867   0.338   2.270   0.046  0.4885 -0.2534 -0.0316
 9484TIP3    H249868   0.235   2.186   0.118  0.3791  0.9706  1.2898
 9485TIP3   OH249869   3.009   1.674  16.090 -0.3516  0.5455  0.5186
 9485TIP3    H149870   3.012   1.686  16.185 -0.1230 -1.0988  0.7595
 9485TIP3    H249871   2.994   1.761  16.054  0.8708  1.3961  1.9895
 9486TIP3   OH249872   1.585   2.159   1.802  0.4786 -0.2166  0.1142
 9486TIP3    H149873   1.646   2.144   1.874  1.9681  0.9925 -0.8075
 9486TIP3    H249874   1.623   2.111   1.728 -2.2182 -3.3468  0.5727
 9487TIP3   OH249875   2.079   6.648  14.227 -0.0892 -0.1858 -0.1090
 9487TIP3    H149876   2.113   6.699  14.301 -0.7346 -1.0182  0.7972
 9487TIP3    H249877   2.043   6.712  14.167  0.3715  0.5099  0.3419
 9488TIP3   OH249878   0.451   6.068   0.864 -0.7884  0.0707  0.4649
 9488TIP3    H149879   0.457   6.103   0.775 -2.3807 -0.6644  0.0296
 9488TIP3    H249880   0.490   6.135   0.919 -1.0287  1.1602 -0.6541
 9489TIP3   OH249881   5.713   0.974  10.636  0.1223  0.1491  0.2383
 9489TIP3    H149882   5.739   0.893  10.592 -0.1489 -0.2308  0.7640
 9489TIP3    H249883   5.795   1.020  10.654  0.3566 -0.4949  0.8441
 9490TIP3   OH249884   0.951   1.898   6.031 -0.1978 -0.2120  0.8175
 9490TIP3    H149885   0.900   1.975   6.054  0.4785  1.0581 -1.5537
 9490TIP3    H249886   0.886   1.832   6.009 -0.7909 -0.0619  2.0447
 9491TIP3   OH249887   3.449   0.144   5.375 -0.3509 -0.1489 -0.0085
 9491TIP3    H149888   3.465   0.151   5.469 -2.5740  1.4754  0.3612
 9491TIP3    H249889   3.396   0.065   5.365 -0.2084 -0.2606  0.1229
 9492TIP3   OH249890   4.109   2.510   3.803  0.1824  0.3495 -0.3660
 9492TIP3    H149891   4.152   2.446   3.746  1.1382  1.1125 -0.5561
 9492TIP3    H249892   4.124   2.478   3.892 -0.4466 -0.3324 -0.4986
 9493TIP3   OH249893   3.387   4.280   4.140  0.3217 -0.1496 -0.2990
 9493TIP3    H149894   3.478   4.304   4.159 -0.0449  0.3981  0.9058
 9493TIP3    H249895   3.371   4.203   4.194 -0.6117  1.1574  1.3932
 9494TIP3   OH249896   4.717   0.423   3.525 -0.6425 -0.2346 -0.4344
 9494TIP3    H149897   4.787   0.395   3.466  0.6478  0.4271  0.7161
 9494TIP3    H249898   4.658   0.474   3.470  2.7040  4.0698 -0.5148
 9495TIP3   OH249899   1.890   0.886   4.289 -0.1368 -0.3913 -0.8168
 9495TIP3    H149900   1.950   0.905   4.361  0.1616 -0.3028 -1.0841
 9495TIP3    H249901   1.806   0.920   4.318 -0.9846 -3.7084  1.1137
 9496TIP3   OH249902   5.276   4.358   0.446  0.1467 -0.0364  0.0039
 9496TIP3    H149903   5.209   4.418   0.478  2.9147  2.6680  1.1783
 9496TIP3    H249904   5.252   4.342   0.354 -2.0485  0.7424  0.3739
 9497TIP3   OH249905   1.410   6.652   0.598 -0.6572 -0.1449 -0.6953
 9497TIP3    H149906   1.453   6.576   0.558 -0.9121 -0.0863 -1.0890
 9497TIP3    H249907   1.425   6.641   0.692 -1.4453 -1.1505 -0.6749
 9498TIP3   OH249908   1.903   2.014   0.086  0.0522 -0.0543  0.0986
 9498TIP3    H149909   1.827   1.981   0.133 -0.4167  2.1913  1.0532
 9498TIP3    H249910   1.868   2.081   0.027  1.1933  0.4295 -0.0578
 9499TIP3   OH249911   5.676   2.209   1.610 -0.4167 -0.3539  0.0713
 9499TIP3    H149912   5.584   2.235   1.614 -0.3596 -0.2478  1.0368
 9499TIP3    H249913   5.673   2.115   1.594 -0.6842 -0.3239 -0.0765
 9500TIP3   OH249914   0.411   4.941   0.434 -0.2339 -0.2505 -0.1136
 9500TIP3    H149915   0.499   4.967   0.408  0.9601 -2.6484  1.1182
 9500TIP3    H249916   0.362   4.936   0.352 -0.0830  3.6018 -0.6094
 9501TIP3   OH249917   4.311   2.232  14.488  0.1947 -0.7038  0.4826
 9501TIP3    H149918   4.325   2.318  14.527 -2.0003 -0.2828  0.4697
 9501TIP3    H249919   4.373   2.175  14.534 -0.0216  0.4003  2.2501
 9502TIP3   OH249920   1.045   3.122  15.835  0.3632  0.7473  0.4002
 9502TIP3    H149921   0.978   3.190  15.839  0.4680  1.0470 -1.7527
 9502TIP3    H249922   1.026   3.074  15.754  1.4600 -0.5526  0.8662
 9503TIP3   OH249923   2.764   4.310  11.833 -0.1550 -0.0945  0.2570
 9503TIP3    H149924   2.734   4.388  11.880  1.1605 -1.2327  3.2952
 9503TIP3    H249925   2.687   4.253  11.830 -0.4429  0.2765  0.4241
 9504TIP3   OH249926   5.067   0.143  13.116  0.2993 -0.3963 -0.0760
 9504TIP3    H149927   5.071   0.112  13.026 -2.6182  0.1385 -0.4984
 9504TIP3    H249928   5.133   0.212  13.121  0.3342 -0.2571 -1.9111
 9505TIP3   OH249929   2.297   5.519  11.012  0.2234 -0.1850 -0.2010
 9505TIP3    H149930   2.241   5.516  10.935 -0.5499 -0.1532  0.3563
 9505TIP3    H249931   2.378   5.477  10.984 -0.2529 -0.6789 -0.8638
 9506TIP3   OH249932   0.831   4.048  16.738 -0.5890  0.5024  0.5604
 9506TIP3    H149933   0.799   3.980  16.798 -0.0012  0.8528  1.2863
 9506TIP3    H249934   0.759   4.062  16.677 -1.2251  0.1820  1.2296
 9507TIP3   OH249935   4.024   6.547  15.271 -0.2206 -0.0307 -0.1920
 9507TIP3    H149936   3.991   6.522  15.357  1.4712 -1.1943  0.1811
 9507TIP3    H249937   4.002   6.474  15.214  2.4457 -1.3330  0.3018
 9508TIP3   OH249938   1.329   3.260  11.096  0.3411 -0.4406 -0.1849
 9508TIP3    H149939   1.259   3.196  11.108 -0.1249  0.0001 -0.4737
 9508TIP3    H249940   1.283   3.343  11.080  0.8779  0.5136  2.5958
 9509TIP3   OH249941   5.034   3.733  15.014 -0.2873 -0.1693 -0.1412
 9509TIP3    H149942   5.035   3.759  14.922  0.3915  0.1238 -0.0619
 9509TIP3    H249943   5.020   3.815  15.062  0.7272 -0.1035  0.0660
 9510TIP3   OH249944   2.492   5.713   1.282 -0.0481  0.8996 -0.3068
 9510TIP3    H149945   2.465   5.779   1.219 -0.8576  0.8686 -0.0103
 9510TIP3    H249946   2.579   5.686   1.254 -0.2721  1.1118 -1.2188
 9511TIP3   OH249947   3.749   4.918   3.228 -0.1233 -0.7254  0.1931
 9511TIP3    H149948   3.807   4.843   3.236  0.8210 -0.0652 -0.2514
 9511TIP3    H249949   3.688   4.895   3.158 -1.0604 -1.8314  1.3351
 9512TIP3   OH249950   0.573   5.140   4.558 -0.6832  0.0765  0.3020
 9512TIP3    H149951   0.551   5.049   4.539 -4.7401  1.2662 -1.7780
 9512TIP3    H249952   0.642   5.162   4.496 -2.4940 -0.5696 -2.0555
 9513TIP3   OH249953   0.894   1.502  14.720  0.2169 -0.0255  0.1520
 9513TIP3    H149954   0.967   1.473  14.775  0.2578 -0.2943 -0.0425
 9513TIP3    H249955   0.844   1.422  14.703 -0.7258  0.3280  1.1675
 9514TIP3   OH249956   3.443   2.031  16.412 -0.7974  0.3334 -0.0945
 9514TIP3    H149957   3.487   2.106  16.373 -0.7239  1.1215  1.4135
 9514TIP3    H249958   3.367   2.070  16.457 -1.5261 -0.6770 -0.4104
 9515TIP3   OH249959   1.563   5.554   6.518  0.0025  0.2568 -0.4998
 9515TIP3    H149960   1.642   5.590   6.478 -0.2661 -0.9527 -2.2567
 9515TIP3    H249961   1.594   5.486   6.578  0.3184 -0.3740 -1.3592
 9516TIP3   OH249962   0.213   3.902  16.350 -0.0940  0.0338 -0.3874
 9516TIP3    H149963   0.306   3.890  16.330 -0.1012 -1.4728  0.3817
 9516TIP3    H249964   0.189   3.825  16.401 -1.9544  0.0365 -1.1773
 9517TIP3   OH249965   2.060   1.023   3.027  0.0580 -0.2499  0.3414
 9517TIP3    H149966   2.136   0.980   2.987 -0.2056  0.2776 -0.7637
 9517TIP3    H249967   2.094   1.107   3.058 -0.1043  0.0483 -0.2857
 9518TIP3   OH249968   3.862   5.652  12.515  0.2724 -0.1119  0.0970
 9518TIP3    H149969   3.832   5.614  12.597  1.9614 -0.3036  0.6815
 9518TIP3    H249970   3.921   5.586  12.478 -0.6469 -0.1348 -1.4174
 9519TIP3   OH249971   1.663   5.149  16.021  0.0515  0.4577 -0.0646
 9519TIP3    H149972   1.635   5.229  15.975 -0.3571  0.8945  0.9145
 9519TIP3    H249973   1.723   5.181  16.088 -1.2171  0.1345  1.2780
 9520TIP3   OH249974   1.859   1.425  14.137 -0.0250 -0.2903 -0.3698
 9520TIP3    H149975   1.937   1.371  14.152  1.5574  2.3297  1.7165
 9520TIP3    H249976   1.805   1.411  14.216 -1.0214 -0.9533 -1.1375
 9521TIP3   OH249977   6.406   1.689  15.374 -0.6260  0.2281 -0.4139
 9521TIP3    H149978   6.333   1.730  15.327 -1.5109  0.3455  1.0069
 9521TIP3    H249979   6.482   1.741  15.348 -1.1977  0.7129 -1.1849
 9522TIP3   OH249980   2.520   0.083  16.320 -0.3114  0.1621 -0.3691
 9522TIP3    H149981   2.500   0.044  16.405 -2.5624 -0.1232 -0.9668
 9522TIP3    H249982   2.585   0.025  16.281  1.4078  0.7589  1.4459
 9523TIP3   OH249983   1.070   3.155   4.741  0.0709 -0.5865  0.5876
 9523TIP3    H149984   1.111   3.099   4.675  0.5280  0.6129 -0.1789
 9523TIP3    H249985   1.142   3.209   4.774  0.0110 -1.6654  2.6512
 9524TIP3   OH249986   0.513   0.433   0.982 -0.1637  0.0183  0.9444
 9524TIP3    H149987   0.440   0.386   1.023 -1.3015  0.8492 -0.0607
 9524TIP3    H249988   0.574   0.450   1.054 -0.2172 -2.0375  1.5268
 9525TIP3   OH249989   6.175   0.902  12.481 -0.4490  0.0765 -0.3441
 9525TIP3    H149990   6.184   0.863  12.394  0.1620  0.7383 -0.5846
 9525TIP3    H249991   6.185   0.996  12.467 -0.0709  0.1697  0.4713
 9526TIP3   OH249992   3.496   6.475   0.652  0.0364  0.2160 -0.6728
 9526TIP3    H149993   3.470   6.383   0.664  2.1001 -0.2168  1.0647
 9526TIP3    H249994   3.556   6.474   0.578  1.5710 -0.2149  0.5311
 9527TIP3   OH249995   3.796   6.769  12.649  0.6432  0.5437 -0.7014
 9527TIP3    H149996   3.760   6.792  12.735  0.3099 -0.5869 -0.5160
 9527TIP3    H249997   3.889   6.792  12.656  0.8010 -0.2903  0.2748
 9528TIP3   OH249998   1.552   5.581   4.004  0.2946 -0.1776  0.0285
 9528TIP3    H149999   1.513   5.668   3.992 -0.0702  0.1858  3.0285
 9528TIP3    H250000   1.639   5.599   4.038  0.1410 -0.9720  0.8640
 9529TIP3   OH250001   3.172   2.587   2.290  0.4704 -0.2145 -0.0655
 9529TIP3    H150002   3.220   2.591   2.207  0.5508  1.7909  0.0430
 9529TIP3    H250003   3.085   2.620   2.269  0.9294  1.7520  0.9036
 9530TIP3   OH250004   2.629   5.765  13.778 -0.0509 -0.2230 -0.1981
 9530TIP3    H150005   2.569   5.691  13.775  1.1332 -1.2034 -0.9418
 9530TIP3    H250006   2.670   5.759  13.865  0.9384 -1.2349 -0.6981
 9531TIP3   OH250007   6.713   2.155  12.218  0.0915 -0.3662 -0.2712
 9531TIP3    H150008   6.739   2.105  12.296 -1.7151 -2.3679 -0.8395
 9531TIP3    H250009   6.772   2.124  12.149  2.0900  1.8380  0.3075
 9532TIP3   OH250010   2.817   3.402  14.675 -0.1246 -0.0203  0.0806
 9532TIP3    H150011   2.788   3.336  14.738  0.5950  0.5220  0.9978
 9532TIP3    H250012   2.879   3.355  14.619  3.0501  0.5799  2.8151
 9533TIP3   OH250013   3.675   4.123  11.561 -0.1053  0.3315  0.3969
 9533TIP3    H150014   3.638   4.041  11.528  0.3085  0.2511  0.1274
 9533TIP3    H250015   3.764   4.100  11.588  1.2173  1.3189 -2.6552
 9534TIP3   OH250016   2.871   6.299  15.473  0.0020 -0.0766 -0.2200
 9534TIP3    H150017   2.936   6.232  15.454 -0.1017 -0.3424  0.3495
 9534TIP3    H250018   2.806   6.290  15.403  1.0799  0.8641 -1.3822
 9535TIP3   OH250019   2.945   3.754  16.597 -0.0249 -0.2424  0.0245
 9535TIP3    H150020   2.951   3.660  16.612 -1.8551 -1.0989 -3.5113
 9535TIP3    H250021   2.952   3.793  16.684  0.4880 -3.6294  1.6518
 9536TIP3   OH250022   3.489   2.541  15.651  0.4589 -0.0261 -0.5138
 9536TIP3    H150023   3.501   2.629  15.688  0.5542  0.0408 -0.7003
 9536TIP3    H250024   3.539   2.484  15.709 -0.4078 -0.0990  0.1845
 9537TIP3   OH250025   1.580   4.471  12.864  0.1836  0.3656  0.7192
 9537TIP3    H150026   1.621   4.552  12.836  0.0592 -0.2584 -1.5076
 9537TIP3    H250027   1.652   4.409  12.874  0.1806  0.4587  1.3450
 9538TIP3   OH250028   3.566   0.160  14.738 -0.1901  0.0851 -0.0793
 9538TIP3    H150029   3.592   0.074  14.703  2.1630  0.8670 -0.4534
 9538TIP3    H250030   3.547   0.212  14.660  0.2847  0.4395  0.0399
 9539TIP3   OH250031   0.439   3.854   0.429 -0.1298  0.2150 -0.0911
 9539TIP3    H150032   0.510   3.878   0.369  0.3788  0.6426  0.6711
 9539TIP3    H250033   0.360   3.853   0.374  0.0348  2.3117 -0.4281
 9540TIP3   OH250034   4.490   5.384   6.281  0.1909 -0.0434 -0.5855
 9540TIP3    H150035   4.451   5.296   6.289 -0.4037  0.2543 -0.1264
 9540TIP3    H250036   4.449   5.434   6.351  1.7704  0.1564  0.2460
 9541TIP3   OH250037   4.660   2.825  12.708 -0.2223  0.0871 -0.1346
 9541TIP3    H150038   4.676   2.733  12.688 -0.3942  0.1066 -0.3668
 9541TIP3    H250039   4.600   2.854  12.640 -1.1599  0.0497  0.6629
 9542TIP3   OH250040   5.031   6.780  16.317 -0.1362 -0.0519 -0.2194
 9542TIP3    H150041   5.072   6.694  16.330  0.2318 -0.1242 -1.6399
 9542TIP3    H250042   5.088   6.841  16.363 -0.1043 -0.5132  0.3531
 9543TIP3   OH250043   5.182   0.519   3.500 -0.0246 -0.2513 -0.1076
 9543TIP3    H150044   5.211   0.576   3.428  0.1728 -1.4707 -1.0296
 9543TIP3    H250045   5.251   0.454   3.509  0.1954  0.1787  1.5671
 9544TIP3   OH250046   1.431   0.883   4.795  0.3473  0.0814 -0.8767
 9544TIP3    H150047   1.517   0.862   4.757 -0.3208 -1.0957 -1.8237
 9544TIP3    H250048   1.442   0.866   4.889  1.0859 -0.3206 -1.0234
 9545TIP3   OH250049   0.980   6.142  11.538  0.4927  0.0782  0.7009
 9545TIP3    H150050   0.926   6.147  11.459  2.0017 -3.1825 -0.6896
 9545TIP3    H250051   0.921   6.110  11.606 -0.2554  0.5773  0.3012
 9546TIP3   OH250052   6.818   0.581  16.677 -0.1355  0.1243  0.2888
 9546TIP3    H150053   6.882   0.514  16.652 -0.7708  0.2703 -1.9673
 9546TIP3    H250054   6.780   0.609  16.594 -1.2220  1.9618  1.3542
 9547TIP3   OH250055   6.370   0.803  11.139 -0.5680  0.0088  0.6162
 9547TIP3    H150056   6.457   0.804  11.178 -0.6593 -1.4183  0.9288
 9547TIP3    H250057   6.366   0.720  11.091 -1.5969  0.2544  0.2422
 9548TIP3   OH250058   6.257   3.791  11.660  0.1883 -0.2964  0.0207
 9548TIP3    H150059   6.175   3.822  11.698  0.1623 -1.2569  0.7811
 9548TIP3    H250060   6.236   3.705  11.625  1.0077 -0.8224  0.7670
 9549TIP3   OH250061   0.909   0.285  16.247 -0.3162 -1.0133  0.0963
 9549TIP3    H150062   0.951   0.371  16.246  0.9817 -1.5696  2.1959
 9549TIP3    H250063   0.981   0.223  16.251 -1.2758 -2.1393  0.5127
 9550TIP3   OH250064   4.231   5.996   3.404  0.0504 -0.0109 -0.1802
 9550TIP3    H150065   4.166   6.037   3.348 -1.0455 -0.8231  0.4647
 9550TIP3    H250066   4.276   5.934   3.346  1.4273  1.6986 -1.0453
 9551TIP3   OH250067   3.860   5.971  12.151 -0.1541 -0.5169  0.0617
 9551TIP3    H150068   3.796   5.927  12.208  0.3835  1.3408  2.2178
 9551TIP3    H250069   3.940   5.919  12.160 -0.0270 -0.1425  1.1566
 9552TIP3   OH250070   0.504   4.855  11.901  0.0771 -0.3415  0.2593
 9552TIP3    H150071   0.517   4.762  11.920 -0.1973 -0.7238 -1.2831
 9552TIP3    H250072   0.509   4.861  11.805  1.5885  1.4852  0.4106
 9553TIP3   OH250073   1.343   5.577   3.079  0.3390 -0.3431 -0.3266
 9553TIP3    H150074   1.395   5.554   3.002  3.3491 -1.1970  1.7905
 9553TIP3    H250075   1.290   5.499   3.095 -1.0998  0.2134 -2.0271
 9554TIP3   OH250076   4.143   2.351   2.247 -0.1443  0.4995  0.3020
 9554TIP3    H150077   4.170   2.442   2.241 -1.0556  0.7918  0.3727
 9554TIP3    H250078   4.209   2.309   2.302  1.5115  0.5958 -1.4938
 9555TIP3   OH250079   1.543   3.870  16.497  0.3223  0.5748  1.0286
 9555TIP3    H150080   1.458   3.914  16.502 -0.7878 -1.0070 -1.6070
 9555TIP3    H250081   1.605   3.940  16.474 -0.9681  1.2521 -0.6386
 9556TIP3   OH250082   0.641   5.224  14.293 -0.0067  0.4515  0.0167
 9556TIP3    H150083   0.622   5.317  14.306 -1.2847  0.1628  0.3879
 9556TIP3    H250084   0.555   5.184  14.279  0.4823 -0.7428  0.2896
 9557TIP3   OH250085   5.830   6.211   5.715 -0.3410  0.7974 -0.0852
 9557TIP3    H150086   5.881   6.247   5.642 -0.1870  1.8417  0.5193
 9557TIP3    H250087   5.855   6.119   5.718 -0.2902  0.7559 -1.2980
 9558TIP3   OH250088   0.573   5.003   3.381  0.1244 -0.1128 -0.0967
 9558TIP3    H150089   0.483   4.971   3.391 -0.4355  1.4698  0.2758
 9558TIP3    H250090   0.564   5.089   3.339  1.6787 -1.1495 -2.7905
 9559TIP3   OH250091   6.295   1.724   5.992  0.3860 -0.4179  0.2333
 9559TIP3    H150092   6.331   1.693   6.075  0.5659 -1.2367 -0.1434
 9559TIP3    H250093   6.341   1.807   5.975  1.1022 -0.7678  0.4377
 9560TIP3   OH250094   3.365   4.247   1.726  0.3548  0.4475 -0.2487
 9560TIP3    H150095   3.363   4.212   1.637  0.1735  0.0726 -0.0978
 9560TIP3    H250096   3.432   4.195   1.770  0.1793  0.3793 -0.0614
 9561TIP3   OH250097   0.917   5.189   6.093 -0.3401  0.1623 -0.0780
 9561TIP3    H150098   1.000   5.202   6.139  0.3717  1.3408 -1.5857
 9561TIP3    H250099   0.865   5.134   6.151  1.1767  0.1058  1.2869
 9562TIP3   OH250100   5.419   0.565  14.409 -0.6464 -0.5072  0.1610
 9562TIP3    H150101   5.330   0.599  14.400 -1.2941 -1.8811  1.0931
 9562TIP3    H250102   5.432   0.558  14.504  0.4392 -0.3939  0.0299
 9563TIP3   OH250103   4.324   2.316  16.662 -0.4036  0.2899 -0.1657
 9563TIP3    H150104   4.233   2.311  16.633  0.0683  0.2525 -1.7197
 9563TIP3    H250105   4.329   2.253  16.733 -1.7388  0.7434  0.3738
 9564TIP3   OH250106   0.438   5.678  16.781  0.4422 -0.8236 -0.3539
 9564TIP3    H150107   0.433   5.589  16.746 -1.0913 -1.4117  1.2012
 9564TIP3    H250108   0.424   5.668  16.876  0.4586  1.0481 -0.1000
 9565TIP3   OH250109   3.062   1.382   0.800 -0.1375 -0.6541  0.1209
 9565TIP3    H150110   3.119   1.390   0.724  1.2016  0.1090  1.1573
 9565TIP3    H250111   2.994   1.449   0.785  0.5068 -0.0298 -0.0839
 9566TIP3   OH250112   2.382   1.859  11.165  0.1180  0.0181  0.0216
 9566TIP3    H150113   2.417   1.947  11.183 -1.2031  0.5388  0.1805
 9566TIP3    H250114   2.449   1.799  11.198  1.7868  0.9415 -1.5612
 9567TIP3   OH250115   6.649   4.989   0.748 -0.6124 -0.1646 -0.2380
 9567TIP3    H150116   6.647   4.901   0.787 -0.4176  0.4426  1.2018
 9567TIP3    H250117   6.570   5.032   0.781 -1.5051 -0.2482 -2.1313
 9568TIP3   OH250118   0.803   3.054  10.904  0.0154 -0.2900  0.2805
 9568TIP3    H150119   0.820   3.031  10.812 -1.2905  0.0590 -0.0710
 9568TIP3    H250120   0.863   3.127  10.922  0.0364 -0.1332 -0.3964
 9569TIP3   OH250121   2.954   5.256  11.431 -0.3070 -0.6364 -0.7601
 9569TIP3    H150122   2.995   5.201  11.497  0.5266 -1.1780 -1.6933
 9569TIP3    H250123   2.946   5.342  11.472  0.8368 -0.7782 -0.1977
 9570TIP3   OH250124   5.005   4.004  13.424  0.2116  0.0373 -0.3156
 9570TIP3    H150125   5.096   4.020  13.399 -0.0795 -0.7754 -2.0818
 9570TIP3    H250126   4.981   3.925  13.375 -2.2003  1.6614 -1.9640
 9571TIP3   OH250127   3.955   2.773  14.499 -1.3404  0.9649 -0.0841
 9571TIP3    H150128   3.885   2.763  14.435 -2.1742 -0.3245  0.9611
 9571TIP3    H250129   3.916   2.741  14.581  0.2505  0.8872  0.6715
 9572TIP3   OH250130   6.417   3.628  11.367 -0.2373 -0.1472  0.3471
 9572TIP3    H150131   6.407   3.683  11.290  3.7298  0.1916 -0.1725
 9572TIP3    H250132   6.418   3.538  11.333  0.1488 -0.0829  0.1853
 9573TIP3   OH250133   5.627   0.597   2.556  0.1283  0.6013 -0.0365
 9573TIP3    H150134   5.570   0.595   2.479 -0.3680 -1.0808  0.3362
 9573TIP3    H250135   5.581   0.544   2.621  1.9555 -0.5274  0.3904
 9574TIP3   OH250136   2.571   2.540  11.022  0.1155  0.0187  0.2442
 9574TIP3    H150137   2.481   2.513  11.003  0.4591 -0.8447 -0.2080
 9574TIP3    H250138   2.605   2.470  11.079  0.6968  0.0095 -0.1054
 9575TIP3   OH250139   1.352   4.507   3.307  0.1786  0.0262  0.0869
 9575TIP3    H150140   1.338   4.576   3.372  1.3439 -0.7552  1.2160
 9575TIP3    H250141   1.272   4.455   3.310  0.7022 -0.7631  1.9021
 9576TIP3   OH250142   4.147   1.344  16.350 -0.6604 -0.0312  0.7323
 9576TIP3    H150143   4.068   1.301  16.318 -0.9088  1.4148 -0.7818
 9576TIP3    H250144   4.151   1.426  16.300  1.6571  0.0589  0.9446
 9577TIP3   OH250145   3.630   6.114   4.456  0.3705  0.0285 -0.5372
 9577TIP3    H150146   3.633   6.071   4.542 -0.6419  1.1146  0.0755
 9577TIP3    H250147   3.708   6.082   4.411 -0.8270 -3.2729 -0.5718
 9578TIP3   OH250148   6.708   3.448  16.535  0.9297  0.2001  0.1428
 9578TIP3    H150149   6.799   3.420  16.544  0.6492 -0.5113  0.9967
 9578TIP3    H250150   6.678   3.407  16.454  1.3842  0.4831 -0.1691
 9579TIP3   OH250151   5.380   3.292   4.651  0.3962  0.2593 -0.2328
 9579TIP3    H150152   5.475   3.291   4.641  0.2302 -1.9550 -2.8674
 9579TIP3    H250153   5.346   3.313   4.564 -1.5392  0.1803  0.4457
 9580TIP3   OH250154   5.245   5.968  15.369  0.1272  0.0373 -0.2824
 9580TIP3    H150155   5.209   6.054  15.351  0.1882 -0.3356 -2.4628
 9580TIP3    H250156   5.289   5.943  15.288  2.1053 -1.0870  1.0537
 9581TIP3   OH250157   4.016   4.468   4.825  0.1746 -0.3437 -0.0278
 9581TIP3    H150158   4.086   4.456   4.889 -1.2344 -0.7955  1.4781
 9581TIP3    H250159   3.937   4.481   4.877 -0.8042  0.7323 -1.6788
 9582TIP3   OH250160   3.725   6.116  13.154 -0.3762 -0.2164  0.1550
 9582TIP3    H150161   3.687   6.190  13.202  1.2674 -0.4361  1.9142
 9582TIP3    H250162   3.767   6.156  13.078  1.1881  0.8430  1.5037
 9583TIP3   OH250163   2.485   5.409  11.943 -0.0588  0.3861  0.1968
 9583TIP3    H150164   2.491   5.340  11.878 -1.0982  0.8393 -0.4040
 9583TIP3    H250165   2.475   5.362  12.026  1.3843 -0.1929  0.0580
 9584TIP3   OH250166   3.152   3.044  10.495 -0.3292 -0.6555 -0.2936
 9584TIP3    H150167   3.166   2.959  10.452 -1.7017  0.4539 -3.1860
 9584TIP3    H250168   3.068   3.075  10.461  0.9746  2.6854 -0.9202
 9585TIP3   OH250169   0.397   6.506   4.184  0.1942 -0.0217  0.1994
 9585TIP3    H150170   0.395   6.439   4.252  0.2738 -0.1605  0.0671
 9585TIP3    H250171   0.415   6.457   4.103  0.9930  0.2401  0.2107
 9586TIP3   OH250172   5.678   5.856  11.178  0.0248 -0.4327  0.4729
 9586TIP3    H150173   5.772   5.841  11.179  0.0327 -0.4491  2.1975
 9586TIP3    H250174   5.669   5.944  11.141  0.6437 -0.6972 -0.3522
 9587TIP3   OH250175   0.769   4.483  14.068  0.7877  0.0856 -0.2982
 9587TIP3    H150176   0.718   4.402  14.072  0.6541  0.2005  0.3683
 9587TIP3    H250177   0.860   4.453  14.066  0.7389 -0.2030 -3.3532
 9588TIP3   OH250178   5.989   2.278  15.562  0.3047 -1.0560  0.3689
 9588TIP3    H150179   5.958   2.315  15.479 -0.2826 -1.7380  0.2768
 9588TIP3    H250180   6.032   2.351  15.606 -1.3655 -0.0818  0.4629
 9589TIP3   OH250181   5.107   0.563  12.460 -0.1081 -0.0441 -0.2579
 9589TIP3    H150182   5.070   0.542  12.374 -1.9550 -2.0898  0.9251
 9589TIP3    H250183   5.180   0.502  12.469 -0.0629  0.0059 -0.2863
 9590TIP3   OH250184   5.570   4.554   3.685 -0.4024 -0.9584 -0.3929
 9590TIP3    H150185   5.530   4.561   3.598 -0.7174  1.1034 -0.1515
 9590TIP3    H250186   5.497   4.535   3.744 -0.6338  0.1174 -0.3004
 9591TIP3   OH250187   1.134   2.100   4.755 -0.3083  0.1567 -0.1506
 9591TIP3    H150188   1.144   2.192   4.780  2.4631 -0.1216  0.0649
 9591TIP3    H250189   1.211   2.081   4.700 -0.2049 -2.3062  0.7156
 9592TIP3   OH250190   0.701   1.518  17.095  0.0682 -0.1580  1.0261
 9592TIP3    H150191   0.627   1.457  17.092  0.5242 -0.6700 -0.6337
 9592TIP3    H250192   0.661   1.605  17.086 -0.3421 -0.4459 -0.0763
 9593TIP3   OH250193   4.167   4.853   3.789 -0.5715 -0.5408  1.0978
 9593TIP3    H150194   4.255   4.887   3.802 -0.1825 -0.5546 -1.2086
 9593TIP3    H250195   4.172   4.763   3.820  0.7227 -1.0726 -0.5074
 9594TIP3   OH250196   4.685   0.989   5.089  0.1744  0.5851  0.0204
 9594TIP3    H150197   4.718   0.979   5.000 -1.2329  0.5165 -0.5122
 9594TIP3    H250198   4.658   0.901   5.115  0.4889  0.6223  0.4964
 9595TIP3   OH250199   5.011   4.867   1.075  0.6346  0.3511  0.3198
 9595TIP3    H150200   4.953   4.870   1.151  0.1697 -0.7227  0.0152
 9595TIP3    H250201   5.049   4.779   1.077  2.5159  1.1026  0.6918
 9596TIP3   OH250202   4.777   0.347   4.144  0.4102 -0.0627  0.3142
 9596TIP3    H150203   4.827   0.311   4.217  1.1928 -1.0621 -0.6812
 9596TIP3    H250204   4.825   0.426   4.119  0.0270  0.3988  0.9726
 9597TIP3   OH250205   5.895   4.425  12.125  0.0085  0.6889 -0.3922
 9597TIP3    H150206   5.946   4.502  12.101  1.3072  0.0098  0.0606
 9597TIP3    H250207   5.887   4.375  12.044  0.2407  0.7080 -0.4284
 9598TIP3   OH250208   1.020   1.671  16.314 -0.7867 -0.4606 -0.1607
 9598TIP3    H150209   1.039   1.619  16.392 -1.3697  0.5832  0.7119
 9598TIP3    H250210   0.959   1.738  16.344 -1.8873 -0.6780 -1.7532
 9599TIP3   OH250211   4.019   4.878  14.451 -0.7258 -0.4082  0.1365
 9599TIP3    H150212   3.987   4.941  14.386  1.4413  0.4716 -0.1470
 9599TIP3    H250213   4.014   4.925  14.534 -0.9010 -0.5596  0.2136
 9600TIP3   OH250214   4.461   5.421  11.111 -0.6163 -0.0696 -0.8171
 9600TIP3    H150215   4.534   5.362  11.126 -0.6689  0.2541  0.9829
 9600TIP3    H250216   4.455   5.429  11.016  0.3820 -1.6875 -1.0492
 9601TIP3   OH250217   2.600   1.817  16.426 -0.2654 -0.3994  0.2307
 9601TIP3    H150218   2.613   1.808  16.332 -2.0883  1.1769 -0.2505
 9601TIP3    H250219   2.532   1.753  16.447  0.2203 -0.8292  0.5092
 9602TIP3   OH250220   3.271   5.961   5.075  0.4628  0.2296 -0.3431
 9602TIP3    H150221   3.278   6.033   5.138  0.3763 -0.8639  0.9691
 9602TIP3    H250222   3.361   5.937   5.056  0.5305  1.3869 -1.6819
 9603TIP3   OH250223   2.012   4.367   5.609  0.4051  0.0780  0.1437
 9603TIP3    H150224   1.951   4.438   5.628 -0.3883  0.2444 -2.5045
 9603TIP3    H250225   2.099   4.405   5.622 -0.0263  1.1455  0.0259
 9604TIP3   OH250226   5.064   3.321  15.168  0.7034  0.3287 -0.2271
 9604TIP3    H150227   5.040   3.329  15.076 -1.7435  0.9609  0.3778
 9604TIP3    H250228   5.095   3.408  15.193 -2.4624  1.4397  0.3997
 9605TIP3   OH250229   2.586   2.626   3.699  0.0410 -0.3375  0.0139
 9605TIP3    H150230   2.506   2.641   3.749 -0.6760  0.5559 -1.3383
 9605TIP3    H250231   2.643   2.576   3.759 -0.7951  0.6009  1.6569
 9606TIP3   OH250232   6.145   5.478   0.061 -0.0319  0.1454 -0.2660
 9606TIP3    H150233   6.101   5.422   0.125  1.7624 -2.1978 -0.9522
 9606TIP3    H250234   6.238   5.469   0.080  0.4274  1.2642 -1.7418
 9607TIP3   OH250235   4.455   0.158  14.635 -0.2597  0.0853 -0.0531
 9607TIP3    H150236   4.413   0.243  14.654  1.5080  1.7693 -2.9142
 9607TIP3    H250237   4.415   0.130  14.553 -0.0653 -1.3626  0.3261
 9608TIP3   OH250238   0.330   6.807   2.918 -0.5843  0.0611 -0.3187
 9608TIP3    H150239   0.383   6.729   2.900 -0.8970 -0.0683 -0.6796
 9608TIP3    H250240   0.329   6.855   2.835  0.5808  1.0465  0.2044
 9609TIP3   OH250241   6.327   5.835  12.103  0.1054 -0.3783  0.0310
 9609TIP3    H150242   6.340   5.927  12.081  0.2847 -0.5249 -0.4847
 9609TIP3    H250243   6.306   5.836  12.196  1.0579  0.0971  0.2493
 9610TIP3   OH250244   0.297   2.484   2.464  0.1324  0.2075 -0.0000
 9610TIP3    H150245   0.310   2.469   2.557 -0.7697 -0.1568  0.0836
 9610TIP3    H250246   0.362   2.429   2.420  1.3441  1.2671  0.4187
 9611TIP3   OH250247   4.987   1.073  12.354  0.4191 -0.0196 -0.5454
 9611TIP3    H150248   4.927   1.056  12.281 -0.4161  0.3641  0.0366
 9611TIP3    H250249   5.018   0.986  12.379 -2.1841 -0.6318  1.0293
 9612TIP3   OH250250   2.392   4.271  14.595  0.3560 -0.7884 -0.0684
 9612TIP3    H150251   2.481   4.278  14.560  0.2777  0.7565 -0.0658
 9612TIP3    H250252   2.403   4.271  14.690  0.3447  0.1995 -0.0518
 9613TIP3   OH250253   5.499   4.231  12.966 -0.1439 -0.6649  0.3408
 9613TIP3    H150254   5.525   4.159  12.909  1.9133 -0.3409  0.8008
 9613TIP3    H250255   5.416   4.262  12.930 -0.0784 -1.9855 -1.0218
 9614TIP3   OH250256   4.385   0.183   0.854 -0.0662  0.3044 -0.3800
 9614TIP3    H150257   4.466   0.234   0.853  0.0064  0.5221  3.5301
 9614TIP3    H250258   4.413   0.094   0.877 -0.7619 -0.2442 -1.5372
 9615TIP3   OH250259   3.035   6.004  14.379  0.0128  0.8571  0.0674
 9615TIP3    H150260   3.075   5.938  14.322 -0.9919 -0.2696  0.6152
 9615TIP3    H250261   3.110   6.045  14.424  0.6368 -2.2320  2.1828
 9616TIP3   OH250262   3.393   1.228   6.059  0.0302 -0.2405  0.5499
 9616TIP3    H150263   3.311   1.183   6.040 -0.1784  0.3317  0.0698
 9616TIP3    H250264   3.392   1.306   6.003  1.4272 -0.8259 -0.3503
 9617TIP3   OH250265   1.184   2.998   0.855  0.0572 -0.3440  0.4672
 9617TIP3    H150266   1.154   3.039   0.936  1.1773 -0.5023  0.9854
 9617TIP3    H250267   1.233   2.921   0.884 -0.2520 -0.8825 -0.4046
 9618TIP3   OH250268   2.379   3.096   5.383 -0.1530  0.1229 -0.6041
 9618TIP3    H150269   2.299   3.065   5.426 -0.0773  0.1563 -0.4355
 9618TIP3    H250270   2.390   3.037   5.308  0.2785 -0.5991  0.0132
 9619TIP3   OH250271   5.328   0.705  15.336  0.0952  0.3631  0.3459
 9619TIP3    H150272   5.258   0.639  15.336 -0.1983  0.6756  0.3679
 9619TIP3    H250273   5.406   0.655  15.360 -0.2908  0.1820  1.3149
 9620TIP3   OH250274   6.416   1.048  13.277  0.2423  0.3021 -0.4426
 9620TIP3    H150275   6.330   1.090  13.284 -0.9596 -2.0211  0.1037
 9620TIP3    H250276   6.456   1.061  13.363  1.0331  2.4432 -1.0766
 9621TIP3   OH250277   2.294   2.200   3.837  0.0194 -0.1332 -0.7665
 9621TIP3    H150278   2.306   2.273   3.776 -1.3579 -0.4953 -1.5039
 9621TIP3    H250279   2.328   2.124   3.791 -1.3324 -0.4654 -1.2388
 9622TIP3   OH250280   5.588   2.767  14.190  0.2927  0.0541  0.2204
 9622TIP3    H150281   5.554   2.756  14.279  0.3024 -1.6706  0.0460
 9622TIP3    H250282   5.613   2.679  14.163  2.9367  0.9229 -0.4760
 9623TIP3   OH250283   4.020   0.894  15.375 -0.9039 -0.3093 -0.2926
 9623TIP3    H150284   4.073   0.973  15.387  0.0070 -0.9442  0.0105
 9623TIP3    H250285   4.034   0.869  15.283  0.8464 -1.4936  0.2352
 9624TIP3   OH250286   0.357   1.935  14.432  0.6106 -0.2527  0.3079
 9624TIP3    H150287   0.360   1.883  14.352 -2.0377 -1.1553  0.7155
 9624TIP3    H250288   0.303   2.011  14.409  0.3021 -0.2329  1.0709
 9625TIP3   OH250289   3.117   1.703   4.994 -0.1921  0.2287  1.0317
 9625TIP3    H150290   3.068   1.621   4.986  0.2891 -0.0323  0.7067
 9625TIP3    H250291   3.201   1.678   5.030 -1.5617  1.1361  5.4934
 9626TIP3   OH250292   1.758   0.992   3.952  0.7665  0.1798 -0.1072
 9626TIP3    H150293   1.752   0.922   4.017  0.4271  0.0042 -0.3270
 9626TIP3    H250294   1.700   0.964   3.882  1.3602  0.2196 -0.6244
 9627TIP3   OH250295   0.985   2.001   2.064 -0.0867 -0.3431 -0.4893
 9627TIP3    H150296   0.941   1.938   2.120 -1.0316 -0.2430 -1.0912
 9627TIP3    H250297   1.054   1.951   2.021 -1.6339 -1.3393 -1.9428
 9628TIP3   OH250298   1.024   5.245  16.951  0.1398 -0.4695  0.1529
 9628TIP3    H150299   1.051   5.336  16.963 -0.3498 -0.4249  0.9901
 9628TIP3    H250300   1.000   5.239  16.859 -0.4629  0.4310  0.2408
 9629TIP3   OH250301   1.636   6.802   5.641 -0.1680 -0.0356 -0.2778
 9629TIP3    H150302   1.696   6.876   5.646  0.0296 -0.1367 -0.9466
 9629TIP3    H250303   1.573   6.817   5.710 -0.1228  0.7567 -0.3994
 9630TIP3   OH250304   3.193   0.051  16.778  0.1102 -0.0266 -0.2091
 9630TIP3    H150305   3.197  -0.003  16.857 -0.8967  1.8138  1.1687
 9630TIP3    H250306   3.138   0.125  16.802  0.4963  1.0470 -2.3864
 9631TIP3   OH250307   3.855   0.113  13.045 -0.5250 -0.2841 -0.5761
 9631TIP3    H150308   3.889   0.032  13.084 -1.0970  0.0165  0.6163
 9631TIP3    H250309   3.783   0.084  12.988 -1.3450 -0.5821  0.5608
 9632TIP3   OH250310   3.028   4.227  10.965 -0.5683 -0.0699 -0.0671
 9632TIP3    H150311   3.095   4.294  10.953  0.9225 -1.4252  0.2453
 9632TIP3    H250312   3.005   4.200  10.876 -0.6617  0.3639 -0.1758
 9633TIP3   OH250313   3.436   2.610  12.459 -0.3491  0.4891  1.2704
 9633TIP3    H150314   3.531   2.620  12.468 -0.2172  0.7639 -0.2739
 9633TIP3    H250315   3.423   2.515  12.450 -0.1488  0.5164  0.7025
 9634TIP3   OH250316   4.053   1.187  15.487  0.1209 -0.7212 -0.4107
 9634TIP3    H150317   4.056   1.282  15.496  1.2609 -0.7507 -0.4264
 9634TIP3    H250318   4.049   1.154  15.577  3.4008 -0.7425 -0.1507
 9635TIP3   OH250319   0.539   4.321  11.198 -0.3912 -0.0078  0.5493
 9635TIP3    H150320   0.456   4.369  11.193 -0.3092  0.2053  1.1511
 9635TIP3    H250321   0.600   4.375  11.149 -0.3646  0.3743  0.9940
 9636TIP3   OH250322   1.662   2.634  14.782 -0.1506  0.7206 -0.3383
 9636TIP3    H150323   1.738   2.609  14.729 -0.9411  0.5814 -1.4357
 9636TIP3    H250324   1.697   2.695  14.846  0.7998  1.0593 -1.1527
 9637TIP3   OH250325   6.269   0.782   4.898 -0.0999 -0.2083 -0.4398
 9637TIP3    H150326   6.282   0.692   4.925 -1.1377 -0.1803  0.1998
 9637TIP3    H250327   6.266   0.778   4.802  1.3788 -0.6182 -0.4887
 9638TIP3   OH250328   0.186   5.496   3.686 -0.3349  0.1353  0.2143
 9638TIP3    H150329   0.192   5.479   3.780  0.0383 -1.3238 -0.0587
 9638TIP3    H250330   0.100   5.462   3.661 -1.1926  2.0933  0.3121
 9639TIP3   OH250331   1.147   1.771   0.673  0.5027  0.2423 -0.3531
 9639TIP3    H150332   1.217   1.837   0.681  0.0459  0.5010  2.3068
 9639TIP3    H250333   1.066   1.821   0.678  0.1500 -0.4138  0.9108
 9640TIP3   OH250334   2.873   5.940  15.465 -0.3704 -0.0639 -0.4774
 9640TIP3    H150335   2.928   6.014  15.442 -0.4035  1.5841  3.8271
 9640TIP3    H250336   2.795   5.978  15.506 -1.0644 -2.4086  0.6199
 9641TIP3   OH250337   5.190   5.986   1.436  0.2191 -0.4723  1.0102
 9641TIP3    H150338   5.154   6.061   1.483 -2.9784 -0.5343 -1.0162
 9641TIP3    H250339   5.215   6.021   1.351 -0.7262 -1.5383  0.2672
 9642TIP3   OH250340   1.889   6.805  14.465 -0.3732 -0.2871 -0.7837
 9642TIP3    H150341   1.939   6.851  14.533 -1.0337 -1.6361  0.6792
 9642TIP3    H250342   1.870   6.720  14.504 -2.4459 -0.3917 -1.9277
 9643TIP3   OH250343   3.271   4.993   4.894  0.1171 -0.1433 -0.4059
 9643TIP3    H150344   3.350   5.035   4.860  0.2483  1.7233  1.8984
 9643TIP3    H250345   3.205   5.008   4.827  0.6635  2.2025 -0.5040
 9644TIP3   OH250346   5.783   6.525   4.097 -0.1818 -0.1089  0.7816
 9644TIP3    H150347   5.809   6.614   4.074 -0.6986 -0.2367 -0.3875
 9644TIP3    H250348   5.863   6.483   4.129 -0.1934  1.1259  2.5640
 9645TIP3   OH250349   2.613   0.186  15.127 -0.0604  0.2112  0.2734
 9645TIP3    H150350   2.631   0.280  15.130  0.8242  0.0696 -0.1843
 9645TIP3    H250351   2.525   0.177  15.162 -0.2866  1.2506  0.0013
 9646TIP3   OH250352   5.637   3.163   4.728 -0.5106 -0.0718 -0.1066
 9646TIP3    H150353   5.632   3.241   4.783 -0.4656 -1.2651  1.6386
 9646TIP3    H250354   5.703   3.108   4.770 -0.3811 -0.9751 -1.4336
 9647TIP3   OH250355   2.122   4.305   3.205  0.3799  0.2692  0.4751
 9647TIP3    H150356   2.035   4.304   3.246 -0.0634  0.5911 -0.4431
 9647TIP3    H250357   2.146   4.213   3.199 -0.3415  0.1116 -0.1769
 9648TIP3   OH250358   5.314   5.317   0.756  0.1204 -0.3297 -0.6336
 9648TIP3    H150359   5.295   5.387   0.819 -1.3663  0.9345 -2.3686
 9648TIP3    H250360   5.410   5.313   0.753  0.2487  1.4586 -0.2501
 9649TIP3   OH250361   3.315   1.663   4.338  0.3745 -0.2838 -0.0346
 9649TIP3    H150362   3.401   1.628   4.314  0.5344  0.7521 -1.0932
 9649TIP3    H250363   3.253   1.603   4.298  0.6064 -0.7967  0.3651
 9650TIP3   OH250364   3.380   5.826  13.943  0.3810  1.0646 -0.3816
 9650TIP3    H150365   3.425   5.755  13.988 -1.4640 -0.6680 -1.1175
 9650TIP3    H250366   3.305   5.847  13.999 -0.3894  0.7906 -1.2863
 9651TIP3   OH250367   6.227   2.572   0.661 -0.0515  0.0176  0.3433
 9651TIP3    H150368   6.197   2.494   0.615  1.6415 -0.0796 -0.6706
 9651TIP3    H250369   6.199   2.645   0.605  0.3215  0.0010  0.1296
 9652TIP3   OH250370   3.452   0.490  13.767  0.3082  0.1189 -0.2658
 9652TIP3    H150371   3.441   0.488  13.862  2.5162  1.0298  0.0866
 9652TIP3    H250372   3.390   0.557  13.737 -1.2856 -1.0455  0.3391
 9653TIP3   OH250373   4.631   5.611  14.766  0.1376  0.0007 -0.4692
 9653TIP3    H150374   4.550   5.575  14.730  0.1880  0.5577 -1.1653
 9653TIP3    H250375   4.693   5.608  14.694  0.3659  0.7395 -0.3106
 9654TIP3   OH250376   5.770   1.603   5.956 -0.0658 -0.6224 -0.0094
 9654TIP3    H150377   5.681   1.639   5.955  0.2496  0.2417 -2.0722
 9654TIP3    H250378   5.824   1.674   5.990 -0.0227 -0.8277  0.3617
 9655TIP3   OH250379   6.533   6.290   4.237 -0.4048  0.3353  0.3813
 9655TIP3    H150380   6.553   6.330   4.321  1.1873  0.0544  0.1533
 9655TIP3    H250381   6.573   6.348   4.172 -1.0780  0.2161 -0.1560
 9656TIP3   OH250382   6.150   3.903   0.261  0.4596 -0.2477 -0.0926
 9656TIP3    H150383   6.176   3.886   0.352  0.6559 -1.7675 -0.4072
 9656TIP3    H250384   6.060   3.936   0.268  0.8312  0.6688  0.7018
 9657TIP3   OH250385   5.065   2.914   3.232 -0.4701 -0.7604 -0.1967
 9657TIP3    H150386   4.970   2.904   3.232 -0.7894  1.5358  0.4966
 9657TIP3    H250387   5.084   2.969   3.156  0.3377 -1.3505 -0.4347
 9658TIP3   OH250388   6.328   2.243  14.690  0.2950 -0.0220  0.3599
 9658TIP3    H150389   6.413   2.198  14.686  0.3652  0.1955 -0.8293
 9658TIP3    H250390   6.275   2.187  14.747  1.1180 -0.3500  0.8345
 9659TIP3   OH250391   3.237   3.894   2.646  0.4712  0.0445  0.6759
 9659TIP3    H150392   3.236   3.967   2.709  1.1869  0.3445  0.3521
 9659TIP3    H250393   3.316   3.845   2.668  0.1673 -0.4433  0.6761
 9660TIP3   OH250394   1.183   5.912   0.266 -0.2918  0.5870  0.0765
 9660TIP3    H150395   1.234   5.848   0.217 -1.9892 -0.5822 -0.2318
 9660TIP3    H250396   1.246   5.949   0.329  1.3398  0.4693 -1.3959
 9661TIP3   OH250397   6.127   2.059  15.577  0.0765  0.3179  0.2431
 9661TIP3    H150398   6.070   2.122  15.535 -1.2335 -0.2863  1.0416
 9661TIP3    H250399   6.098   2.057  15.668  0.1217 -1.3551  0.2619
 9662TIP3   OH250400   2.052   2.849  15.061 -0.4098  0.1563 -0.2801
 9662TIP3    H150401   2.146   2.851  15.042 -0.7163  0.7651 -1.8360
 9662TIP3    H250402   2.047   2.867  15.155  0.9208  2.6151 -0.5850
 9663TIP3   OH250403   4.145   4.235  12.282 -0.4438 -0.2620  1.0430
 9663TIP3    H150404   4.137   4.269  12.192 -3.7605  2.9608  2.2849
 9663TIP3    H250405   4.232   4.263  12.311 -0.5546  1.6063 -0.2017
 9664TIP3   OH250406   4.108   5.624   6.110  0.1732 -0.3482 -0.2696
 9664TIP3    H150407   4.114   5.684   6.036 -0.4337  0.2082  0.1224
 9664TIP3    H250408   4.181   5.564   6.099  0.2842 -0.0597 -1.1370
 9665TIP3   OH250409   5.066   2.284   2.700 -0.0458 -0.3971 -0.3069
 9665TIP3    H150410   5.010   2.262   2.624 -3.3299 -0.1753  1.8440
 9665TIP3    H250411   5.063   2.379   2.705 -0.5899 -0.4465  0.5414
 9666TIP3   OH250412   2.366   0.275  11.756 -0.2008  0.2260  0.6983
 9666TIP3    H150413   2.391   0.185  11.775 -0.1890  0.2066  0.5961
 9666TIP3    H250414   2.338   0.311  11.840 -0.5398  0.0218  0.6765
 9667TIP3   OH250415   5.290   3.010   6.347  0.2597 -0.5326  0.4510
 9667TIP3    H150416   5.245   2.969   6.421 -1.4429 -0.8568 -0.6997
 9667TIP3    H250417   5.223   3.064   6.305  1.5351  0.6423 -0.1206
 9668TIP3   OH250418   6.747   1.886  11.715  0.4048 -0.1754  0.5445
 9668TIP3    H150419   6.657   1.855  11.716  0.6812 -1.0110 -0.1687
 9668TIP3    H250420   6.742   1.971  11.671 -0.1374  0.1427  1.1963
 9669TIP3   OH250421   2.374   5.941   3.547 -0.4021 -0.4245  0.4688
 9669TIP3    H150422   2.466   5.929   3.568 -0.1533 -2.4466 -1.3663
 9669TIP3    H250423   2.363   6.036   3.541  1.9932 -0.1412 -0.8445
 9670TIP3   OH250424   6.333   3.807   4.122 -0.0368 -0.2606  0.5280
 9670TIP3    H150425   6.357   3.717   4.097 -2.9402 -0.9522 -0.1720
 9670TIP3    H250426   6.268   3.796   4.191 -2.8568  1.0421 -1.6946
 9671TIP3   OH250427   4.619   2.181  12.756 -0.3589 -0.3546  0.4299
 9671TIP3    H150428   4.565   2.146  12.826 -0.7077 -0.8774 -0.0841
 9671TIP3    H250429   4.574   2.153  12.676 -0.2066  0.5937 -0.0005
 9672TIP3   OH250430   5.750   3.268  12.580  0.5668 -0.2869 -0.4807
 9672TIP3    H150431   5.752   3.260  12.485  0.5166  0.4719 -0.5464
 9672TIP3    H250432   5.668   3.226  12.607  1.0195 -1.3379 -0.6819
 9673TIP3   OH250433   6.218   4.762   4.055 -0.3515  0.2995 -0.0984
 9673TIP3    H150434   6.184   4.745   3.967 -0.7847  1.1354 -0.1005
 9673TIP3    H250435   6.294   4.704   4.063 -1.5968 -1.4117 -0.1808
 9674TIP3   OH250436   2.902   5.804   2.496 -0.5073 -0.8883  0.1665
 9674TIP3    H150437   2.837   5.841   2.556  0.1077 -0.4022  0.5573
 9674TIP3    H250438   2.922   5.876   2.436 -1.1422 -1.3815 -0.6625
 9675TIP3   OH250439   1.788   6.428  12.972  0.2051  0.4802  0.0337
 9675TIP3    H150440   1.754   6.480  12.899 -2.0787  0.2431  0.8363
 9675TIP3    H250441   1.832   6.491  13.029  0.0378  1.0351 -0.4423
 9676TIP3   OH250442   3.190   4.875  15.232 -0.3621 -0.2589 -0.1898
 9676TIP3    H150443   3.174   4.781  15.242  2.9373 -0.7584  2.4590
 9676TIP3    H250444   3.189   4.909  15.322  1.3632  1.5988 -0.7864
 9677TIP3   OH250445   5.041   1.875   5.108 -0.4461 -0.3299 -0.8655
 9677TIP3    H150446   5.114   1.891   5.167 -2.4247  1.5187  1.2971
 9677TIP3    H250447   5.076   1.892   5.020  1.8635 -0.2480  0.0068
 9678TIP3   OH250448   2.419   5.181  11.373 -0.4198 -0.4347 -0.6924
 9678TIP3    H150449   2.406   5.205  11.281 -3.6789  0.2493 -0.1726
 9678TIP3    H250450   2.433   5.086  11.371 -0.9656 -0.5108 -1.9034
 9679TIP3   OH250451   1.826   3.796  16.883 -0.2859  0.3515  0.3745
 9679TIP3    H150452   1.761   3.775  16.816 -1.6358  1.0787  1.3982
 9679TIP3    H250453   1.894   3.729  16.872 -1.0056 -0.2108 -0.9763
 9680TIP3   OH250454   5.054   6.359  16.085  0.5618  0.1568  0.0788
 9680TIP3    H150455   4.982   6.354  16.148  0.0709 -1.4771 -0.5393
 9680TIP3    H250456   5.042   6.282  16.030  2.7116 -0.0914 -0.1377
 9681TIP3   OH250457   0.713   4.627  15.047 -0.2730  0.0113 -0.3105
 9681TIP3    H150458   0.780   4.631  14.979 -0.8897 -0.8098 -1.0026
 9681TIP3    H250459   0.743   4.559  15.107 -0.6209 -0.6222 -0.8202
 9682TIP3   OH250460   3.014   3.844   0.112  0.0958  0.0225  0.6566
 9682TIP3    H150461   3.061   3.805   0.186  2.3939 -0.9197 -1.1649
 9682TIP3    H250462   3.083   3.878   0.055 -1.4669 -0.5672 -1.7432
 9683TIP3   OH250463   2.801   6.007  13.282 -0.3319 -0.1685  0.3565
 9683TIP3    H150464   2.755   5.970  13.357  0.4113 -0.9990  0.4223
 9683TIP3    H250465   2.893   6.009  13.308 -0.1626  0.3132 -0.2265
 9684TIP3   OH250466   5.173   5.787  16.444 -0.6805 -0.3149 -0.1062
 9684TIP3    H150467   5.088   5.830  16.439  0.4154  1.9172 -3.4012
 9684TIP3    H250468   5.235   5.860  16.454  0.9510 -1.7421  0.6333
 9685TIP3   OH250469   1.205   2.294  17.087  0.2993  1.1854 -0.6586
 9685TIP3    H150470   1.177   2.383  17.106 -2.1788  0.3243  0.1361
 9685TIP3    H250471   1.242   2.263  17.170 -3.8583 -0.1733  0.9836
 9686TIP3   OH250472   3.559   0.202  11.755  0.2713 -0.3810  0.4650
 9686TIP3    H150473   3.487   0.254  11.719  0.7802  0.6877  0.9470
 9686TIP3    H250474   3.516   0.131  11.803 -0.4351 -0.4563 -0.2595
 9687TIP3   OH250475   2.115   2.301   2.962  0.1304 -0.1757  0.0820
 9687TIP3    H150476   2.131   2.228   3.022  0.7553  0.5840  0.8742
 9687TIP3    H250477   2.020   2.314   2.965  0.1726 -0.0091  1.0983
 9688TIP3   OH250478   3.596   2.182  14.440 -0.1000 -0.5829  0.2387
 9688TIP3    H150479   3.599   2.162  14.347 -2.5099  0.7624 -0.2267
 9688TIP3    H250480   3.595   2.097  14.483  0.5442 -1.2272 -0.9751
 9689TIP3   OH250481   3.797   0.615  11.330  0.3114 -0.3309  0.6041
 9689TIP3    H150482   3.778   0.633  11.238  2.2709 -0.3933  0.1562
 9689TIP3    H250483   3.729   0.662  11.378 -1.6066 -1.4450 -0.8829
 9690TIP3   OH250484   1.174   5.295  14.195 -0.5087 -0.0898 -0.5316
 9690TIP3    H150485   1.195   5.202  14.203 -0.5266  0.0094  1.1409
 9690TIP3    H250486   1.259   5.337  14.178 -0.7770 -0.5599 -3.4689
 9691TIP3   OH250487   2.282   2.442   2.255  0.0088 -0.3845 -0.4573
 9691TIP3    H150488   2.328   2.480   2.180 -0.9177 -0.4600 -1.0922
 9691TIP3    H250489   2.198   2.413   2.219 -0.8669  0.4525  0.7989
 9692TIP3   OH250490   1.839   2.674  13.388 -0.3098  0.0022 -0.6816
 9692TIP3    H150491   1.916   2.618  13.383 -0.1279  0.3080 -1.4437
 9692TIP3    H250492   1.765   2.615  13.383 -0.1489 -0.3572  0.6822
 9693TIP3   OH250493   4.101   3.712  16.076 -0.6728  0.6178  0.1463
 9693TIP3    H150494   4.094   3.620  16.048 -1.6732  0.4647  0.8737
 9693TIP3    H250495   4.115   3.707  16.170  1.7844  1.1606 -0.1113
 9694TIP3   OH250496   4.439   5.292   4.118  0.4319 -0.0988 -0.3592
 9694TIP3    H150497   4.405   5.256   4.037 -0.1434 -0.8838  0.2132
 9694TIP3    H250498   4.364   5.289   4.179  0.9562  0.1008  0.3128
 9695TIP3   OH250499   6.530   4.249   4.067  0.8743 -0.6830  0.3513
 9695TIP3    H150500   6.529   4.292   4.153 -0.0665 -0.1638  0.0856
 9695TIP3    H250501   6.538   4.156   4.087  3.1690 -0.4401  0.9347
 9696TIP3   OH250502   1.786   1.521   1.114 -0.1585  0.5357  0.0668
 9696TIP3    H150503   1.844   1.596   1.100 -2.0423  1.7555 -1.6523
 9696TIP3    H250504   1.799   1.467   1.036  0.4982 -0.5135  0.8710
 9697TIP3   OH250505   6.488   3.838  14.574 -0.2279  0.1122 -0.2235
 9697TIP3    H150506   6.557   3.883  14.527  0.2492  0.7474  1.0306
 9697TIP3    H250507   6.510   3.851  14.666 -1.5278 -0.4477  0.1853
 9698TIP3   OH250508   0.520   6.612  13.626 -0.7932  0.6273 -0.6188
 9698TIP3    H150509   0.500   6.608  13.533  0.5802  2.5311 -1.0512
 9698TIP3    H250510   0.502   6.702  13.652 -1.5991  0.0152  1.0925
 9699TIP3   OH250511   2.017   2.092  12.411 -0.3896 -0.0691 -0.1864
 9699TIP3    H150512   2.092   2.149  12.398 -0.5269  0.3662  0.8282
 9699TIP3    H250513   1.973   2.091  12.326  0.7862 -0.3930 -0.8159
 9700TIP3   OH250514   1.118   2.053   2.827  0.8397 -0.4886  0.4005
 9700TIP3    H150515   1.095   2.047   2.920  0.0493  0.9259  0.3126
 9700TIP3    H250516   1.174   2.130   2.821  1.3150 -0.8732 -0.2265
 9701TIP3   OH250517   6.530   2.771  14.413  0.1134  0.2531 -0.0635
 9701TIP3    H150518   6.582   2.692  14.397 -0.5693  0.0028 -1.1500
 9701TIP3    H250519   6.449   2.738  14.454 -0.9430  0.1369 -2.1118
 9702TIP3   OH250520   5.333   5.260   3.585  0.2616 -0.0822  0.0614
 9702TIP3    H150521   5.402   5.276   3.521 -1.9278  1.0518 -2.1772
 9702TIP3    H250522   5.289   5.345   3.595 -0.9544 -0.8036  1.2715
 9703TIP3   OH250523   0.380   1.296  11.772  0.0935 -0.6369 -0.1641
 9703TIP3    H150524   0.407   1.385  11.794 -1.4112 -0.2625  0.3305
 9703TIP3    H250525   0.392   1.247  11.854  3.2940 -1.5693 -1.0663
 9704TIP3   OH250526   3.373   2.281  12.550  0.1894 -0.0743 -0.3767
 9704TIP3    H150527   3.348   2.219  12.619  3.2448 -0.5587  0.4681
 9704TIP3    H250528   3.391   2.226  12.474 -2.0339  0.3577 -1.2912
 9705TIP3   OH250529   4.975   5.585  15.240 -0.9480 -0.6769  0.5317
 9705TIP3    H150530   5.000   5.497  15.211  1.3691  0.2667 -0.5927
 9705TIP3    H250531   4.881   5.590  15.220 -1.1714 -2.9007  0.7294
 9706TIP3   OH250532   4.412   5.035  15.755 -0.7564  0.5602 -0.1977
 9706TIP3    H150533   4.397   5.070  15.667  0.3506  0.3812 -0.4838
 9706TIP3    H250534   4.392   4.942  15.748  1.7548 -0.0133 -0.9965
 9707TIP3   OH250535   1.609   6.412   2.613  0.6285  0.5389 -0.0768
 9707TIP3    H150536   1.520   6.436   2.586  0.5428 -0.5072 -0.7837
 9707TIP3    H250537   1.596   6.348   2.683  0.8502  1.4330  0.8088
 9708TIP3   OH250538   6.725   4.539  13.239 -0.7708  0.0491  0.5206
 9708TIP3    H150539   6.723   4.498  13.153  2.6033  3.9725 -1.7696
 9708TIP3    H250540   6.791   4.490  13.288 -1.5602 -1.2188  0.3551
 9709TIP3   OH250541   0.490   0.378  14.736 -0.0907  0.2177 -0.3489
 9709TIP3    H150542   0.554   0.391  14.666  0.4472  0.3238  0.1542
 9709TIP3    H250543   0.498   0.285  14.758 -2.8017 -0.7816 -2.8506
 9710TIP3   OH250544   2.987   5.839  16.280 -0.0746  0.0468  0.1304
 9710TIP3    H150545   3.011   5.890  16.203  1.5044 -1.5681 -0.5226
 9710TIP3    H250546   3.025   5.885  16.354 -1.4636  1.5251 -0.0178
 9711TIP3   OH250547   2.584   6.690  12.010  0.0036 -0.1512 -1.3704
 9711TIP3    H150548   2.622   6.690  12.098 -0.9678  0.5857 -0.9221
 9711TIP3    H250549   2.648   6.645  11.955  0.7201 -0.4338 -0.3234
 9712TIP3   OH250550   1.535   6.475  16.108 -0.3856  0.2681 -0.1459
 9712TIP3    H150551   1.453   6.428  16.127  0.4119 -0.7444  0.9249
 9712TIP3    H250552   1.552   6.458  16.015 -0.1950 -1.4860  0.1798
 9713TIP3   OH250553   1.395   4.101  12.889  0.4542  0.5408 -0.3864
 9713TIP3    H150554   1.324   4.151  12.849 -0.1769  1.5594  1.8171
 9713TIP3    H250555   1.474   4.133  12.846 -0.2335  0.9422 -1.4009
 9714TIP3   OH250556   4.777   0.017   3.447  0.0922  0.2528 -0.0883
 9714TIP3    H150557   4.790   0.064   3.529  2.6779  0.3241 -0.4700
 9714TIP3    H250558   4.768  -0.075   3.473 -1.3828  0.5064  0.3922
 9715TIP3   OH250559   1.581   1.754  16.487 -0.0669  0.0147  0.7101
 9715TIP3    H150560   1.489   1.777  16.475 -0.1091 -0.8241 -0.8587
 9715TIP3    H250561   1.587   1.726  16.578 -1.5800 -0.8345  0.5792
 9716TIP3   OH250562   3.309   2.246   0.403  0.1014 -0.0108  0.3963
 9716TIP3    H150563   3.359   2.311   0.452  0.9295 -1.3717  1.4222
 9716TIP3    H250564   3.375   2.197   0.354 -0.6536  0.9542 -1.7274
 9717TIP3   OH250565   5.850   2.541  12.145 -0.0745  0.6131 -0.0812
 9717TIP3    H150566   5.912   2.563  12.215 -0.1703  0.6990 -0.0233
 9717TIP3    H250567   5.777   2.500  12.190  0.7516 -1.2331 -0.3324
 9718TIP3   OH250568   0.891   4.054   0.561 -0.4671 -1.0230 -0.1083
 9718TIP3    H150569   0.903   4.041   0.467 -0.2646  0.9617 -0.3994
 9718TIP3    H250570   0.927   3.975   0.601 -0.0578 -1.6630 -1.6632
 9719TIP3   OH250571   0.065   4.504   5.801  0.0910  0.3580  0.3699
 9719TIP3    H150572  -0.022   4.466   5.789  0.0713  0.8052 -1.2555
 9719TIP3    H250573   0.052   4.599   5.793  0.6068  0.4809  0.9294
 9720TIP3   OH250574   0.762   5.662  10.977  0.6077 -0.1911 -0.0438
 9720TIP3    H150575   0.823   5.605  10.930  1.8122 -0.5741  1.8812
 9720TIP3    H250576   0.785   5.750  10.951  1.0761 -0.4101 -0.3709
 9721TIP3   OH250577   2.861   3.919   5.113  0.0650  0.3595  0.5352
 9721TIP3    H150578   2.855   3.824   5.128 -2.1586  0.4725  0.7375
 9721TIP3    H250579   2.809   3.934   5.035 -1.1203  1.6026  1.5119
 9722TIP3   OH250580   1.469   1.270  15.493 -0.4446  0.4972  0.1289
 9722TIP3    H150581   1.525   1.212  15.545 -0.0160 -0.2492 -1.1092
 9722TIP3    H250582   1.472   1.354  15.538  0.4537  0.0580  0.9234
 9723TIP3   OH250583   5.099   0.084   3.863 -0.1115  0.2205 -0.4536
 9723TIP3    H150584   5.177   0.139   3.860 -1.0115  1.4782 -1.6558
 9723TIP3    H250585   5.029   0.139   3.831 -1.8105 -0.4476  1.8229
 9724TIP3   OH250586   4.759   0.817   3.944  0.1494  0.0448 -0.3603
 9724TIP3    H150587   4.767   0.870   3.865 -0.1884  0.7269  0.0448
 9724TIP3    H250588   4.666   0.822   3.967 -0.0124 -1.2772 -0.6738
 9725TIP3   OH250589   3.882   3.741  16.666 -0.2538  0.1062 -0.0390
 9725TIP3    H150590   3.834   3.684  16.726  0.1008  0.3045  0.4469
 9725TIP3    H250591   3.890   3.824  16.714  1.3587 -0.2032  0.2898
 9726TIP3   OH250592   0.901   2.176   5.332  0.0413  0.4531 -0.1122
 9726TIP3    H150593   0.873   2.085   5.348  0.6874 -0.0926 -1.8113
 9726TIP3    H250594   0.827   2.229   5.361 -0.0784 -0.5559  1.5768
 9727TIP3   OH250595   4.922   6.060   0.474 -0.5029 -0.0678  0.0357
 9727TIP3    H150596   5.006   6.084   0.434 -0.3507 -0.4828  0.1007
 9727TIP3    H250597   4.871   6.021   0.403 -0.0641 -1.2153  0.3366
 9728TIP3   OH250598   2.467   4.705   0.844  0.3803  0.0811 -0.2737
 9728TIP3    H150599   2.439   4.623   0.885  1.5850 -0.5694 -0.7202
 9728TIP3    H250600   2.469   4.686   0.750  3.0341 -0.1773 -0.2328
 9729TIP3   OH250601   6.594   4.306   1.636 -0.3830 -0.1379  0.4328
 9729TIP3    H150602   6.623   4.334   1.723  0.4357  0.2343  0.0515
 9729TIP3    H250603   6.630   4.372   1.576 -1.6399  0.0840 -0.1215
 9730TIP3   OH250604   2.840   2.473  16.241  0.5639  0.7995 -0.6729
 9730TIP3    H150605   2.838   2.377  16.247 -0.0621  0.8390 -0.1492
 9730TIP3    H250606   2.931   2.496  16.258  0.1214  0.4963  2.8166
 9731TIP3   OH250607   5.015   6.800  12.577 -0.1065 -0.1782  0.3360
 9731TIP3    H150608   4.975   6.773  12.660 -0.4352 -1.0581 -0.0913
 9731TIP3    H250609   5.098   6.753  12.574 -0.7930 -1.3933 -0.5271
 9732TIP3   OH250610   6.715   5.643  13.550  0.0521 -0.4486 -0.0522
 9732TIP3    H150611   6.782   5.707  13.527 -1.5790  0.9576 -1.1481
 9732TIP3    H250612   6.692   5.665  13.641  0.1974 -0.1254 -0.0925
 9733TIP3   OH250613   2.511   1.557   2.819  0.2836  0.1095 -0.0709
 9733TIP3    H150614   2.605   1.568   2.832  0.2645  0.2982 -0.0861
 9733TIP3    H250615   2.485   1.634   2.769 -0.0685  0.6004  0.8515
 9734TIP3   OH250616   4.877   3.844  17.104 -0.4329 -0.1193 -0.1813
 9734TIP3    H150617   4.957   3.882  17.068  0.2489 -1.1149  0.2384
 9734TIP3    H250618   4.831   3.918  17.142  0.4493  0.4268 -0.1318
 9735TIP3   OH250619   4.038   3.571  15.699 -0.3162 -0.3207 -0.1781
 9735TIP3    H150620   4.052   3.573  15.605  0.5403 -4.3293 -0.3046
 9735TIP3    H250621   4.116   3.613  15.736  0.1294 -0.2083 -1.2198
 9736TIP3   OH250622   0.815   2.325  11.611  0.5417 -0.2157  0.2447
 9736TIP3    H150623   0.736   2.350  11.657  0.0250 -1.6553  0.1774
 9736TIP3    H250624   0.815   2.379  11.531 -0.3998 -0.2655  0.2092
 9737TIP3   OH250625   4.277   5.122   5.068  0.3855 -0.0652  0.9430
 9737TIP3    H150626   4.188   5.147   5.090  0.6472  0.0745  1.9016
 9737TIP3    H250627   4.285   5.139   4.974 -1.6965 -3.3596  0.0111
 9738TIP3   OH250628   0.659   5.936   4.120 -0.3822 -0.0889  0.4460
 9738TIP3    H150629   0.708   5.883   4.057  1.0894  0.4434  1.0828
 9738TIP3    H250630   0.651   6.022   4.078 -0.0683  0.0456  0.6535
 9739TIP3   OH250631   1.288   1.432  16.388  0.1196 -0.1284  0.1240
 9739TIP3    H150632   1.265   1.510  16.337  0.3188  0.3763  0.7967
 9739TIP3    H250633   1.221   1.427  16.456 -1.0083 -1.6381 -1.0293
 9740TIP3   OH250634   5.845   5.125   3.691 -0.4355 -0.0498 -0.1307
 9740TIP3    H150635   5.758   5.085   3.686 -0.5296  0.0670  0.5422
 9740TIP3    H250636   5.901   5.068   3.638 -0.9575 -0.0120 -0.7383
 9741TIP3   OH250637   2.396   6.238   3.618  0.5396  0.0183  0.0782
 9741TIP3    H150638   2.327   6.250   3.683  0.1146 -0.7390 -0.2223
 9741TIP3    H250639   2.477   6.260   3.665  0.1661  0.2708  0.6228
 9742TIP3   OH250640   0.421   1.989  12.290  0.4922 -0.5597 -0.1408
 9742TIP3    H150641   0.460   2.036  12.364  0.0789 -1.7045  0.8322
 9742TIP3    H250642   0.449   1.899  12.301 -1.9467 -1.3525  0.3202
 9743TIP3   OH250643   0.425   6.616   2.229 -0.8466 -0.2919  0.0455
 9743TIP3    H150644   0.409   6.710   2.219  0.8777 -0.1245 -1.5212
 9743TIP3    H250645   0.428   6.603   2.324  1.1904  1.6940  0.3307
 9744TIP3   OH250646   0.969   6.525   1.800  0.4498  0.1254 -0.6271
 9744TIP3    H150647   0.954   6.598   1.860 -2.4422 -0.9618  0.1115
 9744TIP3    H250648   1.031   6.469   1.847  0.7800  0.8890 -0.1262
 9745TIP3   OH250649   3.459   1.731  12.592 -0.0700  0.2322  0.5950
 9745TIP3    H150650   3.420   1.760  12.510  2.1831  1.4716 -0.1349
 9745TIP3    H250651   3.457   1.808  12.648 -1.3580 -0.5338  1.6632
 9746TIP3   OH250652   6.642   1.527  12.731 -0.6077  0.0461  0.2607
 9746TIP3    H150653   6.612   1.467  12.798 -0.8527 -1.4112 -1.1019
 9746TIP3    H250654   6.563   1.556  12.686 -0.5983  2.1906  1.4741
 9747TIP3   OH250655   5.567   5.034  16.688 -0.1994 -0.1504 -0.3245
 9747TIP3    H150656   5.506   5.076  16.627 -1.6249 -1.0997  0.3952
 9747TIP3    H250657   5.575   4.945  16.655  1.3711  0.1334 -0.7865
 9748TIP3   OH250658   4.064   3.705  13.514  0.0015 -0.1517  0.2015
 9748TIP3    H150659   4.077   3.799  13.521 -1.0521 -0.0899  1.7970
 9748TIP3    H250660   3.999   3.684  13.582 -0.5972 -1.8590 -0.8295
 9749TIP3   OH250661   4.287   0.968  12.507 -0.3494  0.2501 -0.4937
 9749TIP3    H150662   4.324   1.027  12.572 -0.4963  1.3977 -1.4141
 9749TIP3    H250663   4.201   0.945  12.541 -0.3047  0.6030 -0.1391
 9750TIP3   OH250664   1.169   1.692  10.038 -0.5138 -0.1736 -0.5512
 9750TIP3    H150665   1.164   1.611  10.089 -0.5421  0.6798  0.8667
 9750TIP3    H250666   1.195   1.664   9.950  0.0101 -1.6685  0.0485
 9751TIP3   OH250667   5.900   4.375   2.077 -0.3957 -0.1473  0.3984
 9751TIP3    H150668   5.883   4.315   2.149  0.6034  0.4692  1.1754
 9751TIP3    H250669   5.890   4.321   1.998 -1.3650 -0.8585  0.9846
 9752TIP3   OH250670   5.914   6.511  13.354 -0.2111 -0.0602  0.8274
 9752TIP3    H150671   5.827   6.530  13.318  0.4185 -0.7251 -1.1710
 9752TIP3    H250672   5.956   6.597  13.362  0.4157  0.0088 -2.2495
 9753TIP3   OH250673   5.279   1.667   5.466 -0.6231  0.2415 -0.1475
 9753TIP3    H150674   5.232   1.644   5.386 -2.2512  0.6973  0.6156
 9753TIP3    H250675   5.236   1.615   5.534  0.6797 -0.0857  0.4564
 9754TIP3   OH250676   2.795   1.967  11.068  0.5723  0.4104 -0.3403
 9754TIP3    H150677   2.761   1.999  10.985 -1.3313  2.4560  1.1251
 9754TIP3    H250678   2.876   2.016  11.082 -0.8303  2.6323  0.5054
 9755TIP3   OH250679   1.736   2.011   5.063  0.5718 -0.4017  0.4625
 9755TIP3    H150680   1.706   2.070   4.995  1.6952  0.7966  0.9503
 9755TIP3    H250681   1.662   2.004   5.123  0.1419 -0.1483 -0.0298
 9756TIP3   OH250682   2.519   2.732  14.663  0.0407 -0.2380 -0.4481
 9756TIP3    H150683   2.435   2.776  14.679  0.1840 -0.3235  0.5870
 9756TIP3    H250684   2.561   2.728  14.749  0.9211 -0.5850 -0.8838
 9757TIP3   OH250685   3.102   1.706  11.392  0.6291 -0.8422  0.1821
 9757TIP3    H150686   3.085   1.688  11.485  0.3587  0.6267  0.4354
 9757TIP3    H250687   3.189   1.669  11.376  1.2249  0.0022  1.3569
 9758TIP3   OH250688   3.361   5.814   2.095  0.7576  0.3537 -0.3945
 9758TIP3    H150689   3.398   5.890   2.049 -1.7010  1.8337 -0.1319
 9758TIP3    H250690   3.396   5.821   2.184  0.9550  0.8949 -0.5093
 9759TIP3   OH250691   1.630   2.863   4.360  0.0339 -0.0372  0.0663
 9759TIP3    H150692   1.687   2.792   4.388  0.6228  0.7832  1.0089
 9759TIP3    H250693   1.559   2.864   4.424  0.4242  0.6809  0.5078
 9760TIP3   OH250694   5.321   6.342  11.276  0.0015  0.1996  0.0323
 9760TIP3    H150695   5.275   6.335  11.361  0.9478 -0.4051  0.5043
 9760TIP3    H250696   5.305   6.258  11.234 -0.6016  0.5595 -0.4744
 9761TIP3   OH250697   6.547   0.173   4.457  0.2716 -0.2154  0.3071
 9761TIP3    H150698   6.578   0.221   4.380 -1.4736  0.2109 -0.1746
 9761TIP3    H250699   6.609   0.101   4.467 -0.0067 -0.8749 -2.1123
 9762TIP3   OH250700   3.202   1.160  16.309 -0.2955 -0.0108 -0.6997
 9762TIP3    H150701   3.177   1.111  16.387  1.0105  1.5978  0.8216
 9762TIP3    H250702   3.172   1.249  16.326 -0.3368  0.3049 -2.2358
 9763TIP3   OH250703   3.453   4.843   1.899  0.1947  0.3231  0.9001
 9763TIP3    H150704   3.388   4.895   1.852 -0.3407 -1.0279  0.0977
 9763TIP3    H250705   3.537   4.871   1.861 -0.1068  0.4349  0.2981
 9764TIP3   OH250706   3.025   6.586  11.890 -0.0669 -0.1650 -0.3569
 9764TIP3    H150707   3.113   6.605  11.922 -0.2806 -2.1123  1.6759
 9764TIP3    H250708   3.035   6.506  11.838 -0.5664 -0.1213 -0.5321
 9765TIP3   OH250709   5.122   2.061   0.684 -0.2993  0.4646  0.2473
 9765TIP3    H150710   5.063   2.051   0.759 -0.6323  0.3134 -0.0282
 9765TIP3    H250711   5.064   2.059   0.608 -0.0949  1.7811  0.0268
 9766TIP3   OH250712   2.741   1.691  14.452 -0.8060  0.0113  0.9345
 9766TIP3    H150713   2.818   1.673  14.506 -0.3448 -0.1611  0.2460
 9766TIP3    H250714   2.671   1.709  14.514  0.0912  1.5067  1.5673
 9767TIP3   OH250715   2.640   0.840   4.192 -0.4264 -0.2854  0.6770
 9767TIP3    H150716   2.607   0.777   4.256 -1.2351 -1.4703 -0.8368
 9767TIP3    H250717   2.653   0.788   4.112  2.4609  0.6914  0.3939
 9768TIP3   OH250718   4.939   6.022   3.168 -0.0982  0.4975  0.3232
 9768TIP3    H150719   4.987   6.105   3.163  0.1414  0.4089  1.1014
 9768TIP3    H250720   4.964   5.975   3.088 -1.3280  1.7371 -0.8450
 9769TIP3   OH250721   0.813   0.035  14.538  0.0690  0.4203  0.2231
 9769TIP3    H150722   0.825   0.038  14.443  0.2657 -0.6908  0.2031
 9769TIP3    H250723   0.902   0.039  14.573  0.3585 -2.9765  0.2120
 9770TIP3   OH250724   5.263   1.587   1.368 -0.3348 -0.2468 -0.0209
 9770TIP3    H150725   5.209   1.655   1.409 -0.4914  0.2591 -1.0431
 9770TIP3    H250726   5.305   1.543   1.442 -1.7676 -0.3468  0.7785
 9771TIP3   OH250727   6.685   0.561  13.679 -0.8218  0.0003  0.2129
 9771TIP3    H150728   6.665   0.653  13.692 -3.2617 -0.7071  2.3349
 9771TIP3    H250729   6.663   0.545  13.587 -0.1340  1.5377 -0.2552
 9772TIP3   OH250730   3.216   4.277   3.107  0.1484  0.1560  0.2477
 9772TIP3    H150731   3.161   4.354   3.120  0.1599  0.1294  0.4626
 9772TIP3    H250732   3.269   4.272   3.187  0.6515  0.3390 -0.0731
 9773TIP3   OH250733   0.169   0.384  16.617  0.3980 -0.8033 -0.6415
 9773TIP3    H150734   0.238   0.323  16.643  0.1700 -0.0536  2.0038
 9773TIP3    H250735   0.103   0.329  16.575  1.3298 -1.9609 -0.6535
 9774TIP3   OH250736   5.132   5.134  15.438 -0.0864  0.1554 -0.2779
 9774TIP3    H150737   5.138   5.039  15.434 -2.3552 -0.0315 -0.3129
 9774TIP3    H250738   5.060   5.151  15.499  1.4891  1.9289  1.2374
 9775TIP3   OH250739   4.429   2.468   5.386  0.0127 -0.2954 -0.2328
 9775TIP3    H150740   4.494   2.521   5.339  0.1492  0.0106  0.2918
 9775TIP3    H250741   4.378   2.426   5.317  0.5746 -0.3013 -0.6556
 9776TIP3   OH250742   4.266   1.381   3.662 -0.3145 -0.2307 -0.3264
 9776TIP3    H150743   4.232   1.327   3.734 -0.1393  0.0348 -0.0398
 9776TIP3    H250744   4.223   1.347   3.584 -1.2137  0.0800  0.0258
 9777TIP3   OH250745   2.291   4.510   4.508  0.2519 -0.2120  0.8735
 9777TIP3    H150746   2.383   4.484   4.501 -0.1749 -1.5416 -0.3124
 9777TIP3    H250747   2.243   4.427   4.512 -1.1273  0.3378 -1.9757
 9778TIP3   OH250748   2.294   3.424  14.588 -0.0759 -0.4324  0.0600
 9778TIP3    H150749   2.272   3.509  14.551 -1.4497  0.1018  1.9406
 9778TIP3    H250750   2.369   3.441  14.645 -0.5247 -0.4174  0.6506
 9779TIP3   OH250751   1.768   4.925   2.067  0.0508  0.9919 -0.3081
 9779TIP3    H150752   1.771   4.833   2.094 -2.9465  0.9576  0.1901
 9779TIP3    H250753   1.816   4.926   1.984 -0.0188 -1.0554 -0.4352
 9780TIP3   OH250754   3.018   0.187  14.277  0.0624 -0.6280  0.8320
 9780TIP3    H150755   3.026   0.102  14.319 -0.7317 -1.1037  0.0381
 9780TIP3    H250756   2.959   0.237  14.334 -1.9567 -1.6613 -0.2562
 9781TIP3   OH250757   1.648   6.123   4.313 -0.6614 -0.0187  0.0037
 9781TIP3    H150758   1.701   6.145   4.390 -1.4837 -1.5655  1.0857
 9781TIP3    H250759   1.625   6.207   4.274  1.3816  0.7408  0.3037
 9782TIP3   OH250760   5.175   2.572   5.525  0.7017 -0.1169  0.2169
 9782TIP3    H150761   5.253   2.599   5.574  1.1341 -2.6004  1.0550
 9782TIP3    H250762   5.108   2.560   5.592  0.4309 -0.6696 -0.1464
 9783TIP3   OH250763   1.516   2.994   3.617  0.4113 -1.0091 -0.1746
 9783TIP3    H150764   1.517   3.069   3.677 -0.2630 -1.1010 -0.0507
 9783TIP3    H250765   1.436   3.005   3.566  1.2453 -0.6370 -1.4397
 9784TIP3   OH250766   0.949   0.910  11.324 -0.1028  0.3959  0.3691
 9784TIP3    H150767   1.019   0.948  11.271  0.2033 -1.5823 -0.7034
 9784TIP3    H250768   0.869   0.933  11.278  0.1097 -0.5914 -0.5193
 9785TIP3   OH250769   5.019   1.886  11.889 -0.0843 -0.1355  0.3474
 9785TIP3    H150770   5.007   1.800  11.928 -0.3098  0.1891  1.0112
 9785TIP3    H250771   4.963   1.886  11.812 -1.4196  0.0068  1.2884
 9786TIP3   OH250772   1.046   5.384   2.951  0.2936  0.0207 -0.2046
 9786TIP3    H150773   1.043   5.454   3.017 -0.6847  0.4141 -0.6472
 9786TIP3    H250774   1.052   5.303   3.003 -0.7360  0.3032  0.4072
 9787TIP3   OH250775   5.492   1.034   0.527  0.0682  0.2465  0.0380
 9787TIP3    H150776   5.437   1.029   0.605 -0.0417  1.5570  0.0578
 9787TIP3    H250777   5.496   1.127   0.505  0.5975 -0.0341 -1.1702
 9788TIP3   OH250778   1.432   0.519  13.910 -0.0081 -0.4646 -0.5123
 9788TIP3    H150779   1.419   0.562  13.825  0.0386  0.0068 -0.2861
 9788TIP3    H250780   1.452   0.428  13.888  1.2539 -0.0834 -1.0763
 9789TIP3   OH250781   0.669   1.664  13.527  0.7162 -0.9474  0.2532
 9789TIP3    H150782   0.628   1.591  13.573  0.4852  0.2018  1.9743
 9789TIP3    H250783   0.723   1.706  13.594 -0.7820  1.6980 -0.1062
 9790TIP3   OH250784   4.902   4.964  14.769 -0.0692 -0.2972 -0.4427
 9790TIP3    H150785   4.836   4.903  14.801  0.2022 -0.7695 -0.7749
 9790TIP3    H250786   4.971   4.908  14.733  0.0885  0.2077 -0.9346
 9791TIP3   OH250787   5.475   3.914  17.105 -0.5806  0.2963 -0.2229
 9791TIP3    H150788   5.470   4.002  17.143  1.3491 -0.4786  2.0868
 9791TIP3    H250789   5.453   3.856  17.177  2.3241 -1.2423 -0.4438
 9792TIP3   OH250790   1.396   5.132   1.581  0.1473  0.7641  0.5852
 9792TIP3    H150791   1.470   5.177   1.539 -0.6168  1.0184 -0.5179
 9792TIP3    H250792   1.433   5.049   1.610  0.7953  0.7199 -0.3031
 9793TIP3   OH250793   2.211   3.529  13.726  0.2040  0.1311  0.9328
 9793TIP3    H150794   2.192   3.618  13.757  0.0133  0.4906 -0.1711
 9793TIP3    H250795   2.304   3.516  13.747 -0.1288 -0.0006  2.4577
 9794TIP3   OH250796   3.985   3.804   0.217 -0.3916  0.1426  0.4425
 9794TIP3    H150797   3.934   3.884   0.230 -0.0323  0.7247 -1.3554
 9794TIP3    H250798   3.939   3.758   0.147  1.1220  0.3392 -0.7199
 9795TIP3   OH250799   2.059   4.228   2.227 -0.1650 -0.3291  0.6353
 9795TIP3    H150800   2.021   4.314   2.246  0.0554 -0.5600  2.2969
 9795TIP3    H250801   2.012   4.198   2.149 -0.0117  1.4246 -0.1863
 9796TIP3   OH250802   2.250   1.972  14.733 -0.0814 -0.2966 -0.0827
 9796TIP3    H150803   2.162   2.008  14.741 -0.1254 -0.3315 -0.3964
 9796TIP3    H250804   2.256   1.907  14.803 -0.0419  0.2321  0.4172
 9797TIP3   OH250805   6.701   6.731  16.732  0.6440 -0.0869 -0.2476
 9797TIP3    H150806   6.711   6.824  16.712  0.0616 -0.4597 -2.5526
 9797TIP3    H250807   6.790   6.698  16.741  0.8826  0.4914 -0.4861
 9798TIP3   OH250808   0.010   5.015   2.010  0.0677  0.3993 -0.3619
 9798TIP3    H150809   0.094   5.051   1.982  0.5287  0.3251  0.8818
 9798TIP3    H250810   0.023   4.992   2.102 -1.9866  2.4734  0.5461
 9799TIP3   OH250811   4.436   1.706   0.366  0.2979 -0.1755 -0.0116
 9799TIP3    H150812   4.386   1.771   0.317 -1.3194 -1.1309  0.3110
 9799TIP3    H250813   4.399   1.709   0.454  1.8185  0.1075  0.6524
 9800TIP3   OH250814   0.464   5.660   1.516 -0.0851 -0.3164  0.3291
 9800TIP3    H150815   0.428   5.685   1.432 -0.8537 -0.3480  0.6459
 9800TIP3    H250816   0.402   5.597   1.552  1.3291 -1.9613 -0.0121
 9801TIP3   OH250817   5.705   1.183   4.155 -0.2737 -0.0492 -0.0185
 9801TIP3    H150818   5.666   1.151   4.074  2.1435 -1.7420 -0.6437
 9801TIP3    H250819   5.664   1.130   4.224 -0.1241 -0.8276 -0.5077
 9802TIP3   OH250820   6.490   5.595  12.230 -0.4156 -0.2786  0.0535
 9802TIP3    H150821   6.538   5.514  12.210 -0.6743 -0.2096 -0.9267
 9802TIP3    H250822   6.412   5.566  12.278  0.2357 -0.4582  1.0250
 9803TIP3   OH250823   0.530   6.098   5.388  0.8063 -0.4158  0.2678
 9803TIP3    H150824   0.593   6.088   5.460  0.6797 -0.0346  0.4305
 9803TIP3    H250825   0.472   6.168   5.416  0.9291 -0.0691 -0.3353
 9804TIP3   OH250826   3.342   3.238   6.500  0.1302 -0.2393  0.4778
 9804TIP3    H150827   3.283   3.217   6.572 -0.5769 -1.0968 -0.3278
 9804TIP3    H250828   3.427   3.203   6.527  0.0285  0.0316  1.1660
 9805TIP3   OH250829   4.356   4.111   5.530  0.7020 -0.1312 -0.4360
 9805TIP3    H150830   4.390   4.104   5.619 -1.5298 -0.3634  0.4662
 9805TIP3    H250831   4.293   4.183   5.535  0.3749 -0.3054 -1.7729
 9806TIP3   OH250832   4.504   5.959  14.358 -0.0551 -0.3492 -0.0553
 9806TIP3    H150833   4.572   5.922  14.415 -0.6981 -0.3562  0.7299
 9806TIP3    H250834   4.545   5.965  14.272  0.7674 -0.8471  0.2905
 9807TIP3   OH250835   2.681   3.232   4.764 -0.7641 -0.1671 -0.2863
 9807TIP3    H150836   2.692   3.160   4.826  0.1060  2.5563  3.0270
 9807TIP3    H250837   2.592   3.263   4.779 -0.7594  0.1390 -0.8836
 9808TIP3   OH250838   6.138   5.435   1.008  0.5370  0.6859  0.2007
 9808TIP3    H150839   6.231   5.457   0.999  0.1117  2.1586 -1.2746
 9808TIP3    H250840   6.102   5.451   0.920 -1.0055 -0.3857  0.6092
 9809TIP3   OH250841   4.388   2.992  11.949 -0.0943 -0.0540  0.2507
 9809TIP3    H150842   4.453   3.004  12.019 -2.9149  1.1887  2.8927
 9809TIP3    H250843   4.361   2.901  11.956 -0.4647  0.1011  0.9326
 9810TIP3   OH250844   1.304   1.469  12.261  0.0916 -0.5993  0.8125
 9810TIP3    H150845   1.338   1.515  12.185  0.1198 -0.2244  1.0443
 9810TIP3    H250846   1.381   1.432  12.304 -0.0991 -2.4567 -0.3726
 9811TIP3   OH250847   4.550   4.129   4.370 -0.0502  0.4973  0.1681
 9811TIP3    H150848   4.486   4.200   4.359 -0.7936  0.1412  1.8341
 9811TIP3    H250849   4.543   4.105   4.462  3.0499  0.9300  0.6335
 9812TIP3   OH250850   0.019   1.439   3.637 -0.2201  0.3239  0.4096
 9812TIP3    H150851  -0.037   1.409   3.709 -0.2642 -0.6822 -0.0223
 9812TIP3    H250852   0.022   1.365   3.576  1.5577  0.3357  0.4053
 9813TIP3   OH250853   4.899   1.624  13.136 -0.4582 -0.2126 -0.1387
 9813TIP3    H150854   4.904   1.600  13.043 -1.5885  0.8380 -0.5073
 9813TIP3    H250855   4.984   1.663  13.156 -0.8830  1.4356 -1.3233
 9814TIP3   OH250856   2.402   4.917  15.496  0.3391 -0.1190 -0.1194
 9814TIP3    H150857   2.307   4.923  15.509  0.3937  0.3136  0.0767
 9814TIP3    H250858   2.411   4.882  15.407 -0.0215 -1.6543  0.4173
 9815TIP3   OH250859   6.553   2.265  12.485 -0.0133  0.1891 -0.0495
 9815TIP3    H150860   6.544   2.171  12.467  0.3691  0.3643 -1.2725
 9815TIP3    H250861   6.463   2.299  12.484 -0.0130  0.3829 -3.0441
 9816TIP3   OH250862   3.532   6.009   5.030  0.0031  0.1671  0.2104
 9816TIP3    H150863   3.525   6.057   4.948 -2.0508  0.8830  0.7304
 9816TIP3    H250864   3.596   6.058   5.081  0.0503  0.6930 -0.3422
 9817TIP3   OH250865   6.466   1.952  16.029 -0.1568  0.4240 -0.2918
 9817TIP3    H150866   6.562   1.957  16.035  0.0115 -1.8620  0.0080
 9817TIP3    H250867   6.446   1.980  15.940  0.7177  1.5336 -0.1613
 9818TIP3   OH250868   0.695   5.722  13.532  0.6048 -0.0654  0.1100
 9818TIP3    H150869   0.735   5.640  13.559 -1.5228 -0.7861  1.2795
 9818TIP3    H250870   0.751   5.754  13.461  1.8103 -2.2198  0.0146
 9819TIP3   OH250871   2.060   5.827   0.386 -0.3042 -0.3534  0.1677
 9819TIP3    H150872   2.046   5.732   0.385 -0.6394 -0.3412  1.9216
 9819TIP3    H250873   2.141   5.838   0.435 -0.8401  0.3128  0.9257
 9820TIP3   OH250874   1.399   4.560  15.975 -0.4902  0.3782  0.0851
 9820TIP3    H150875   1.474   4.605  16.015 -0.5579  0.2054  0.4155
 9820TIP3    H250876   1.355   4.518  16.049 -0.4928 -0.1363 -0.2055
 9821TIP3   OH250877   5.665   5.558  13.145 -0.4492 -0.6890  0.0439
 9821TIP3    H150878   5.716   5.560  13.226  1.5482 -0.4176 -1.1527
 9821TIP3    H250879   5.706   5.489  13.093 -1.0702 -0.2000 -1.1201
 9822TIP3   OH250880   1.930   4.225   5.354 -0.2288  0.2583  0.5461
 9822TIP3    H150881   1.988   4.150   5.342 -1.0300 -0.1344 -1.0504
 9822TIP3    H250882   1.983   4.288   5.403  0.5714 -1.1927  1.6452
 9823TIP3   OH250883   1.114   2.816  15.331 -0.2188  0.1019  0.2455
 9823TIP3    H150884   1.195   2.837  15.285  0.4555 -2.4049  0.1242
 9823TIP3    H250885   1.051   2.799  15.262 -0.1620 -0.2675  0.2787
 9824TIP3   OH250886   4.914   3.340  15.395 -0.0115  0.5972  0.3735
 9824TIP3    H150887   4.936   3.411  15.335  0.4700  0.4367  0.3599
 9824TIP3    H250888   4.930   3.260  15.345 -0.1151  0.4702  0.5412
 9825TIP3   OH250889   3.291   4.787  12.470  0.2895 -0.5358 -0.7614
 9825TIP3    H150890   3.206   4.806  12.430 -0.5566 -3.0528 -0.2917
 9825TIP3    H250891   3.332   4.725  12.410  1.2627 -0.3425 -0.3162
 9826TIP3   OH250892   1.548   1.714  11.794  1.1462 -0.0553  0.1736
 9826TIP3    H150893   1.474   1.772  11.812 -2.1778 -3.4763 -1.0554
 9826TIP3    H250894   1.560   1.663  11.874  1.0344 -0.6017 -0.1485
 9827TIP3   OH250895   5.476   0.417   1.164 -0.0394 -0.0234  0.1810
 9827TIP3    H150896   5.448   0.356   1.232  0.3423 -0.4867 -0.0708
 9827TIP3    H250897   5.563   0.446   1.193  1.0562 -1.7996 -1.0966
 9828TIP3   OH250898   5.493   4.657  14.905  0.1496 -0.2747 -0.1939
 9828TIP3    H150899   5.519   4.672  14.814 -0.6946 -1.2728 -0.6228
 9828TIP3    H250900   5.430   4.726  14.924  1.6799  1.0506  0.2579
 9829TIP3   OH250901   5.496   4.403  16.152 -0.5134 -0.0873 -0.5970
 9829TIP3    H150902   5.475   4.470  16.216 -0.0518 -0.3486 -0.1596
 9829TIP3    H250903   5.475   4.320  16.196 -5.4043 -0.2835 -2.6151
 9830TIP3   OH250904   1.474   6.625  15.464  0.0890 -0.7684  0.3754
 9830TIP3    H150905   1.434   6.681  15.397  0.3643 -0.8304  0.1587
 9830TIP3    H250906   1.422   6.642  15.543  1.1459  0.9957  0.7394
 9831TIP3   OH250907   2.185   5.156  14.842 -0.1377 -0.3865 -0.3569
 9831TIP3    H150908   2.174   5.115  14.756  0.7339 -1.6039  0.0823
 9831TIP3    H250909   2.280   5.167  14.852 -0.2337 -0.1718  0.4134
 9832TIP3   OH250910   3.960   1.140   4.133  0.1039  0.3545  0.7359
 9832TIP3    H150911   3.964   1.212   4.196 -2.6086  0.1495  1.2532
 9832TIP3    H250912   3.970   1.182   4.048  0.3109  1.0864  1.1150
 9833TIP3   OH250913   1.862   5.534  11.695  0.0555 -0.0124 -0.1048
 9833TIP3    H150914   1.946   5.519  11.737 -0.6795 -2.0515  0.7781
 9833TIP3    H250915   1.874   5.503  11.605  0.5791  0.8365 -0.3307
 9834TIP3   OH250916   0.290   5.110  15.737  0.3646  1.0295 -0.2402
 9834TIP3    H150917   0.343   5.142  15.810  0.0491  0.8285  0.0769
 9834TIP3    H250918   0.352   5.060  15.683  0.2342 -0.3020  0.8052
 9835TIP3   OH250919   1.351   3.542   3.195  0.2060 -0.6752 -0.4236
 9835TIP3    H150920   1.409   3.617   3.185 -0.2118 -0.2152  0.4810
 9835TIP3    H250921   1.369   3.487   3.118 -0.2897  0.8852 -1.7109
 9836TIP3   OH250922   0.454   1.557   4.752  0.0997  0.0200 -0.6711
 9836TIP3    H150923   0.400   1.532   4.677 -0.7417 -0.3129  0.0283
 9836TIP3    H250924   0.393   1.601   4.811  0.8654  0.7538 -0.4043
 9837TIP3   OH250925   5.285   3.740   4.918 -0.1374  0.2913 -0.2278
 9837TIP3    H150926   5.329   3.666   4.961  0.0070  0.1902 -0.5528
 9837TIP3    H250927   5.197   3.741   4.957 -0.2218 -0.2001 -0.3973
 9838TIP3   OH250928   5.801   0.981   3.710 -0.0632  0.8162 -0.1399
 9838TIP3    H150929   5.788   0.898   3.664  0.8277  0.9719 -0.6995
 9838TIP3    H250930   5.895   0.983   3.729 -0.2238  1.3013  0.6361
 9839TIP3   OH250931   4.491   3.699   3.464 -0.4162  0.3773 -0.0596
 9839TIP3    H150932   4.509   3.777   3.411  1.1740 -0.1679 -0.4033
 9839TIP3    H250933   4.524   3.627   3.411  1.9724 -0.1324  1.9166
 9840TIP3   OH250934   1.475   0.256   5.515  0.2628  0.0048 -0.0765
 9840TIP3    H150935   1.421   0.193   5.561  0.2997  0.5305  0.7172
 9840TIP3    H250936   1.428   0.274   5.434 -0.0388 -0.5964 -0.0392
 9841TIP3   OH250937   2.995   6.278  12.212  0.1607  0.2640 -0.3669
 9841TIP3    H150938   3.052   6.209  12.177  0.5766  1.1252 -1.4375
 9841TIP3    H250939   2.916   6.231  12.241  1.0138 -0.8225  0.2607
 9842TIP3   OH250940   3.105   5.422   2.258 -0.4448  0.7056 -0.0366
 9842TIP3    H150941   3.031   5.441   2.200 -0.3814  0.8441 -0.0740
 9842TIP3    H250942   3.129   5.507   2.294 -1.4957  0.4180  1.4346
 9843TIP3   OH250943   2.643   5.469  14.936 -0.0212  0.0629  0.0797
 9843TIP3    H150944   2.678   5.531  14.872 -1.0883 -0.4800 -1.0903
 9843TIP3    H250945   2.676   5.383  14.908  1.2371  0.0318  1.5357
 9844TIP3   OH250946   1.034   5.301   5.877  0.4153  0.1309  0.1613
 9844TIP3    H150947   1.078   5.386   5.874  0.6530 -0.0103 -0.4044
 9844TIP3    H250948   0.977   5.307   5.954  1.9345  0.0523  1.3502
 9845TIP3   OH250949   0.235   2.648   0.601 -0.1741 -0.5894  0.8899
 9845TIP3    H150950   0.190   2.709   0.542 -0.8556 -3.1750 -1.4394
 9845TIP3    H250951   0.167   2.589   0.631  0.9579 -2.1369  0.5349
 9846TIP3   OH250952   4.256   2.291   4.945 -0.0633  0.2994 -0.2918
 9846TIP3    H150953   4.281   2.291   4.852 -0.0410  0.9991 -0.2878
 9846TIP3    H250954   4.306   2.218   4.982 -0.2052 -0.0946 -0.8632
 9847TIP3   OH250955   2.037   0.994   4.509 -0.1527 -0.3029  0.2818
 9847TIP3    H150956   2.080   1.020   4.591 -0.3893  1.5241 -0.1245
 9847TIP3    H250957   1.968   1.060   4.497  0.4288 -0.0128 -1.8078
 9848TIP3   OH250958   5.343   2.067   0.512 -0.3217  0.6145  0.0742
 9848TIP3    H150959   5.268   2.030   0.559  0.1059  1.1142  1.1938
 9848TIP3    H250960   5.311   2.083   0.423 -1.8105  1.6217  0.7472
 9849TIP3   OH250961   5.344   3.679  12.437 -0.3947 -0.4366 -0.2577
 9849TIP3    H150962   5.357   3.631  12.355 -0.9213 -1.4681  0.2398
 9849TIP3    H250963   5.254   3.710  12.432 -0.1229  0.3315 -0.4813
 9850TIP3   OH250964   5.668   0.448  11.602 -0.2776 -0.1595 -0.0363
 9850TIP3    H150965   5.649   0.542  11.605 -2.6579 -0.4723 -2.1745
 9850TIP3    H250966   5.764   0.443  11.605 -0.1234  2.1962  1.6631
 9851TIP3   OH250967   1.943   3.446  16.687  0.6977  0.1943 -0.3588
 9851TIP3    H150968   1.912   3.369  16.734  0.3917  1.1641  1.0881
 9851TIP3    H250969   1.880   3.457  16.615  0.1263 -0.2782  0.0605
 9852TIP3   OH250970   6.778   6.052  14.961 -0.0800 -0.2179 -0.1177
 9852TIP3    H150971   6.791   6.030  15.053 -1.7016  0.0945  0.2127
 9852TIP3    H250972   6.838   6.125  14.945  1.8646 -1.6859  0.0399
 9853TIP3   OH250973   3.731   0.409  16.825  0.6269  0.1851  0.7685
 9853TIP3    H150974   3.648   0.418  16.873 -0.5945  1.8509 -1.4651
 9853TIP3    H250975   3.773   0.494  16.833  0.4916  0.4342 -0.8848
 9854TIP3   OH250976   0.652   4.773   3.980 -0.6318 -0.6828  0.0103
 9854TIP3    H150977   0.652   4.792   4.074  0.0553 -0.4393 -0.0412
 9854TIP3    H250978   0.725   4.822   3.944 -1.5234  0.0793 -0.8378
 9855TIP3   OH250979   3.548   0.763   4.930 -0.2097  0.4352 -0.7176
 9855TIP3    H150980   3.510   0.849   4.947 -1.4386 -0.4753  1.5477
 9855TIP3    H250981   3.627   0.761   4.985 -0.9103 -0.3180  0.3116
 9856TIP3   OH250982   2.202   6.739  10.738  0.8065 -0.6245 -0.1000
 9856TIP3    H150983   2.266   6.668  10.748 -0.4775 -1.6128  1.8078
 9856TIP3    H250984   2.232   6.807  10.798  0.4559 -0.7975  0.2748
 9857TIP3   OH250985   0.084   6.665  16.097  0.0881 -0.5536  0.2937
 9857TIP3    H150986  -0.011   6.660  16.083  0.2901 -1.2548 -1.0040
 9857TIP3    H250987   0.099   6.617  16.178 -0.6415 -0.6999  0.3513
 9858TIP3   OH250988   4.905   5.972   1.256  1.0747 -0.6225  0.0010
 9858TIP3    H150989   4.825   5.986   1.307  1.1136  2.5785 -0.6447
 9858TIP3    H250990   4.952   5.904   1.304 -1.6784 -2.1457  0.7623
 9859TIP3   OH250991   5.584   0.905  15.530 -0.1803 -0.0817  0.0402
 9859TIP3    H150992   5.587   0.907  15.434 -0.3823  0.7462  0.0359
 9859TIP3    H250993   5.675   0.892  15.557 -0.1945 -0.8466 -0.2660
 9860TIP3   OH250994   3.870   5.953  11.254 -0.1148  0.4018 -0.1678
 9860TIP3    H150995   3.899   6.006  11.180 -1.4263  2.3921  0.6591
 9860TIP3    H250996   3.795   6.001  11.289  0.1506 -0.7612  2.1279
 9861TIP3   OH250997   5.781   1.646   3.775  0.1963  0.3527  0.4032
 9861TIP3    H150998   5.744   1.628   3.688  0.0377  0.7487  0.3883
 9861TIP3    H250999   5.858   1.699   3.757  2.3087 -2.5195  0.2207
 9862TIP3   OH251000   3.390   0.143  15.213  0.0975 -0.6428 -0.4266
 9862TIP3    H151001   3.406   0.225  15.259  0.2563 -1.4122  0.9284
 9862TIP3    H251002   3.313   0.106  15.256  0.0914 -1.2560 -0.9552
 9863TIP3   OH251003   3.793   0.122   2.984  0.1606  0.1943  0.1615
 9863TIP3    H151004   3.777   0.166   3.067  0.2242  1.3848 -0.4320
 9863TIP3    H251005   3.868   0.168   2.946 -0.4344  0.2771 -0.9551
 9864TIP3   OH251006   5.732   4.095   4.581 -0.2550 -0.3545  0.0739
 9864TIP3    H151007   5.796   4.107   4.510 -0.3823  2.6456  0.3368
 9864TIP3    H251008   5.677   4.022   4.552 -0.1996  0.6401 -2.8864
 9865TIP3   OH251009   4.371   5.983   5.548 -0.1814  0.4873 -0.1573
 9865TIP3    H151010   4.403   5.973   5.458  0.4997 -0.3438  0.1650
 9865TIP3    H251011   4.445   6.020   5.596 -0.2109 -0.0054  0.2713
 9866TIP3   OH251012   1.891   2.618   4.892 -0.4401  0.2675 -0.4165
 9866TIP3    H151013   1.929   2.686   4.946 -0.1687  0.3710 -0.7342
 9866TIP3    H251014   1.905   2.648   4.802 -0.3802 -0.1683 -0.5565
 9867TIP3   OH251015   1.484   0.080   3.609  0.2971 -0.1408  0.3885
 9867TIP3    H151016   1.461   0.085   3.702  0.4076 -0.1336  0.4155
 9867TIP3    H251017   1.572   0.117   3.604 -0.2418  1.1653  0.0820
 9868TIP3   OH251018   2.154   4.526  14.243 -0.0370  0.1951 -0.4951
 9868TIP3    H151019   2.143   4.471  14.321 -0.4967  0.7627 -0.1586
 9868TIP3    H251020   2.248   4.523  14.226 -0.1980 -1.8711 -1.3456
 9869TIP3   OH251021   3.705   6.584  12.242  0.0551  0.1789  0.4753
 9869TIP3    H151022   3.775   6.646  12.261 -0.6139  0.6014  1.6542
 9869TIP3    H251023   3.700   6.529  12.320 -0.3951 -0.3632  0.0738
 9870TIP3   OH251024   1.737   3.433   0.369  0.3772  0.2314 -0.8018
 9870TIP3    H151025   1.717   3.412   0.278 -1.2938 -1.5440 -0.1222
 9870TIP3    H251026   1.657   3.409   0.416  1.9624 -1.1123  1.4072
 9871TIP3   OH251027   5.289   5.789  14.833 -0.3461  0.2885  0.0654
 9871TIP3    H151028   5.215   5.773  14.892  0.7727 -0.0782  1.4042
 9871TIP3    H251029   5.347   5.714  14.845  1.3971  1.6794  0.8555
 9872TIP3   OH251030   2.896   0.488  13.655 -0.1868  0.2106 -0.3797
 9872TIP3    H151031   2.804   0.461  13.650 -0.8195  1.8368  1.2499
 9872TIP3    H251032   2.903   0.562  13.594  0.0684  0.0178 -0.5845
 9873TIP3   OH251033   3.265   5.279  16.593  0.0403 -0.6729 -0.2201
 9873TIP3    H151034   3.321   5.237  16.528  2.0779 -1.5908  1.9745
 9873TIP3    H251035   3.233   5.358  16.550  2.4103 -0.5167 -1.8860
 9874TIP3   OH251036   2.240   6.209  14.645  0.0269 -0.1488 -0.1151
 9874TIP3    H151037   2.304   6.138  14.633  0.3285  0.3178 -1.4506
 9874TIP3    H251038   2.294   6.285  14.664 -0.2568 -0.1323  0.6347
 9875TIP3   OH251039   0.178   5.712  12.576  0.3515  0.1180  0.3226
 9875TIP3    H151040   0.109   5.766  12.537  0.8062 -0.2630 -1.0779
 9875TIP3    H251041   0.141   5.623  12.578  0.8336 -0.1108 -0.5553
 9876TIP3   OH251042   5.063   6.125  11.759  0.3935  0.0990  0.7438
 9876TIP3    H151043   5.155   6.148  11.746  1.2530 -1.6721  3.0634
 9876TIP3    H251044   5.065   6.041  11.805 -2.4354 -0.9920 -0.8180
 9877TIP3   OH251045   1.449   0.368   4.317 -0.3857  0.1532 -0.0186
 9877TIP3    H151046   1.455   0.359   4.412 -2.4284 -0.8397  0.0663
 9877TIP3    H251047   1.364   0.408   4.301 -0.0432  0.3910 -1.4504
 9878TIP3   OH251048   2.947   0.862   2.022 -0.2312  0.1791  0.3859
 9878TIP3    H151049   2.888   0.841   1.950  0.4394 -0.7101  0.0729
 9878TIP3    H251050   2.923   0.800   2.091  2.0678 -2.1318 -0.7050
 9879TIP3   OH251051   2.627   5.644  16.667 -0.1500  0.4278  0.0938
 9879TIP3    H151052   2.561   5.714  16.661 -0.2518  0.4213  1.0125
 9879TIP3    H251053   2.693   5.679  16.726  0.3148  0.1435 -0.2567
 9880TIP3   OH251054   3.129   0.821  14.213  0.3578 -0.1717 -0.4060
 9880TIP3    H151055   3.204   0.794  14.266 -0.9700 -1.3171  0.9699
 9880TIP3    H251056   3.168   0.860  14.135  2.3851  0.3196  0.7744
 9881TIP3   OH251057   2.163   4.019  12.581  0.0948  0.1253  0.0312
 9881TIP3    H151058   2.165   3.931  12.619 -1.7524 -0.2857 -0.6997
 9881TIP3    H251059   2.164   4.077  12.657  2.5530 -0.4132  0.5160
 9882TIP3   OH251060   1.365   5.104  12.968 -0.3068  0.3408  0.5988
 9882TIP3    H151061   1.372   5.146  12.882  0.0087 -0.5934  0.1492
 9882TIP3    H251062   1.451   5.117  13.008  0.0532 -0.4968  0.1431
 9883TIP3   OH251063   3.526   3.789   3.170 -0.2859 -0.3018 -0.2134
 9883TIP3    H151064   3.517   3.780   3.075  1.4381 -2.9552 -0.2281
 9883TIP3    H251065   3.446   3.750   3.205 -1.8998  2.5041 -0.4833
 9884TIP3   OH251066   5.219   1.362  14.297 -0.1893  0.1663 -0.2657
 9884TIP3    H151067   5.250   1.277  14.265 -2.5848 -2.0475  2.5853
 9884TIP3    H251068   5.299   1.410  14.318  1.2848 -1.7859 -1.0067
 9885TIP3   OH251069   5.940   4.557  12.646 -0.1751  0.3133 -0.2770
 9885TIP3    H151070   6.031   4.567  12.619 -0.4327 -0.5847 -1.5578
 9885TIP3    H251071   5.904   4.492  12.586 -1.0827 -1.0516  1.6265
 9886TIP3   OH251072   0.199   1.833   3.839 -0.1806 -0.1256 -0.0435
 9886TIP3    H151073   0.231   1.745   3.856  0.9849  0.1947 -0.4549
 9886TIP3    H251074   0.125   1.844   3.898  0.7403 -0.7643  1.2800
 9887TIP3   OH251075   1.313   0.143  17.001  0.3361 -0.6040  0.3172
 9887TIP3    H151076   1.320   0.049  16.989 -1.3548 -0.8929  1.2874
 9887TIP3    H251077   1.346   0.158  17.090 -0.3915 -0.4433  0.5667
 9888TIP3   OH251078   5.947   2.111  14.707  0.7843  0.4979 -0.0918
 9888TIP3    H151079   5.861   2.074  14.727  0.9278  0.7292  1.0380
 9888TIP3    H251080   5.983   2.053  14.640  0.0294 -0.0048 -0.0786
 9889TIP3   OH251081   2.421   2.540   3.217 -0.2995 -0.2930 -0.4108
 9889TIP3    H151082   2.341   2.588   3.236  0.3385  0.7368 -0.2203
 9889TIP3    H251083   2.474   2.552   3.296  0.5703  0.1793 -1.0476
 9890TIP3   OH251084   4.701   0.288   4.436 -0.1359  0.3791  0.0046
 9890TIP3    H151085   4.739   0.352   4.496  0.0742 -1.0433  1.4548
 9890TIP3    H251086   4.624   0.255   4.482 -2.1745  1.8677 -2.0999
 9891TIP3   OH251087   5.380   4.047  15.483 -0.3658 -0.4472  0.1925
 9891TIP3    H151088   5.343   4.092  15.559 -0.5727 -0.8664  0.3413
 9891TIP3    H251089   5.474   4.050  15.497 -0.4409 -1.4032  0.9684
 9892TIP3   OH251090   5.695   1.603   0.114  0.1499  0.3271  0.1934
 9892TIP3    H151091   5.720   1.558   0.033  0.2490 -0.7707  0.8155
 9892TIP3    H251092   5.774   1.602   0.167 -0.0121  0.7376  0.4401
 9893TIP3   OH251093   3.267   1.041   4.836 -0.4290 -0.0774  0.5196
 9893TIP3    H151094   3.202   1.092   4.885 -0.7776 -1.0218  1.0630
 9893TIP3    H251095   3.224   0.956   4.821  0.9798 -1.0333  1.6294
 9894TIP3   OH251096   2.363   3.110   6.095  0.1734  0.4527 -0.5460
 9894TIP3    H151097   2.409   3.191   6.070 -1.8079  1.7669 -0.2014
 9894TIP3    H251098   2.350   3.064   6.012  1.3932  0.4444 -0.7422
 9895TIP3   OH251099   5.934   6.267  12.126  0.5243 -0.4464  0.6277
 9895TIP3    H151100   5.844   6.297  12.142  1.0241  1.9023 -0.4851
 9895TIP3    H251101   5.989   6.338  12.159  2.0013 -1.9158  1.4328
 9896TIP3   OH251102   4.064   1.079   1.975 -0.3757  0.0008 -0.1437
 9896TIP3    H151103   4.014   1.042   1.902 -1.0455  0.5697  0.0104
 9896TIP3    H251104   4.082   1.170   1.948 -0.0107  0.0036  0.0971
 9897TIP3   OH251105   5.904   2.522   0.043  0.8549  0.3233 -0.6872
 9897TIP3    H151106   5.843   2.449   0.043  1.9648 -0.6504  0.1299
 9897TIP3    H251107   5.851   2.598   0.022 -1.0868 -0.1248  2.1047
 9898TIP3   OH251108   1.551   5.849   4.541 -0.0937 -0.0614 -0.2159
 9898TIP3    H151109   1.532   5.883   4.629  1.8711 -1.9918  1.0747
 9898TIP3    H251110   1.638   5.885   4.520  0.4436 -1.3754 -0.3400
 9899TIP3   OH251111   3.224   6.259   1.463 -0.2965  0.6702 -0.6608
 9899TIP3    H151112   3.294   6.207   1.423 -0.0252  0.7314 -0.2731
 9899TIP3    H251113   3.158   6.269   1.394 -0.5646 -0.5845 -0.6095
 9900TIP3   OH251114   2.501   0.802   3.378 -0.1708  0.0504 -0.3699
 9900TIP3    H151115   2.435   0.762   3.434  0.3933  0.0742  0.3255
 9900TIP3    H251116   2.472   0.893   3.367  0.0736  0.2372  0.4642
 9901TIP3   OH251117   6.352   0.067   2.059 -0.6155 -0.0527 -0.7962
 9901TIP3    H151118   6.436   0.022   2.057 -0.6398 -0.1436 -0.0648
 9901TIP3    H251119   6.291   0.006   2.018 -0.5626 -0.5110 -0.2032
 9902TIP3   OH251120   2.440   3.894   2.202 -0.4069 -0.6865  0.2542
 9902TIP3    H151121   2.488   3.881   2.283  2.8159  0.6747 -1.2453
 9902TIP3    H251122   2.406   3.984   2.208  1.4221  0.1118 -0.5329
 9903TIP3   OH251123   1.610   2.457   1.317 -0.0978  0.1319 -0.3355
 9903TIP3    H151124   1.689   2.437   1.368 -0.3266 -0.5235 -0.2369
 9903TIP3    H251125   1.538   2.425   1.370 -0.3196 -0.7922 -1.1832
 9904TIP3   OH251126   1.039   0.222  17.029 -0.4517 -0.0913 -0.2123
 9904TIP3    H151127   1.042   0.313  17.061 -0.8034 -0.9561  2.5607
 9904TIP3    H251128   1.131   0.198  17.016 -0.2027  0.0373  1.1413
 9905TIP3   OH251129   4.008   2.949   2.973 -0.4004 -0.2097  0.0707
 9905TIP3    H151130   3.919   2.938   2.937  0.0242  0.4174 -1.2096
 9905TIP3    H251131   4.063   2.896   2.915  0.0579 -0.6937  0.9379
 9906TIP3   OH251132   1.867   4.011  14.220 -0.7454  0.1272  0.5084
 9906TIP3    H151133   1.921   4.037  14.146  1.3125 -0.6485  1.6727
 9906TIP3    H251134   1.824   4.092  14.248  0.6494  1.0021  0.2034
 9907TIP3   OH251135   4.213   3.789  15.772 -0.5541  0.5051  0.2842
 9907TIP3    H151136   4.224   3.844  15.849 -1.8749  0.3097  0.6462
 9907TIP3    H251137   4.211   3.850  15.698 -0.4474  0.8005  0.5278
 9908TIP3   OH251138   4.544   5.300  17.078  0.2351  0.1349 -0.6521
 9908TIP3    H151139   4.543   5.383  17.125 -0.9317 -1.3239  2.1422
 9908TIP3    H251140   4.465   5.255  17.109 -0.0754 -1.3692 -3.3764
 9909TIP3   OH251141   5.431   1.580  16.581 -0.4086 -0.3352  0.0342
 9909TIP3    H151142   5.442   1.668  16.546  0.0625  0.2532  1.5990
 9909TIP3    H251143   5.521   1.549  16.596 -0.5971 -0.4092  1.0756
 9910TIP3   OH251144   1.967   4.582  14.045  0.1914  0.1649  0.0032
 9910TIP3    H151145   2.024   4.554  13.974  0.5760  1.0350 -0.0471
 9910TIP3    H251146   2.024   4.586  14.121 -0.2525 -0.9184  0.4111
 9911TIP3   OH251147   5.330   4.445   5.443  0.1762 -0.1093 -0.1945
 9911TIP3    H151148   5.247   4.492   5.449  0.0879 -0.1073 -1.1857
 9911TIP3    H251149   5.309   4.365   5.396  0.8036  0.1011 -0.8669
 9912TIP3   OH251150   3.996   5.785  13.285  0.0281 -0.3383 -0.1039
 9912TIP3    H151151   4.090   5.798  13.268  0.1599  1.7506  1.8104
 9912TIP3    H251152   3.962   5.872  13.301 -1.8393 -1.2478  1.2256
 9913TIP3   OH251153   5.208   3.093  13.843  0.1954  0.1953  0.3768
 9913TIP3    H151154   5.164   3.017  13.883 -0.7509  0.3779 -0.2886
 9913TIP3    H251155   5.146   3.124  13.777  1.3060  0.5165 -0.5353
 9914TIP3   OH251156   4.630   1.819   4.962 -0.1629 -0.4037 -0.3278
 9914TIP3    H151157   4.574   1.852   4.892 -0.9420  0.8643  0.8465
 9914TIP3    H251158   4.708   1.786   4.917 -1.1856 -0.8127 -1.8721
 9915TIP3   OH251159   2.197   1.051  16.244  0.0355  0.7387 -0.2798
 9915TIP3    H151160   2.201   1.147  16.246 -0.2607  0.7432  0.1956
 9915TIP3    H251161   2.216   1.024  16.333  0.5391  0.3289 -0.5042
 9916TIP3   OH251162   6.757   6.033  15.601  0.5063 -0.3975 -0.0138
 9916TIP3    H151163   6.767   6.117  15.646 -2.3953 -0.3549  0.7488
 9916TIP3    H251164   6.709   6.055  15.521 -1.0952 -1.3690  0.6338
 9917TIP3   OH251165   6.084   4.650  12.281  0.1936  0.9705 -0.2784
 9917TIP3    H151166   6.090   4.567  12.234 -0.1055  1.3655 -1.0139
 9917TIP3    H251167   6.020   4.634  12.351  0.2145  0.5566 -0.3546
 9918TIP3   OH251168   4.866   0.491   1.663  0.4427  0.6524 -0.3269
 9918TIP3    H151169   4.874   0.451   1.750 -1.4351  0.3525 -0.2588
 9918TIP3    H251170   4.795   0.555   1.672  1.2707  1.7461 -1.2596
 9919TIP3   OH251171   5.159   0.414  12.039 -0.1238 -0.2028 -0.6834
 9919TIP3    H151172   5.084   0.376  12.085 -0.5642 -0.2040 -1.3842
 9919TIP3    H251173   5.235   0.390  12.092 -0.5736 -0.6023 -0.2121
 9920TIP3   OH251174   1.015   4.462   2.940 -0.2212  0.0662 -0.6814
 9920TIP3    H151175   1.006   4.538   2.997 -0.0890 -0.6748  0.3435
 9920TIP3    H251176   1.110   4.454   2.927 -0.2235 -0.0466 -0.6249
 9921TIP3   OH251177   4.211   5.110  13.647 -0.5057 -0.1491  0.0320
 9921TIP3    H151178   4.168   5.192  13.622 -1.6286 -1.1689 -1.5710
 9921TIP3    H251179   4.302   5.134  13.663 -0.7303  1.3439 -0.7998
 9922TIP3   OH251180   1.840   2.201  14.040 -0.3747 -0.4748  0.1352
 9922TIP3    H151181   1.861   2.262  14.110 -2.1594  0.2104  0.1362
 9922TIP3    H251182   1.857   2.114  14.078 -1.2782 -0.1139  1.4317
 9923TIP3   OH251183   2.694   2.754   1.833 -0.0223 -0.1408 -0.2035
 9923TIP3    H151184   2.653   2.834   1.799  2.1159  0.1327 -2.4415
 9923TIP3    H251185   2.629   2.685   1.817 -2.1973  1.1248  2.4261
 9924TIP3   OH251186   6.636   3.268  15.420 -0.4173 -0.0564 -0.1586
 9924TIP3    H151187   6.551   3.300  15.388 -0.6414 -2.5479 -2.4576
 9924TIP3    H251188   6.614   3.195  15.477  0.1808  0.4582  0.7534
 9925TIP3   OH251189   3.842   3.040   1.652  0.0583 -0.1262 -0.5062
 9925TIP3    H151190   3.811   3.106   1.714  0.3646 -1.3619  1.0121
 9925TIP3    H251191   3.897   3.089   1.591  0.3768  1.0270  0.6625
 9926TIP3   OH251192   5.702   6.331   1.330 -0.2308 -0.0687  0.2250
 9926TIP3    H151193   5.703   6.421   1.362 -0.0320 -0.2156  0.6384
 9926TIP3    H251194   5.686   6.278   1.408  3.2957 -0.6646  0.7060
 9927TIP3   OH251195   5.835   0.363   5.235 -0.3091 -0.2166 -0.4295
 9927TIP3    H151196   5.912   0.380   5.181  0.5753 -0.5382  0.7080
 9927TIP3    H251197   5.842   0.424   5.308 -1.6076  0.3610 -0.7553
 9928TIP3   OH251198   4.090   0.078  14.613  0.0801  0.4424 -0.6066
 9928TIP3    H151199   4.185   0.080  14.602  0.2157 -0.7873  0.1413
 9928TIP3    H251200   4.073  -0.002  14.662 -1.1522  1.6562  1.0908
 9929TIP3   OH251201   2.938   2.969  11.760  0.1177  0.1133  0.0309
 9929TIP3    H151202   2.856   2.949  11.805  0.0644  0.4519  0.0840
 9929TIP3    H251203   2.918   2.954  11.667 -0.1092  0.5290  0.0081
 9930TIP3   OH251204   4.633   6.606  11.078  0.1895  0.4952  0.7198
 9930TIP3    H151205   4.599   6.536  11.134  1.0755  0.7273  1.5728
 9930TIP3    H251206   4.724   6.615  11.104 -0.0289  2.3075  0.9667
 9931TIP3   OH251207   2.980   4.119  16.415  0.4437  0.4360  0.1245
 9931TIP3    H151208   3.037   4.066  16.470  0.6201 -0.0288 -0.4881
 9931TIP3    H251209   2.915   4.155  16.474 -0.4434 -1.4938  0.3637
 9932TIP3   OH251210   1.760   1.794  12.345 -0.3812  0.6860 -0.5267
 9932TIP3    H151211   1.854   1.789  12.334 -0.1123  1.5520  1.0949
 9932TIP3    H251212   1.736   1.712  12.388 -0.2029  0.8700 -0.0626
 9933TIP3   OH251213   6.618   0.287  13.175  0.8133  0.0208 -0.5035
 9933TIP3    H151214   6.619   0.303  13.080 -1.0032 -1.0613 -0.7330
 9933TIP3    H251215   6.711   0.277  13.197  1.2862  0.3105 -2.1539
 9934TIP3   OH251216   6.327   3.402  12.525 -0.2118 -0.5293 -0.0596
 9934TIP3    H151217   6.325   3.486  12.478  2.2932 -0.8215 -0.8387
 9934TIP3    H251218   6.334   3.336  12.456 -4.7314 -1.7631  0.3448
 9935TIP3   OH251219   1.259   0.757   2.889 -0.0421  0.1881  0.2965
 9935TIP3    H151220   1.331   0.804   2.847 -0.5232 -0.2895 -1.1470
 9935TIP3    H251221   1.180   0.803   2.858 -0.3796  1.0529  2.2943
 9936TIP3   OH251222   3.735   2.701  13.880 -0.1639 -0.3693 -0.7217
 9936TIP3    H151223   3.720   2.791  13.849  0.0775  0.3875  1.2250
 9936TIP3    H251224   3.816   2.706  13.930 -1.5075 -1.0259  1.6911
 9937TIP3   OH251225   2.639   3.006  15.034  0.0039 -0.3112 -0.0619
 9937TIP3    H151226   2.648   2.920  15.076 -0.3124 -0.2480  0.1434
 9937TIP3    H251227   2.557   3.041  15.070  0.4796  0.3662  0.3832
 9938TIP3   OH251228   6.251   4.844   3.101 -0.0822 -0.9096  0.2063
 9938TIP3    H151229   6.158   4.838   3.124  0.1161 -0.1705  1.3103
 9938TIP3    H251230   6.297   4.816   3.181  0.6558  2.1903  0.9940
 9939TIP3   OH251231   3.627   1.959  12.256  0.6049 -0.0641 -0.0108
 9939TIP3    H151232   3.660   1.869  12.254  0.2204 -0.1975 -0.8984
 9939TIP3    H251233   3.695   2.011  12.213  0.4371 -0.0816 -0.3087
 9940TIP3   OH251234   1.551   5.978   6.132  0.8100 -0.0029 -0.2427
 9940TIP3    H151235   1.505   5.975   6.216  1.0907 -0.8516 -0.1095
 9940TIP3    H251236   1.530   5.894   6.090 -0.2601  0.8688 -1.5381
 9941TIP3   OH251237   4.535   2.298   3.438  0.0910 -0.3113  0.2260
 9941TIP3    H151238   4.578   2.212   3.429 -1.3147 -1.0444  0.2410
 9941TIP3    H251239   4.556   2.325   3.527  3.1150  0.8533 -0.7225
 9942TIP3   OH251240   5.968   4.753  11.870  0.0936 -0.0806 -0.0724
 9942TIP3    H151241   5.961   4.833  11.818 -0.4320 -0.1630 -0.1307
 9942TIP3    H251242   5.939   4.684  11.811 -1.4197 -0.0643  0.6139
 9943TIP3   OH251243   6.588   1.468   5.634  0.0127  0.1590 -0.0066
 9943TIP3    H151244   6.670   1.488   5.679 -0.2635 -0.8710  1.0001
 9943TIP3    H251245   6.613   1.461   5.541  1.1704 -0.6219  0.3388
 9944TIP3   OH251246   0.044   6.702   2.889 -0.6426 -0.5454  0.6529
 9944TIP3    H151247   0.060   6.681   2.797 -3.0789  1.7305 -0.4348
 9944TIP3    H251248   0.128   6.737   2.920 -0.3382  0.7507 -1.4102
 9945TIP3   OH251249   4.180   0.805   0.312  0.0969  0.4312 -0.1077
 9945TIP3    H151250   4.139   0.886   0.343 -0.9450 -0.1931  0.2122
 9945TIP3    H251251   4.272   0.815   0.334 -0.0011  1.5720 -0.1612
 9946TIP3   OH251252   0.486   6.289  16.715 -0.9386  0.3532  0.0333
 9946TIP3    H151253   0.479   6.306  16.809 -1.5480  0.6111 -0.0584
 9946TIP3    H251254   0.563   6.233  16.707 -0.7443  0.5215  0.6619
 9947TIP3   OH251255   4.786   1.423   6.470  0.2070 -0.5793  0.6043
 9947TIP3    H151256   4.867   1.377   6.491 -0.1419 -0.4155  2.4490
 9947TIP3    H251257   4.740   1.364   6.410  1.1668 -1.1929  0.4514
 9948TIP3   OH251258   5.940   5.176  11.945 -0.1624 -0.1028 -0.6089
 9948TIP3    H151259   5.993   5.099  11.968 -0.2709 -0.1591 -0.5491
 9948TIP3    H251260   6.003   5.239  11.909 -0.1327 -0.3706 -1.0286
 9949TIP3   OH251261   0.993   3.285   2.217 -0.3103 -0.1963  0.2473
 9949TIP3    H151262   0.911   3.242   2.241  0.2821 -0.0983  2.6774
 9949TIP3    H251263   0.967   3.371   2.185 -1.1427  0.3659  2.2744
 9950TIP3   OH251264   2.002   6.763   4.124 -0.4892  0.0963 -0.5249
 9950TIP3    H151265   2.014   6.683   4.073  0.0433 -1.3701  1.7502
 9950TIP3    H251266   1.911   6.758   4.154 -0.1163 -0.2938  0.5822
 9951TIP3   OH251267   3.784   3.487  15.131  0.5450  0.2550 -0.0498
 9951TIP3    H151268   3.765   3.572  15.091 -0.0673  0.5079  0.7555
 9951TIP3    H251269   3.879   3.489  15.146  0.5822  0.6796 -0.3140
 9952TIP3   OH251270   5.240   6.538  12.543 -0.5096 -0.6239  0.2300
 9952TIP3    H151271   5.204   6.529  12.631 -0.0223 -1.5577  0.3572
 9952TIP3    H251272   5.332   6.563  12.557 -1.2977  2.9163 -0.1007
 9953TIP3   OH251273   0.240   6.509   4.553 -0.4099  0.6425 -0.0411
 9953TIP3    H151274   0.209   6.599   4.561 -2.0240  0.1630 -0.6017
 9953TIP3    H251275   0.330   6.512   4.587 -0.6353  2.3288  0.5090
 9954TIP3   OH251276   3.672   4.721   0.226  0.2020  0.5839  0.1777
 9954TIP3    H151277   3.688   4.650   0.163  2.1955  1.7558 -0.7637
 9954TIP3    H251278   3.720   4.694   0.305  0.5404  0.6352 -0.0069
 9955TIP3   OH251279   3.495   3.428  10.893  0.1147  0.2834  0.0288
 9955TIP3    H151280   3.471   3.518  10.875  1.4153  0.4756 -0.8839
 9955TIP3    H251281   3.495   3.385  10.807  2.5448  0.2180 -0.0022
 9956TIP3   OH251282   3.768   3.512  14.692 -0.0899  0.5207  0.1381
 9956TIP3    H151283   3.756   3.544  14.603  2.4716 -0.6761 -0.7423
 9956TIP3    H251284   3.750   3.418  14.686  0.1110  0.4318  0.8714
 9957TIP3   OH251285   6.799   2.606   2.044  0.1594 -0.0606  0.0824
 9957TIP3    H151286   6.835   2.689   2.012  0.2690 -0.0240  0.2962
 9957TIP3    H251287   6.846   2.590   2.126 -0.8200  0.3471  0.7415
 9958TIP3   OH251288   6.027   1.456  15.202  0.1973  0.1314 -0.3443
 9958TIP3    H151289   6.068   1.496  15.125 -0.3955  0.3875 -0.5355
 9958TIP3    H251290   5.949   1.510  15.218 -0.3863 -0.6946 -0.3491
 9959TIP3   OH251291   2.694   2.844   4.762  0.1485  0.8069 -0.7531
 9959TIP3    H151292   2.671   2.890   4.843 -1.2183  2.8681 -2.2373
 9959TIP3    H251293   2.616   2.849   4.708  0.9695 -0.6902 -2.1833
 9960TIP3   OH251294   1.169   2.486  12.923 -0.8083 -0.2204  0.7442
 9960TIP3    H151295   1.108   2.421  12.889 -0.3355 -0.8370  1.0730
 9960TIP3    H251296   1.236   2.495  12.856 -1.2714  0.4874  0.3651
 9961TIP3   OH251297   0.793   1.574   2.192 -0.5963  0.4560  0.1516
 9961TIP3    H151298   0.822   1.661   2.219 -0.9541  0.1847  1.5128
 9961TIP3    H251299   0.873   1.525   2.176 -0.3511  0.5979  0.9013
 9962TIP3   OH251300   4.211   5.488   3.803 -0.4472 -0.7152  0.2035
 9962TIP3    H151301   4.162   5.569   3.816 -0.3513 -0.4904 -0.8175
 9962TIP3    H251302   4.154   5.433   3.749 -0.5340 -1.3614  0.9288
 9963TIP3   OH251303   3.763   4.560   5.419  0.0606 -0.2687  0.6640
 9963TIP3    H151304   3.801   4.586   5.335 -0.4136 -3.0543 -0.5457
 9963TIP3    H251305   3.838   4.528   5.470  0.0007 -1.3323  0.1140
 9964TIP3   OH251306   2.896   5.902   0.412  0.5802 -0.1636 -0.3069
 9964TIP3    H151307   2.870   5.993   0.399 -2.5654 -0.6558  1.5963
 9964TIP3    H251308   2.931   5.900   0.501  0.8010 -0.8135 -0.4022
 9965TIP3   OH251309   0.902   3.210   3.682  0.4307  0.1573  0.1239
 9965TIP3    H151310   0.885   3.117   3.699  1.4167 -0.2172 -0.7919
 9965TIP3    H251311   0.949   3.240   3.759  0.8309 -0.3240  0.0745
 9966TIP3   OH251312   6.342   6.675  11.851  0.2527 -0.0120 -0.2695
 9966TIP3    H151313   6.396   6.753  11.855  0.2562 -0.0625  0.9441
 9966TIP3    H251314   6.397   6.611  11.805  1.1995 -0.0215  0.8109
 9967TIP3   OH251315   4.578   4.937   5.900  0.4480  0.4083 -0.2608
 9967TIP3    H151316   4.599   4.991   5.976  0.5512 -1.5317  1.1456
 9967TIP3    H251317   4.555   4.852   5.936  0.7229 -0.6489 -2.4280
 9968TIP3   OH251318   3.308   3.634   2.836  0.6291  0.5548  0.4521
 9968TIP3    H151319   3.288   3.702   2.900 -0.9309  1.7682 -1.2220
 9968TIP3    H251320   3.223   3.608   2.801  1.3349 -1.0947 -0.1234
 9969TIP3   OH251321   2.530   2.620  13.330 -1.3979  0.3307 -0.4567
 9969TIP3    H151322   2.597   2.638  13.264 -1.1606  0.1400 -0.2711
 9969TIP3    H251323   2.487   2.541  13.299 -1.0045 -0.0011 -0.1702
 9970TIP3   OH251324   6.610   5.034  14.224 -0.6072  0.1653 -1.1141
 9970TIP3    H151325   6.616   4.944  14.190 -0.3544 -0.0564 -0.5015
 9970TIP3    H251326   6.617   5.024  14.319  0.0444  0.8849 -1.0710
 9971TIP3   OH251327   6.479   2.670   0.713  0.1595 -0.0744  0.1406
 9971TIP3    H151328   6.455   2.763   0.707  0.3952  0.1468  1.9352
 9971TIP3    H251329   6.395   2.624   0.716  0.0406  0.0531 -0.7685
 9972TIP3   OH251330   6.759   0.360   5.060 -0.2380 -0.4575  0.6410
 9972TIP3    H151331   6.744   0.289   5.122  1.2326 -0.5916  0.8768
 9972TIP3    H251332   6.762   0.317   4.974 -0.4104 -0.5221  0.6661
 9973TIP3   OH251333   1.335   1.505   5.751  0.3757  0.2757  0.5207
 9973TIP3    H151334   1.412   1.501   5.695 -0.1974  1.6399 -0.4474
 9973TIP3    H251335   1.358   1.454   5.828  3.3646  2.9196  1.5913
 9974TIP3   OH251336   6.349   6.056   1.897  0.1687 -0.3744 -0.0643
 9974TIP3    H151337   6.256   6.073   1.886 -0.0853 -1.6182  0.0462
 9974TIP3    H251338   6.354   6.000   1.974  1.1262  0.7143  0.6986
 9975TIP3   OH251339   1.741   6.200   5.378  0.0329 -0.2865 -0.0686
 9975TIP3    H151340   1.798   6.275   5.391  0.4820 -0.4139 -1.1626
 9975TIP3    H251341   1.798   6.124   5.387 -0.3207 -0.4867  0.5439
 9976TIP3   OH251342   4.968   3.299   3.347  0.0058  0.1187  0.7346
 9976TIP3    H151343   5.031   3.358   3.307 -0.9514  0.8406  0.2683
 9976TIP3    H251344   5.022   3.232   3.390  1.0749  0.6227  0.2087
 9977TIP3   OH251345   5.232   5.900   1.760  1.0047 -0.2643 -0.3027
 9977TIP3    H151346   5.277   5.959   1.699  1.4487 -0.8586 -0.5654
 9977TIP3    H251347   5.286   5.902   1.839  0.9540 -0.2264 -0.2692
 9978TIP3   OH251348   0.111   5.283   4.477  0.6070 -0.2720 -0.7654
 9978TIP3    H151349   0.156   5.366   4.491 -0.4336  0.3078 -0.7602
 9978TIP3    H251350   0.021   5.307   4.458  0.1294 -1.4278 -0.1073
 9979TIP3   OH251351   5.863   1.913   5.118  0.3288 -0.6353  0.2031
 9979TIP3    H151352   5.919   1.847   5.158  1.1970  1.5949  3.0391
 9979TIP3    H251353   5.781   1.909   5.168  0.3367  0.2849  0.3114
 9980TIP3   OH251354   3.722   0.810   0.110  0.0400 -0.2676  0.4280
 9980TIP3    H151355   3.814   0.785   0.116 -0.3019 -1.3524  1.4463
 9980TIP3    H251356   3.705   0.815   0.016  0.8448 -1.1574  0.2240
 9981TIP3   OH251357   0.437   4.945  11.031 -0.2063  0.5333  0.4931
 9981TIP3    H151358   0.370   4.998  10.988 -1.9856 -0.8255  1.4544
 9981TIP3    H251359   0.429   4.859  10.989  0.6099  0.2215  0.9619
 9982TIP3   OH251360   1.650   5.134   3.903 -0.1570 -0.1990  0.1176
 9982TIP3    H151361   1.635   5.085   3.984 -1.2983 -1.0970 -0.5912
 9982TIP3    H251362   1.706   5.207   3.928 -0.7399 -0.2841  1.7758
 9983TIP3   OH251363   0.669   3.852   4.678 -0.3724  0.4026  0.4218
 9983TIP3    H151364   0.720   3.771   4.673 -0.3007  0.5122 -2.0948
 9983TIP3    H251365   0.694   3.892   4.761  2.6256 -0.2310 -0.0679
 9984TIP3   OH251366   2.328   6.433   2.944  0.4110  0.2650  0.2531
 9984TIP3    H151367   2.395   6.491   2.910  1.7191  0.2574  2.5619
 9984TIP3    H251368   2.246   6.466   2.908  1.4490  1.5531 -1.0138
 9985TIP3   OH251369   1.409   2.846  11.926  0.2922 -0.5229  0.2775
 9985TIP3    H151370   1.371   2.914  11.870  1.1536  0.5306  0.9324
 9985TIP3    H251371   1.359   2.850  12.007  0.5056 -0.4865  0.4100
 9986TIP3   OH251372   3.882   5.690   6.513  0.1672  0.3246 -0.2923
 9986TIP3    H151373   3.880   5.654   6.425 -2.0440 -0.1707 -0.0926
 9986TIP3    H251374   3.950   5.758   6.509  1.3515 -0.8716 -1.8486
 9987TIP3   OH251375   4.049   3.431   4.873 -0.2295 -0.2247  0.0509
 9987TIP3    H151376   4.034   3.435   4.778 -1.2528 -0.2937  0.1987
 9987TIP3    H251377   4.058   3.338   4.893 -1.0477 -0.2893  0.1597
 9988TIP3   OH251378   0.310   1.171   3.776  0.1636  0.2551 -0.3177
 9988TIP3    H151379   0.390   1.213   3.807  2.1852 -1.9028 -2.2182
 9988TIP3    H251380   0.320   1.168   3.681 -2.0620 -0.3822 -0.5995
 9989TIP3   OH251381   1.594   3.839  15.535 -0.2755 -0.0109  0.1930
 9989TIP3    H151382   1.559   3.928  15.523  0.7052  0.5775  1.5004
 9989TIP3    H251383   1.541   3.785  15.476 -1.1121  1.3787 -0.3926
 9990TIP3   OH251384   0.746   5.512   2.258 -0.2047 -0.1015 -0.1767
 9990TIP3    H151385   0.663   5.523   2.305 -0.5524  0.5482 -0.9203
 9990TIP3    H251386   0.769   5.419   2.270  0.6711  0.3975  2.8048
 9991TIP3   OH251387   5.062   1.644   4.417 -0.0670 -0.6007  0.0705
 9991TIP3    H151388   5.107   1.694   4.485 -1.8878  1.3368 -0.0690
 9991TIP3    H251389   5.016   1.575   4.465 -0.0567 -0.2249  0.6311
 9992TIP3   OH251390   6.495   5.428  11.503  0.7121 -0.2987  0.1537
 9992TIP3    H151391   6.563   5.495  11.504  1.5585 -1.1349  0.0068
 9992TIP3    H251392   6.427   5.463  11.445  1.5326  0.0597 -0.6116
 9993TIP3   OH251393   0.378   4.111   4.116  0.4265  0.2156  0.1483
 9993TIP3    H151394   0.355   4.203   4.105 -0.0593  0.1139  0.2770
 9993TIP3    H251395   0.306   4.063   4.075  1.1189 -0.1081 -0.7430
 9994TIP3   OH251396   4.108   4.093  13.975  0.4922 -0.6366  0.1514
 9994TIP3    H151397   4.066   4.163  13.924  0.6214 -2.2723 -2.4031
 9994TIP3    H251398   4.070   4.101  14.063 -1.8350  0.7024 -0.8671
 9995TIP3   OH251399   1.545   0.739  14.524 -0.2684 -0.6205  0.4775
 9995TIP3    H151400   1.572   0.681  14.453  0.5762 -0.7310  0.8651
 9995TIP3    H251401   1.453   0.756  14.508  0.3992  1.2285 -1.9712
 9996TIP3   OH251402   5.595   2.318  15.305 -0.2507  0.4581 -0.1695
 9996TIP3    H151403   5.623   2.251  15.243  0.1652 -0.4190  0.9294
 9996TIP3    H251404   5.562   2.269  15.381 -0.8598  1.4956  0.2642
 9997TIP3   OH251405   6.085   3.529   4.909 -0.4890  0.0896  0.1227
 9997TIP3    H151406   6.018   3.482   4.960 -1.3049 -0.1685 -1.1380
 9997TIP3    H251407   6.151   3.463   4.890 -0.6896 -0.0791 -0.0045
 9998TIP3   OH251408   4.405   0.394   5.155  0.3705  0.2535  0.1864
 9998TIP3    H151409   4.324   0.408   5.105 -0.6199 -1.0681  1.3230
 9998TIP3    H251410   4.419   0.299   5.151  2.7705  0.5947 -1.2832
 9999TIP3   OH251411   0.753   1.274   0.885 -0.4465 -0.1739  0.1673
 9999TIP3    H151412   0.660   1.284   0.906 -0.3306 -0.3674  0.8072
 9999TIP3    H251413   0.776   1.186   0.915  0.3416  0.4852  1.6505
10000TIP3   OH251414   3.624   1.783  11.356  0.1601  0.3424  0.3108
10000TIP3    H151415   3.676   1.705  11.339 -1.2680 -0.6125  0.1620
10000TIP3    H251416   3.631   1.834  11.275 -0.8336 -0.7883 -0.5094
10001TIP3   OH251417   1.594   1.169   3.176  0.6558 -0.3722 -0.5014
10001TIP3    H151418   1.564   1.080   3.155  0.4481 -0.2502 -0.7241
10001TIP3    H251419   1.683   1.157   3.208  1.0531 -0.5525 -1.6237
10002TIP3   OH251420   3.058   1.183   3.443 -0.1834  0.5088  0.5091
10002TIP3    H151421   3.088   1.106   3.394 -1.9119 -0.1947  0.4895
10002TIP3    H251422   3.022   1.242   3.377 -0.1936  0.6827  0.6666
10003TIP3   OH251423   3.732   2.059   6.115  0.0974 -0.0130  0.2880
10003TIP3    H151424   3.758   1.974   6.152  0.7155 -0.1411 -0.4339
10003TIP3    H251425   3.738   2.047   6.021 -2.3795  0.0180  0.0472
10004TIP3   OH251426   1.492   6.378  11.225 -0.0233  0.5816 -0.4606
10004TIP3    H151427   1.428   6.327  11.274 -1.7296  1.3082 -1.8074
10004TIP3    H251428   1.482   6.347  11.135  0.4343  1.7759 -0.9346
10005TIP3   OH251429   1.051   4.455  16.034 -0.0759 -0.4025  0.2765
10005TIP3    H151430   1.118   4.459  16.102 -0.8498  1.3292  0.9925
10005TIP3    H251431   0.995   4.382  16.059  0.5996 -0.8216  0.5703
10006TIP3   OH251432   6.150   1.998  11.205 -0.6862 -0.2116  0.6131
10006TIP3    H151433   6.112   2.041  11.282 -2.8259 -0.0801 -0.4297
10006TIP3    H251434   6.160   2.069  11.141 -1.3465 -0.7213 -0.0716
10007TIP3   OH251435   2.162   1.722  12.781  0.4935 -0.3246 -0.0133
10007TIP3    H151436   2.171   1.791  12.847  2.9881  0.2131 -0.8041
10007TIP3    H251437   2.127   1.768  12.704 -1.6958 -0.8051  0.6323
10008TIP3   OH251438   6.402   6.772  14.555  0.2538  0.4004  0.0201
10008TIP3    H151439   6.371   6.806  14.471 -0.9754  0.6437  0.5576
10008TIP3    H251440   6.431   6.683  14.536 -1.1109  0.0340 -0.4583
10009TIP3   OH251441   5.718   2.237   1.880  0.3894  0.2243  0.0711
10009TIP3    H151442   5.711   2.242   1.785 -1.2274 -2.9876 -0.1224
10009TIP3    H251443   5.803   2.197   1.896 -0.3545 -1.5909 -0.2536
10010TIP3   OH251444   2.340   1.791  10.806  0.1609  0.4705  0.2081
10010TIP3    H151445   2.389   1.773  10.727  0.2403 -0.2509  0.4142
10010TIP3    H251446   2.311   1.705  10.837  0.9815  0.6324  1.5073
10011TIP3   OH251447   6.519   5.031  12.089 -0.4260 -0.0886  0.6815
10011TIP3    H151448   6.512   4.993  12.177 -0.0688 -0.7619  0.4276
10011TIP3    H251449   6.532   4.956  12.031  0.6307  0.4360  0.2030
10012TIP3   OH251450   1.078   6.012  12.610 -0.1322 -0.6124  0.1025
10012TIP3    H151451   1.126   6.094  12.621  0.4169 -0.5953 -2.1220
10012TIP3    H251452   1.007   6.033  12.549  0.4838 -1.9475 -1.1138
10013TIP3   OH251453   2.994   2.997  16.198 -0.0807 -0.1246 -0.0863
10013TIP3    H151454   3.081   2.957  16.208  0.3950  0.9688  0.3165
10013TIP3    H251455   3.009   3.076  16.146 -0.8991 -0.1104 -0.3217
10014TIP3   OH251456   0.669   5.766  16.025  0.5838 -0.2783  0.4511
10014TIP3    H151457   0.740   5.728  15.975  0.5668 -0.9359  0.9195
10014TIP3    H251458   0.685   5.860  16.022  0.8848 -0.3464 -0.3213
10015TIP3   OH251459   6.529   2.633  11.320 -0.2651  0.0824  0.6617
10015TIP3    H151460   6.611   2.681  11.329  0.9104 -1.7201 -0.0933
10015TIP3    H251461   6.512   2.597  11.407 -1.2130  1.8596  1.2625
10016TIP3   OH251462   4.121   0.821  15.127  0.1980  0.4916  0.2008
10016TIP3    H151463   4.075   0.752  15.080  0.4809  0.0624  0.5400
10016TIP3    H251464   4.145   0.885  15.060  0.1823  0.1192 -0.1609
10017TIP3   OH251465   0.521   6.056   2.060  0.1340  0.6857  0.9835
10017TIP3    H151466   0.503   5.966   2.034  1.0080  0.4030  1.3349
10017TIP3    H251467   0.453   6.108   2.016  0.8741  0.1111 -0.9540
10018TIP3   OH251468   4.596   0.674   1.690 -0.2082 -0.1314  0.1743
10018TIP3    H151469   4.607   0.741   1.757  1.0753  0.0301 -0.1776
10018TIP3    H251470   4.510   0.691   1.652 -0.6465  0.2085  1.2932
10019TIP3   OH251471   1.362   2.766  16.323 -0.3798  0.2798 -0.4252
10019TIP3    H151472   1.356   2.747  16.416 -1.1197  0.4079 -0.4456
10019TIP3    H251473   1.367   2.862  16.318 -0.5910  0.2861 -0.5291
10020TIP3   OH251474   6.278   0.532  12.813 -0.1318 -0.0546  0.6796
10020TIP3    H151475   6.309   0.454  12.768 -0.3676 -0.6443  1.5128
10020TIP3    H251476   6.306   0.605  12.757 -1.5452 -0.7817 -1.0733
10021TIP3   OH251477   0.505   2.184   1.915 -0.6511  0.2849  0.1103
10021TIP3    H151478   0.573   2.229   1.967 -0.3452  0.2807 -0.2824
10021TIP3    H251479   0.505   2.230   1.831  1.9538 -2.4330 -1.5480
10022TIP3   OH251480   5.829   0.732  15.956  0.1368  0.1863 -0.4942
10022TIP3    H151481   5.749   0.768  15.918 -0.0826  0.0168 -0.1931
10022TIP3    H251482   5.811   0.639  15.967 -0.3391  0.4600  1.3486
10023TIP3   OH251483   6.623   1.539   1.236  0.2701  0.2024  0.2485
10023TIP3    H151484   6.598   1.464   1.182  0.9232 -0.6508  1.1113
10023TIP3    H251485   6.718   1.543   1.230  0.1586  2.0550 -1.1867
10024TIP3   OH251486   3.068   1.603   4.010  0.1308 -0.1152 -0.4822
10024TIP3    H151487   3.030   1.681   4.049  1.0166  0.6772 -1.1413
10024TIP3    H251488   3.156   1.630   3.982 -0.4906 -0.5373 -3.1546
10025TIP3   OH251489   1.873   0.170  16.275  0.1945 -0.6532 -0.3372
10025TIP3    H151490   1.900   0.088  16.234  0.8719 -0.4355 -0.3411
10025TIP3    H251491   1.949   0.227  16.266 -0.3226  0.0303 -0.4785
10026TIP3   OH251492   6.501   1.783   4.396  0.3258 -0.2313 -0.1560
10026TIP3    H151493   6.469   1.730   4.323  1.4760 -1.3231  0.1075
10026TIP3    H251494   6.562   1.845   4.356  0.9561 -0.8290 -0.1296
10027TIP3   OH251495   6.291   0.430  13.552  0.0450 -0.3930  0.1096
10027TIP3    H151496   6.264   0.453  13.463  0.8926 -1.4757 -0.4443
10027TIP3    H251497   6.209   0.429  13.602 -0.4493  0.1618 -0.6680
10028TIP3   OH251498   1.731   1.741   3.444  0.0668  0.2376  0.4722
10028TIP3    H151499   1.720   1.715   3.535 -0.4438 -1.3790 -0.0135
10028TIP3    H251500   1.777   1.667   3.404 -0.1569  0.7118 -0.6920
10029TIP3   OH251501   5.379   1.425  16.040  0.5088 -0.1101  0.0486
10029TIP3    H151502   5.449   1.453  16.099 -0.4154  0.1835  1.0436
10029TIP3    H251503   5.336   1.353  16.087 -0.2142  0.1023 -0.2792
10030TIP3   OH251504   6.232   1.733   0.656 -0.2462  0.2821 -0.3355
10030TIP3    H151505   6.275   1.790   0.593 -0.8192  0.7355 -0.3288
10030TIP3    H251506   6.288   1.735   0.733 -0.0797  0.5599 -0.4626
10031TIP3   OH251507   1.344   3.159  12.633 -0.6612 -0.6209 -0.5090
10031TIP3    H151508   1.426   3.191  12.596 -2.0201  1.8292 -1.6760
10031TIP3    H251509   1.365   3.142  12.725  1.1598 -0.1319 -0.7827
10032TIP3   OH251510   0.397   0.988  16.096  0.2888  0.0892  0.5978
10032TIP3    H151511   0.404   0.900  16.134  0.2029 -1.0529 -1.8659
10032TIP3    H251512   0.488   1.014  16.079  0.2494 -0.9337 -1.5458
10033TIP3   OH251513   3.591   2.190  13.168 -0.7391  0.1620 -0.3714
10033TIP3    H151514   3.540   2.268  13.191 -1.6102 -0.0591 -1.4959
10033TIP3    H251515   3.525   2.124  13.146 -0.0068 -0.8372  0.3488
10034TIP3   OH251516   1.065   6.362  12.240  0.0812 -0.0452  0.4773
10034TIP3    H151517   1.069   6.426  12.311 -0.4861  0.6256 -0.0811
10034TIP3    H251518   1.154   6.326  12.236  1.1776  2.5512 -0.8493
10035TIP3   OH251519   5.860   3.485  11.575  0.1302  0.3270  0.5228
10035TIP3    H151520   5.827   3.453  11.659  0.7243  0.3080  0.7522
10035TIP3    H251521   5.913   3.561  11.597  1.3385 -0.4246  0.3081
10036TIP3   OH251522   5.979   1.868  13.966  0.1637  0.1931 -0.0291
10036TIP3    H151523   5.898   1.857  14.016 -0.6245 -0.0844 -1.3377
10036TIP3    H251524   5.951   1.887  13.877  1.5416 -0.6059 -0.6725
10037TIP3   OH251525   5.245   2.653  14.274 -0.2318  0.2246 -0.2140
10037TIP3    H151526   5.215   2.656  14.183  0.1439 -1.5610 -0.4194
10037TIP3    H251527   5.227   2.564  14.303  1.3068  0.2325  0.8840
10038TIP3   OH251528   1.842   3.811  11.283 -0.1739 -0.0135 -0.0644
10038TIP3    H151529   1.816   3.765  11.363 -0.5527  0.4506  0.0811
10038TIP3    H251530   1.786   3.889  11.280  1.4205  1.2065  0.4356
10039TIP3   OH251531   3.856   3.764  12.339 -0.0378  0.4355 -0.6216
10039TIP3    H151532   3.805   3.819  12.280  0.3007  1.6872  0.2174
10039TIP3    H251533   3.846   3.804  12.425  1.3584  0.0157 -0.2266
10040TIP3   OH251534   6.167   5.440   3.235  0.2199 -0.3398  0.2123
10040TIP3    H151535   6.098   5.437   3.301  0.8327 -0.7416  0.8476
10040TIP3    H251536   6.249   5.448   3.285  0.8821 -2.6587 -0.3531
10041TIP3   OH251537   1.574   5.336  10.933 -0.2137 -0.7413  0.1049
10041TIP3    H151538   1.539   5.424  10.923  0.6537 -0.4902 -0.9030
10041TIP3    H251539   1.617   5.337  11.019 -0.6946 -0.3559  0.3413
10042TIP3   OH251540   4.410   3.916   5.156 -0.5392  0.0208  0.6100
10042TIP3    H151541   4.338   3.970   5.122 -0.4802 -0.0533  0.3632
10042TIP3    H251542   4.367   3.851   5.212 -0.5725  0.5716  1.2302
10043TIP3   OH251543   6.462   5.067   5.535 -0.1618 -0.2322  0.5158
10043TIP3    H151544   6.471   5.044   5.442 -2.7026  0.8547 -0.0807
10043TIP3    H251545   6.528   5.135   5.549  0.1382 -0.2809 -0.5558
10044TIP3   OH251546   6.442   3.336   2.520 -0.2834 -0.1301 -0.1709
10044TIP3    H151547   6.435   3.283   2.600  1.6164  2.4325  1.8880
10044TIP3    H251548   6.535   3.332   2.497 -0.3989  0.9952 -0.8919
10045TIP3   OH251549   6.794   5.634   2.540 -0.5537  0.0046 -0.0191
10045TIP3    H151550   6.704   5.661   2.555 -0.8759 -0.8575 -0.3363
10045TIP3    H251551   6.843   5.671   2.613 -1.3641 -0.5030  0.8022
10046TIP3   OH251552   5.339   2.323  12.863  0.9609 -0.1352 -0.5665
10046TIP3    H151553   5.247   2.310  12.883  1.2362 -0.4708  0.5786
10046TIP3    H251554   5.381   2.241  12.889  1.7513  0.4843  0.1781
10047TIP3   OH251555   6.040   0.951   0.949 -0.3750 -0.2343  0.5687
10047TIP3    H151556   6.023   0.860   0.926 -1.3086 -0.1771  0.9687
10047TIP3    H251557   5.999   0.962   1.035 -3.1268  1.3868 -0.8313
10048TIP3   OH251558   5.908   4.772   3.145  0.4773 -0.0819 -0.0806
10048TIP3    H151559   5.917   4.746   3.237  0.8861 -1.0663 -0.3789
10048TIP3    H251560   5.856   4.852   3.147 -0.8468 -0.9260  0.9097
10049TIP3   OH251561   1.184   5.299  15.005  0.1571 -0.4383  0.2712
10049TIP3    H151562   1.216   5.384  14.975 -0.0236 -0.2656  0.5678
10049TIP3    H251563   1.089   5.309  15.010  0.2153 -0.3304  1.3190
10050TIP3   OH251564   1.830   2.315   2.938  0.0506  0.3836 -0.2260
10050TIP3    H151565   1.783   2.232   2.942 -0.9654  0.9548 -0.1305
10050TIP3    H251566   1.828   2.339   2.846 -1.4235  1.2778  0.0085
10051TIP3   OH251567   4.154   5.718   0.495 -0.2128 -0.1409 -0.1195
10051TIP3    H151568   4.095   5.780   0.452  1.8231  1.3342 -0.8920
10051TIP3    H251569   4.104   5.687   0.571 -1.2420  2.6342  0.4464
10052TIP3   OH251570   4.935   0.749  14.874 -0.1749 -0.0099  0.1188
10052TIP3    H151571   4.885   0.761  14.955 -1.6380 -0.5236 -0.6822
10052TIP3    H251572   4.914   0.826  14.821  0.0554 -0.1261 -0.1400
10053TIP3   OH251573   0.023   3.587   5.615  0.3349  0.4965 -0.3090
10053TIP3    H151574  -0.057   3.634   5.591 -0.0685  0.0941  0.2127
10053TIP3    H251575   0.089   3.618   5.553  0.2232  2.1454  0.3561
10054TIP3   OH251576   5.398   3.278  13.625  0.7155  0.0224 -0.2332
10054TIP3    H151577   5.464   3.248  13.564  0.2697 -0.1101 -0.6585
10054TIP3    H251578   5.317   3.282  13.574 -0.0810 -1.8891  0.7677
10055TIP3   OH251579   4.238   0.416  11.761 -0.1401  0.3097  0.4188
10055TIP3    H151580   4.177   0.348  11.791  1.1250 -1.2670 -0.4325
10055TIP3    H251581   4.260   0.390  11.672  0.2627  1.9627  0.0053
10056TIP3   OH251582   6.726   1.152  14.671 -0.0587  0.3177  0.4735
10056TIP3    H151583   6.671   1.102  14.610  1.6852 -0.3212 -0.6492
10056TIP3    H251584   6.691   1.241  14.668 -0.5407  0.1030 -0.8216
10057TIP3   OH251585   5.619   0.112  11.737  0.3866  0.0941 -0.0913
10057TIP3    H151586   5.585   0.199  11.754 -2.7801 -0.9771 -0.3932
10057TIP3    H251587   5.652   0.083  11.822  1.4361  1.5064  0.0208
10058TIP3   OH251588   0.466   6.172   0.619 -0.5540  0.0082 -0.1563
10058TIP3    H151589   0.422   6.251   0.588  1.8760  1.1806 -0.8702
10058TIP3    H251590   0.526   6.149   0.548 -1.8553 -3.1361 -0.4255
10059TIP3   OH251591   3.032   4.350   6.203  0.0139  0.1353  0.1525
10059TIP3    H151592   2.947   4.363   6.245  0.4266  1.3195  0.6646
10059TIP3    H251593   3.064   4.267   6.238  0.0196  0.7457  1.6451
10060TIP3   OH251594   6.530   5.691  15.290 -0.3094  0.8543  0.5315
10060TIP3    H151595   6.619   5.723  15.279 -0.1236  0.3256  0.5041
10060TIP3    H251596   6.528   5.607  15.244 -1.0094  1.1784 -0.0431
10061TIP3   OH251597   6.803   6.003   0.492  0.3910  0.6625 -0.0997
10061TIP3    H151598   6.797   5.911   0.520  1.3007  0.6452  0.0488
10061TIP3    H251599   6.846   6.048   0.564 -1.3012  1.5069  0.4525
10062TIP3   OH251600   0.655   1.910  15.500 -0.2492  0.2145  0.8294
10062TIP3    H151601   0.572   1.888  15.457 -0.1608  0.5596  0.4744
10062TIP3    H251602   0.712   1.836  15.483  0.2917  0.9835 -0.9958
10063TIP3   OH251603   1.897   5.486   4.544  0.5048  0.3678  1.0339
10063TIP3    H151604   1.806   5.488   4.574  0.0983  0.3792 -0.1149
10063TIP3    H251605   1.944   5.542   4.605 -0.8402  2.9407 -0.1233
10064TIP3   OH251606   3.683   0.159  11.474 -0.0460 -0.3480  0.4342
10064TIP3    H151607   3.760   0.163  11.531 -0.6404  0.4324  1.2047
10064TIP3    H251608   3.625   0.095  11.516  0.7208 -1.9677 -0.8654
10065TIP3   OH251609   1.154   2.601   0.106  0.0064 -0.3166  0.2675
10065TIP3    H151610   1.134   2.627   0.196  2.3122  0.6914  0.5442
10065TIP3    H251611   1.171   2.683   0.060 -1.0763 -0.8246 -1.1202
10066TIP3   OH251612   2.053   0.369  15.300  0.3714 -0.1693 -0.4222
10066TIP3    H151613   2.067   0.462  15.283 -1.0700  0.0560 -0.5180
10066TIP3    H251614   1.990   0.341  15.233  0.5916 -1.1496 -0.2377
10067TIP3   OH251615   0.854   6.807  12.735  0.1872  0.5095 -0.9634
10067TIP3    H151616   0.815   6.797  12.648 -1.4920 -2.4875 -0.0089
10067TIP3    H251617   0.911   6.731  12.745 -0.8881 -0.1056  1.0886
10068TIP3   OH251618   0.716   1.920  16.609 -0.3664  0.4712 -0.2034
10068TIP3    H151619   0.796   1.965  16.637  0.0155 -0.4739  0.2974
10068TIP3    H251620   0.646   1.960  16.661  0.0674  0.0324  0.7488
10069TIP3   OH251621   5.820   5.213   3.977 -0.3198 -0.2322  0.2754
10069TIP3    H151622   5.809   5.221   3.882  0.3635 -1.2910  0.0767
10069TIP3    H251623   5.852   5.123   3.989  1.3246  0.4440  1.3372
10070TIP3   OH251624   5.011   6.669   0.835  0.0156  0.1730 -0.0319
10070TIP3    H151625   4.996   6.658   0.741 -0.7242  0.7677  0.0096
10070TIP3    H251626   5.100   6.637   0.849 -0.1523 -0.6649 -0.7996
10071TIP3   OH251627   1.826   0.356  16.793 -0.6472 -0.0026  0.0337
10071TIP3    H151628   1.791   0.438  16.758  1.1706 -0.0372 -2.0800
10071TIP3    H251629   1.871   0.316  16.718 -0.8882 -2.6018  1.1957
10072TIP3   OH251630   5.803   3.296   6.283 -0.0958 -0.4531 -0.0755
10072TIP3    H151631   5.732   3.315   6.344  0.1575  1.0636 -0.2134
10072TIP3    H251632   5.853   3.227   6.325 -0.7780 -0.4689  0.7329
10073TIP3   OH251633   1.995   5.274   0.466 -0.1348  0.1306  0.0102
10073TIP3    H151634   1.926   5.307   0.523  0.3526  0.6022  0.3267
10073TIP3    H251635   2.068   5.255   0.524 -0.7913 -2.7188  0.0451
10074TIP3   OH251636   2.485   2.840  13.488  0.0912 -0.4333  0.1878
10074TIP3    H151637   2.476   2.751  13.454 -2.7286 -0.6925  1.3444
10074TIP3    H251638   2.463   2.897  13.414  0.7496 -0.7327 -0.2401
10075TIP3   OH251639   6.432   2.732   3.420  0.1341  0.3458 -0.2091
10075TIP3    H151640   6.370   2.752   3.350 -0.4921  0.6322  0.4099
10075TIP3    H251641   6.407   2.791   3.491 -0.0998 -0.8473  0.7343
10076TIP3   OH251642   1.176   1.776   5.745  0.6590 -0.7280 -0.5865
10076TIP3    H151643   1.194   1.786   5.652  0.7324  1.7315 -0.3721
10076TIP3    H251644   1.085   1.805   5.756  0.3125 -1.9580 -0.0054
10077TIP3   OH251645   0.473   1.842  11.923 -0.6626 -0.0994  0.3747
10077TIP3    H151646   0.453   1.935  11.933 -1.2529 -0.1691 -0.1321
10077TIP3    H251647   0.523   1.820  12.002  1.0597  1.0729 -0.3142
10078TIP3   OH251648   0.120   2.158   3.504 -0.2797  0.1966 -0.2204
10078TIP3    H151649   0.181   2.210   3.451  0.8398 -0.2186  0.6204
10078TIP3    H251650   0.138   2.067   3.480 -0.9348  0.0885 -0.3284
10079TIP3   OH251651   5.034   2.771  11.144  0.1366 -0.1895  0.3698
10079TIP3    H151652   4.963   2.730  11.194 -1.2751  0.1745 -1.2341
10079TIP3    H251653   5.108   2.713  11.156 -1.0784 -1.8309  0.2833
10080TIP3   OH251654   2.082   2.224  11.857 -0.5386 -0.6494 -0.2883
10080TIP3    H151655   2.035   2.296  11.899  0.7455 -0.2933  0.5989
10080TIP3    H251656   2.013   2.163  11.829 -1.5897  0.4941 -0.2715
10081TIP3   OH251657   4.706   3.672  15.433 -0.7779  0.4541 -0.1751
10081TIP3    H151658   4.784   3.621  15.457 -1.9895 -0.4175  2.1247
10081TIP3    H251659   4.684   3.641  15.345  0.7302 -0.1772 -0.3707
10082TIP3   OH251660   1.856   3.375  12.890  0.0277 -0.5339  0.3960
10082TIP3    H151661   1.913   3.437  12.844 -1.4914  1.0197  0.4722
10082TIP3    H251662   1.822   3.425  12.964 -1.4858 -1.3424  0.2862
10083TIP3   OH251663   4.443   1.632   1.695 -0.1055  0.7980 -0.0137
10083TIP3    H151664   4.397   1.563   1.647 -2.1852  2.8178 -1.1245
10083TIP3    H251665   4.500   1.673   1.630  0.2116  0.8996  0.3235
10084TIP3   OH251666   5.284   2.520  15.891  0.1475  0.2960 -0.1023
10084TIP3    H151667   5.248   2.443  15.848 -1.3880  0.0494  1.5499
10084TIP3    H251668   5.258   2.593  15.835 -0.8410 -0.1151 -0.1909
10085TIP3   OH251669   2.899   3.409  13.219 -0.8368  0.2428  0.2211
10085TIP3    H151670   2.952   3.356  13.160 -1.8123 -1.5302  0.8536
10085TIP3    H251671   2.855   3.471  13.161  1.8173  1.7784 -0.3174
10086TIP3   OH251672   4.618   6.479   1.355 -0.6759  0.2099  0.0234
10086TIP3    H151673   4.616   6.520   1.268  1.1424 -2.1349 -1.2333
10086TIP3    H251674   4.604   6.386   1.337  4.7423 -1.1948  1.5033
10087TIP3   OH251675   3.725   1.217  11.384  0.4645  0.5775  0.0929
10087TIP3    H151676   3.675   1.274  11.443 -0.5849  0.2517 -0.4654
10087TIP3    H251677   3.686   1.231  11.298  0.0477 -1.1530 -0.0178
10088TIP3   OH251678   5.252   1.897  11.711  0.3348  0.7307  0.4904
10088TIP3    H151679   5.159   1.892  11.733 -0.4857  0.6677 -2.5512
10088TIP3    H251680   5.281   1.806  11.707  0.2385  0.7045  0.3837
10089TIP3   OH251681   3.665   6.164   2.632 -0.5175  0.6308 -0.1474
10089TIP3    H151682   3.576   6.177   2.598 -0.5822  0.9439  0.1373
10089TIP3    H251683   3.712   6.120   2.561 -1.7191 -2.4545  0.8439
10090TIP3   OH251684   5.979   3.721  14.643  0.6403 -0.0473 -0.1762
10090TIP3    H151685   5.963   3.723  14.549 -0.3103  0.7215 -0.0100
10090TIP3    H251686   6.073   3.704  14.651  0.4245 -2.0314 -1.2189
10091TIP3   OH251687   2.492   0.864  16.017  0.0452  0.1798  0.4207
10091TIP3    H151688   2.514   0.843  15.926 -0.8981 -2.8020  0.7706
10091TIP3    H251689   2.397   0.870  16.018  0.0590  0.3669  1.1688
10092TIP3   OH251690   6.695   0.432  12.529  0.1198 -0.1632 -0.0127
10092TIP3    H151691   6.778   0.390  12.550 -0.3233  0.2153  2.9211
10092TIP3    H251692   6.640   0.361  12.494  0.8080 -1.0114  0.5932
10093TIP3   OH251693   1.920   4.993   0.947 -0.3789 -0.1867  0.3095
10093TIP3    H151694   1.960   5.068   0.902 -1.4699 -0.8040 -1.8585
10093TIP3    H251695   1.994   4.935   0.967  0.4767  1.3699  1.9866
10094TIP3   OH251696   1.655   2.028  12.044  0.4643 -0.0239 -0.0724
10094TIP3    H151697   1.603   1.999  11.969  0.8335  1.6054 -1.0248
10094TIP3    H251698   1.595   2.083  12.095  0.7352  0.4149 -0.2176
10095TIP3   OH251699   5.171   0.913  16.466  0.3531 -0.2805 -0.7123
10095TIP3    H151700   5.253   0.867  16.452 -0.0104 -0.2112 -3.4953
10095TIP3    H251701   5.115   0.850  16.512  1.3159 -1.0133 -0.5206
10096TIP3   OH251702   4.538   2.093  14.654  0.4080  0.0665 -0.1324
10096TIP3    H151703   4.592   2.083  14.733  1.0907  0.0731 -0.5921
10096TIP3    H251704   4.597   2.131  14.589 -0.1883  0.1992 -0.6112
10097TIP3   OH251705   3.355   4.089   1.510  0.1522  0.1984  0.1740
10097TIP3    H151706   3.391   4.020   1.454  0.3812  0.6878 -0.2841
10097TIP3    H251707   3.297   4.139   1.453 -0.1400  0.2927  0.5457
10098TIP3   OH251708   0.934   4.958   3.032 -0.0019  0.3357 -0.2679
10098TIP3    H151709   0.878   4.918   3.098  0.4649 -0.8319 -0.5604
10098TIP3    H251710   0.886   4.946   2.950  0.2964  0.0885 -0.4049
10099TIP3   OH251711   3.118   4.768   1.036 -0.6439  0.3555  0.1596
10099TIP3    H151712   3.166   4.765   1.119 -0.9625  1.2865  0.3865
10099TIP3    H251713   3.116   4.860   1.013 -0.7521  0.1224 -0.7840
10100TIP3   OH251714   0.761   5.325   3.397  0.3817 -0.4372 -0.0555
10100TIP3    H151715   0.785   5.271   3.322  0.9218 -0.5830  0.2156
10100TIP3    H251716   0.745   5.412   3.360  0.4987 -0.5456 -0.3605
10101TIP3   OH251717   6.657   0.325   4.706 -0.7556  0.3786 -0.1683
10101TIP3    H151718   6.601   0.289   4.775 -1.6884  0.3138 -0.9375
10101TIP3    H251719   6.635   0.274   4.628  1.9822 -1.2166 -0.0531
10102TIP3   OH251720   4.791   1.891   1.148 -0.4794  0.3515  0.0385
10102TIP3    H151721   4.760   1.901   1.238  1.5440  2.6360  0.6045
10102TIP3    H251722   4.871   1.839   1.156 -1.6778 -1.7176 -0.8331
10103TIP3   OH251723   4.692   3.501   0.404  0.3217 -0.1808  0.0030
10103TIP3    H151724   4.685   3.461   0.317 -1.1517  0.9268 -0.4220
10103TIP3    H251725   4.675   3.430   0.465 -2.2299 -0.3068 -0.7350
10104TIP3   OH251726   4.484   5.628   4.671  0.5079 -0.1474 -0.2171
10104TIP3    H151727   4.516   5.682   4.599  0.9013  0.5327  0.4463
10104TIP3    H251728   4.551   5.560   4.681  0.3507 -0.3666 -0.6176
10105TIP3   OH251729   2.539   5.562  13.380  0.0038 -0.4273  0.1982
10105TIP3    H151730   2.565   5.474  13.407 -3.2508 -1.3606  0.6349
10105TIP3    H251731   2.466   5.585  13.437 -0.1840  1.9852 -0.8745
10106TIP3   OH251732   1.907   0.525  14.068 -0.5835  0.5115 -0.4262
10106TIP3    H151733   1.866   0.469  14.134  0.6768  0.5905  0.4490
10106TIP3    H251734   1.935   0.603  14.116 -1.1390  1.3262 -1.3835
10107TIP3   OH251735   4.021   0.561   3.203 -0.2300 -0.5387  0.4386
10107TIP3    H151736   4.011   0.526   3.292 -0.5781 -0.8329  0.2822
10107TIP3    H251737   4.067   0.645   3.216 -0.6016 -0.4052  0.9241
10108TIP3   OH251738   2.163   3.283  13.817 -0.7136  0.1977  0.1589
10108TIP3    H151739   2.069   3.266  13.808 -0.4369 -1.8001  0.5938
10108TIP3    H251740   2.175   3.369  13.778 -2.6358  0.2577 -0.4314
10109TIP3   OH251741   5.812   6.318  15.499  0.3252  0.2806 -0.2117
10109TIP3    H151742   5.853   6.232  15.500  1.4750  0.7121 -2.4919
10109TIP3    H251743   5.728   6.304  15.455 -0.4176  0.0315  1.2134
10110TIP3   OH251744   6.592   2.779  10.252  0.1937 -0.2044  0.1412
10110TIP3    H151745   6.682   2.782  10.219  0.9852 -1.0413  2.0833
10110TIP3    H251746   6.568   2.687  10.245 -0.2743 -0.0902  0.2391
10111TIP3   OH251747   0.385   5.947   2.396 -0.7021  0.4951  0.1149
10111TIP3    H151748   0.388   5.906   2.309 -0.7605  0.3223  0.1935
10111TIP3    H251749   0.292   5.948   2.418 -0.5754 -0.8850  0.8401
10112TIP3   OH251750   0.092   3.963   5.664  0.1246  0.3384 -0.3424
10112TIP3    H151751   0.111   3.996   5.751  1.8502 -0.0644 -0.5157
10112TIP3    H251752  -0.002   3.974   5.653 -0.1961 -0.0237  1.7326
10113TIP3   OH251753   2.407   1.001   0.216  0.2209 -0.6384  0.5456
10113TIP3    H151754   2.388   0.915   0.178  1.2882 -0.4421 -0.4891
10113TIP3    H251755   2.498   1.018   0.193 -0.1678  1.0736  0.1313
10114TIP3   OH251756   1.001   0.882   2.696  0.4647 -0.3446  0.0420
10114TIP3    H151757   0.948   0.859   2.772  0.2558 -0.3570 -0.1058
10114TIP3    H251758   0.941   0.930   2.639  0.1112 -1.8731 -0.9243
10115TIP3   OH251759   3.534   2.516  11.154  0.0066  0.0808  0.3766
10115TIP3    H151760   3.567   2.454  11.089 -0.4679  1.0070 -0.7729
10115TIP3    H251761   3.439   2.510  11.147 -0.0827 -0.4433  1.6296
10116TIP3   OH251762   2.474   2.347  15.778 -0.2040 -0.1193 -0.2685
10116TIP3    H151763   2.515   2.296  15.708  0.6050  1.6253 -1.1350
10116TIP3    H251764   2.386   2.310  15.786 -0.0861 -0.7957 -1.7759
10117TIP3   OH251765   2.061   4.809   4.848 -0.3342  0.0581  0.1575
10117TIP3    H151766   2.075   4.807   4.942  0.4894  0.3708  0.0484
10117TIP3    H251767   1.971   4.779   4.836 -0.9608  1.4506  1.1352
10118TIP3   OH251768   6.245   2.826   2.619 -0.4080 -0.0340  0.1208
10118TIP3    H151769   6.321   2.774   2.647  0.5386  1.1387 -0.2147
10118TIP3    H251770   6.196   2.766   2.562  0.4986 -0.6661 -0.0254
10119TIP3   OH251771   5.196   2.918   2.335 -0.0025  0.2324  0.2329
10119TIP3    H151772   5.213   2.998   2.284  0.6548 -0.6449 -0.9541
10119TIP3    H251773   5.239   2.934   2.419  1.1986  0.6378 -0.4367
10120TIP3   OH251774   3.633   4.545  11.362 -0.6133  0.3053  0.3189
10120TIP3    H151775   3.657   4.480  11.428 -0.9359  1.5699  1.7324
10120TIP3    H251776   3.715   4.588  11.339 -0.5221 -0.0356  0.0054
10121TIP3   OH251777   0.101   6.192  11.802  0.5077  0.1328  0.1906
10121TIP3    H151778   0.008   6.204  11.820 -0.2526 -2.9054 -1.0381
10121TIP3    H251779   0.118   6.246  11.725 -0.4891  0.0256 -0.1193
10122TIP3   OH251780   1.920   4.462   1.691 -0.0898 -0.1514  0.3576
10122TIP3    H151781   1.936   4.465   1.596  0.1981 -2.4281  0.2805
10122TIP3    H251782   1.830   4.492   1.701 -0.1305  0.1030 -0.6373
10123TIP3   OH251783   3.954   2.471  14.855 -0.1440  0.5343  0.0655
10123TIP3    H151784   4.037   2.424  14.848  0.1739  1.0233  0.4269
10123TIP3    H251785   3.901   2.417  14.913 -1.2722 -1.4002 -2.5686
10124TIP3   OH251786   1.700   3.401   3.456 -0.2388 -0.1281 -0.5163
10124TIP3    H151787   1.775   3.397   3.516 -0.2014  0.0840 -0.5494
10124TIP3    H251788   1.738   3.385   3.370 -0.2116  0.1007 -0.5484
10125TIP3   OH251789   5.022   4.805   5.670  0.1114 -0.0291 -0.3050
10125TIP3    H151790   4.971   4.885   5.684  0.6744  0.1970  0.4728
10125TIP3    H251791   5.100   4.835   5.622 -0.0626 -0.2457 -0.7330
10126TIP3   OH251792   4.679   2.303   2.934  0.1920  0.7286  0.4735
10126TIP3    H151793   4.680   2.331   3.025  0.7592 -0.1972  0.7609
10126TIP3    H251794   4.594   2.332   2.901  0.3390  1.8588  1.0335
10127TIP3   OH251795   1.970   3.081   5.622  0.2920 -0.0047  0.6100
10127TIP3    H151796   2.030   3.045   5.556  0.2057 -0.0837  0.5742
10127TIP3    H251797   2.025   3.093   5.700  0.7742  1.5849  0.0634
10128TIP3   OH251798   4.635   2.656   5.256  0.0490 -0.1916 -0.1240
10128TIP3    H151799   4.699   2.701   5.312 -0.2617 -0.0519  0.1233
10128TIP3    H251800   4.688   2.605   5.195  0.4103  0.4479 -0.3587
10129TIP3   OH251801   5.750   0.012   4.908 -0.1591 -0.0692 -0.3947
10129TIP3    H151802   5.734   0.052   4.822 -0.5948  0.3823 -0.1156
10129TIP3    H251803   5.703   0.069   4.969  1.7455  0.7338  0.3795
10130TIP3   OH251804   3.791   5.217  11.066 -0.6926  0.2122 -0.2178
10130TIP3    H151805   3.738   5.279  11.017  0.6960  1.7937  0.1900
10130TIP3    H251806   3.845   5.271  11.124  1.1732 -1.2861 -0.4281
10131TIP3   OH251807   3.305   0.110   1.663  0.0675 -0.2573  0.1597
10131TIP3    H151808   3.349   0.026   1.668 -0.2227 -0.3676  1.1781
10131TIP3    H251809   3.366   0.172   1.702  0.2885  0.0185 -0.6052
10132TIP3   OH251810   4.744   1.844  16.776 -0.0940  0.0657  0.5445
10132TIP3    H151811   4.780   1.823  16.690  1.1001 -2.8619  1.6392
10132TIP3    H251812   4.821   1.858  16.831 -0.7902 -0.0627  1.5696
10133TIP3   OH251813   0.476   2.082   5.079 -0.0526 -0.0128  0.3805
10133TIP3    H151814   0.456   2.055   5.168  0.7902 -0.0263  0.5717
10133TIP3    H251815   0.572   2.083   5.075 -0.0145  2.3306  0.2142
10134TIP3   OH251816   3.136   0.987   0.152  0.2828  0.4300  0.4257
10134TIP3    H151817   3.127   1.041   0.230  1.4497  0.4870  0.5354
10134TIP3    H251818   3.174   1.046   0.087 -3.2852  1.2607 -1.1777
10135TIP3   OH251819   6.789   2.826   4.888  0.0390 -0.1328 -0.3602
10135TIP3    H151820   6.754   2.887   4.823  1.0157 -1.3915 -2.1902
10135TIP3    H251821   6.828   2.756   4.835  2.0475 -0.5835  1.5840
10136TIP3   OH251822   3.690   1.734   0.575 -0.0216 -0.0444 -0.7286
10136TIP3    H151823   3.642   1.779   0.645 -0.7466  1.1140 -1.9164
10136TIP3    H251824   3.763   1.690   0.620 -0.7069  0.2958  0.7894
10137TIP3   OH251825   0.758   6.054  16.032 -0.4396  0.2163  0.7313
10137TIP3    H151826   0.674   6.053  16.076 -1.0780  0.9059 -0.4340
10137TIP3    H251827   0.740   6.090  15.946  0.9309 -0.2545  0.2157
10138TIP3   OH251828   2.756   6.379   3.458 -0.0343 -0.5467  0.4101
10138TIP3    H151829   2.692   6.329   3.406 -0.4666 -0.4603  0.8472
10138TIP3    H251830   2.716   6.465   3.467  0.9710  0.0749 -0.8307
10139TIP3   OH251831   1.030   3.853  11.731  0.0785  0.1513 -0.4079
10139TIP3    H151832   1.006   3.810  11.649  1.6580 -1.5139 -0.0579
10139TIP3    H251833   0.990   3.800  11.799  1.0960 -0.1446 -0.0147
10140TIP3   OH251834   4.543   2.907   5.624  0.3106 -0.9802 -0.3232
10140TIP3    H151835   4.624   2.956   5.636  1.1324 -1.7888 -2.1408
10140TIP3    H251836   4.560   2.822   5.665  0.2559 -1.0374 -0.4192
10141TIP3   OH251837   4.776   3.467  13.848 -0.4578  0.5599  0.0181
10141TIP3    H151838   4.816   3.516  13.920 -1.2860  1.7105 -0.2783
10141TIP3    H251839   4.814   3.505  13.769 -0.3496  0.0247 -0.1905
10142TIP3   OH251840   6.329   6.377  11.593 -0.4749 -0.0055 -0.0416
10142TIP3    H151841   6.318   6.407  11.503  2.5217  0.9691 -0.2140
10142TIP3    H251842   6.317   6.282  11.590 -0.9032  0.0809 -1.3619
10143TIP3   OH251843   1.926   3.127   2.341  0.0476 -0.2232  0.3696
10143TIP3    H151844   1.960   3.163   2.422  0.0384  0.2711  0.1637
10143TIP3    H251845   1.982   3.053   2.321  1.1321  0.6795 -0.0570
10144TIP3   OH251846   1.123   2.689   4.635 -0.1664  0.2630 -0.4118
10144TIP3    H151847   1.196   2.692   4.573  1.1969 -0.4763  1.0980
10144TIP3    H251848   1.161   2.654   4.716 -2.0773  0.3840  0.5951
10145TIP3   OH251849   2.832   5.380  13.264  0.1190  0.6038 -0.5253
10145TIP3    H151850   2.918   5.350  13.235  0.0835  1.3402 -1.4593
10145TIP3    H251851   2.804   5.441  13.195 -1.0710  0.5055 -0.1445
10146TIP3   OH251852   6.421   0.513  11.243 -0.3470 -0.3856 -0.2155
10146TIP3    H151853   6.335   0.474  11.262 -0.7774  0.3424 -0.6248
10146TIP3    H251854   6.416   0.538  11.151  0.1167  0.1271 -0.1074
10147TIP3   OH251855   5.247   4.151   4.135  0.5699 -0.1525 -0.3508
10147TIP3    H151856   5.262   4.077   4.075 -1.1128 -0.1776 -0.7958
10147TIP3    H251857   5.331   4.196   4.140  1.1049 -0.9687 -1.6327
10148TIP3   OH251858   5.572   3.305   1.087 -0.1621 -0.7468  0.4998
10148TIP3    H151859   5.499   3.337   1.035  0.2261  1.0414  1.0116
10148TIP3    H251860   5.648   3.313   1.030 -0.2766 -2.4136  0.0401
10149TIP3   OH251861   4.639   3.472  11.978  0.4396  0.1692  0.0929
10149TIP3    H151862   4.716   3.479  12.035 -0.4890  2.1819  1.1681
10149TIP3    H251863   4.663   3.522  11.900  0.8862 -0.7518 -0.3754
10150TIP3   OH251864   3.207   2.263  16.289  0.5238 -0.0411  0.7194
10150TIP3    H151865   3.243   2.257  16.201 -1.0980 -2.1582  0.1258
10150TIP3    H251866   3.245   2.344  16.325  1.7159  0.5397 -1.6502
10151TIP3   OH251867   2.360   0.756   0.914  0.5072 -0.2952 -0.4699
10151TIP3    H151868   2.394   0.829   0.862  0.7072  0.6590  0.9220
10151TIP3    H251869   2.330   0.798   0.995 -0.6841 -1.5933 -0.2086
10152TIP3   OH251870   1.856   4.088   2.474  0.5134 -0.2171 -0.4542
10152TIP3    H151871   1.837   4.027   2.546  0.5334 -1.0432 -1.1400
10152TIP3    H251872   1.770   4.113   2.440  0.5088  0.0670 -0.2396
10153TIP3   OH251873   5.037   6.195   1.919  0.2577  0.0221 -0.1122
10153TIP3    H151874   5.028   6.150   1.835  0.4470 -0.6305  0.2102
10153TIP3    H251875   5.131   6.195   1.936  0.3617  1.4252 -0.5733
10154TIP3   OH251876   6.292   0.526   4.936  0.2335 -0.0977 -0.6242
10154TIP3    H151877   6.323   0.511   4.847 -1.3294 -1.9751 -0.9047
10154TIP3    H251878   6.349   0.473   4.991  0.9399  0.7501 -0.5018
10155TIP3   OH251879   2.140   0.083  14.068 -0.3419 -0.0019 -0.4149
10155TIP3    H151880   2.225   0.126  14.062 -0.3566  0.0796 -0.0471
10155TIP3    H251881   2.145   0.011  14.006 -0.0621  0.0975 -0.5096
10156TIP3   OH251882   0.845   2.900  13.309 -0.0051  0.2432 -0.2681
10156TIP3    H151883   0.783   2.934  13.374  1.4409 -0.2099  1.4328
10156TIP3    H251884   0.885   2.978  13.270 -0.9621  0.5194 -0.7154
10157TIP3   OH251885   6.604   3.498  17.052  0.4049 -0.1407  0.0933
10157TIP3    H151886   6.641   3.539  17.131 -0.7085 -0.3652  0.7487
10157TIP3    H251887   6.557   3.421  17.085 -1.4508  0.6508 -0.5719
10158TIP3   OH251888   4.757   4.191  11.220 -0.0219 -0.6464  0.5352
10158TIP3    H151889   4.798   4.170  11.136  0.3192 -1.7398  0.9645
10158TIP3    H251890   4.675   4.234  11.197  0.0662 -0.9473 -0.3603
10159TIP3   OH251891   1.381   6.189   5.785 -0.1907  1.2377  0.5023
10159TIP3    H151892   1.415   6.238   5.711  1.3038 -1.1618 -0.5091
10159TIP3    H251893   1.286   6.185   5.770  0.1942 -0.5184 -2.2640
10160TIP3   OH251894   0.885   0.595  15.360 -0.0397 -0.6338  0.2039
10160TIP3    H151895   0.818   0.566  15.297 -0.8022 -0.2535  0.8250
10160TIP3    H251896   0.835   0.636  15.431  0.9016  0.5162  0.2314
10161TIP3   OH251897   2.515   2.376   1.232 -0.1324  0.2522 -0.3149
10161TIP3    H151898   2.560   2.370   1.148 -0.4092 -0.9240 -0.3976
10161TIP3    H251899   2.543   2.460   1.268  2.4347 -0.5607 -0.1968
10162TIP3   OH251900   6.303   1.454  16.998  0.2791  0.6528 -0.5331
10162TIP3    H151901   6.282   1.362  17.013 -0.8507  1.2786  2.2617
10162TIP3    H251902   6.392   1.464  17.032  0.5169  0.5583 -1.1112
10163TIP3   OH251903   0.577   5.527  13.334  0.1248 -0.5134  0.9154
10163TIP3    H151904   0.553   5.501  13.245 -0.8462  0.8749  0.7392
10163TIP3    H251905   0.672   5.515  13.337  0.1270 -0.9646 -0.1725
10164TIP3   OH251906   0.343   4.284   4.919  0.2748 -0.5422 -0.1514
10164TIP3    H151907   0.262   4.240   4.946 -0.2314 -0.3761 -1.3146
10164TIP3    H251908   0.355   4.256   4.828  1.6360 -0.6981  0.0627
10165TIP3   OH251909   2.275   0.953   1.498 -0.4242 -0.0124  0.3437
10165TIP3    H151910   2.346   0.980   1.558 -0.7794  0.3648  0.5984
10165TIP3    H251911   2.292   0.860   1.482  0.1824  0.0913  0.3327
10166TIP3   OH251912   0.193   5.518   4.555 -0.5217 -0.2457 -0.8245
10166TIP3    H151913   0.158   5.546   4.640 -1.7465 -0.5072 -1.2305
10166TIP3    H251914   0.235   5.597   4.520  1.4368 -0.5312  0.6930
10167TIP3   OH251915   3.323   5.484  16.993  0.6080 -0.0607 -0.1604
10167TIP3    H151916   3.232   5.466  17.015  1.2087 -2.4358  0.6085
10167TIP3    H251917   3.319   5.522  16.905 -0.9952 -2.4291 -1.2106
10168TIP3   OH251918   6.404   0.907  15.597 -0.0956  0.3980 -0.7106
10168TIP3    H151919   6.365   0.983  15.553 -1.7612 -2.1316 -4.1005
10168TIP3    H251920   6.486   0.892  15.550 -0.3694 -0.5824 -0.8856
10169TIP3   OH251921   6.798   6.428  14.973  0.1635  0.5076  0.6934
10169TIP3    H151922   6.873   6.372  14.996 -1.5370 -1.9911  0.6147
10169TIP3    H251923   6.771   6.396  14.887 -0.4197  2.0413  0.2885
10170TIP3   OH251924   5.754   0.728  16.903 -0.2042  0.7417  0.0324
10170TIP3    H151925   5.680   0.728  16.964  0.1986  3.2523  0.6402
10170TIP3    H251926   5.813   0.795  16.937  1.8122 -0.3653 -1.1028
10171TIP3   OH251927   4.235   1.809   5.147 -0.1464 -0.3658 -0.7542
10171TIP3    H151928   4.162   1.761   5.184  0.0969 -0.7329 -0.7469
10171TIP3    H251929   4.297   1.819   5.219  1.0798 -2.5282 -1.4075
10172TIP3   OH251930   4.501   0.369   4.078 -0.5048 -0.4577 -0.0458
10172TIP3    H151931   4.594   0.364   4.101 -1.0003 -0.6500  2.1218
10172TIP3    H251932   4.461   0.294   4.120 -1.7718  0.0335 -0.3197
10173TIP3   OH251933   3.869   5.926  16.244 -0.1751  0.2890  0.2080
10173TIP3    H151934   3.862   5.858  16.311  0.4095 -0.6894 -0.6739
10173TIP3    H251935   3.779   5.939  16.214 -0.0743 -1.9259 -1.3012
10174TIP3   OH251936   4.529   1.309   4.662  0.1943 -0.0190  0.4795
10174TIP3    H151937   4.531   1.396   4.622  0.0431 -0.2947 -0.1352
10174TIP3    H251938   4.586   1.255   4.608  0.2081 -0.3303  0.7968
10175TIP3   OH251939   2.583   1.800   0.246  0.4584 -0.1741  0.0768
10175TIP3    H151940   2.603   1.708   0.262 -0.8753 -0.2515  1.5701
10175TIP3    H251941   2.656   1.847   0.287  1.5829 -0.5199 -1.4116
10176TIP3   OH251942   2.035   6.566   1.860  0.0677  0.0471 -0.5174
10176TIP3    H151943   2.088   6.635   1.900 -0.4064  0.5921 -0.8169
10176TIP3    H251944   2.051   6.489   1.915 -0.5281  0.7684  0.7061
10177TIP3   OH251945   4.494   2.556   4.580 -0.7993  0.3766 -0.0785
10177TIP3    H151946   4.510   2.604   4.499  0.6731  2.2731  1.2476
10177TIP3    H251947   4.581   2.546   4.619 -1.7163  3.7868  3.5169
10178TIP3   OH251948   4.408   0.570   2.625 -0.0035 -0.4891 -0.0282
10178TIP3    H151949   4.369   0.485   2.605  1.9215 -1.3361 -0.3884
10178TIP3    H251950   4.431   0.565   2.718 -1.5357  0.3604  0.4253
10179TIP3   OH251951   3.751   6.183   0.123  0.5625  0.0283  0.0551
10179TIP3    H151952   3.817   6.129   0.079 -0.7039 -0.0739 -1.8048
10179TIP3    H251953   3.741   6.260   0.067 -2.0212 -0.6974 -0.5900
10180TIP3   OH251954   4.064   6.016   3.643 -0.0810  0.2361 -0.0817
10180TIP3    H151955   4.153   6.021   3.608 -0.0413 -1.5370 -0.3169
10180TIP3    H251956   4.008   6.046   3.572  0.2674  0.5170 -0.2391
10181TIP3   OH251957   1.975   3.754   5.271  0.3598  0.8909  0.0255
10181TIP3    H151958   1.886   3.758   5.307  0.3991 -0.2501  0.2735
10181TIP3    H251959   1.962   3.766   5.177 -0.1903 -0.3576 -0.0817
10182TIP3   OH251960   5.004   5.751   4.326 -0.2385 -0.3261  0.4702
10182TIP3    H151961   4.946   5.823   4.300 -2.0209 -0.6484  3.2225
10182TIP3    H251962   4.973   5.676   4.275 -1.1428 -0.0883  0.6556
10183TIP3   OH251963   3.529   3.795  13.515  0.4896 -0.0711  0.1839
10183TIP3    H151964   3.611   3.828  13.552  0.7682  0.2147 -0.6617
10183TIP3    H251965   3.521   3.706  13.549  0.3302  0.4353  1.5561
10184TIP3   OH251966   3.654   5.048   4.451  0.1479  0.1638  0.1456
10184TIP3    H151967   3.709   4.976   4.419 -0.0490  0.6422 -1.3550
10184TIP3    H251968   3.579   5.004   4.491  1.2594 -0.4849  1.6296
10185TIP3   OH251969   3.766   5.492   1.123 -0.0851  0.1231 -0.2619
10185TIP3    H151970   3.804   5.407   1.145  2.2598  1.2027  0.1342
10185TIP3    H251971   3.693   5.471   1.064  1.3663 -2.0722 -1.4091
10186TIP3   OH251972   4.573   2.505  12.155  0.6418  0.0100  0.0572
10186TIP3    H151973   4.479   2.508  12.171  0.6991 -2.4013  1.2282
10186TIP3    H251974   4.591   2.415  12.129  2.5841  0.5317 -0.6130
10187TIP3   OH251975   5.960   2.711   5.034 -0.7137  0.0186 -0.3166
10187TIP3    H151976   5.972   2.618   5.052  0.3007  0.3541  0.8906
10187TIP3    H251977   5.930   2.715   4.943  1.4638 -1.3792 -1.1676
10188TIP3   OH251978   3.291   5.046  12.252  0.4165 -0.6114  0.2337
10188TIP3    H151979   3.291   5.138  12.277  0.7986  0.1215 -2.1447
10188TIP3    H251980   3.363   5.007  12.301 -0.2758  0.1290  1.9014
10189TIP3   OH251981   4.697   0.065   0.427 -0.1299  0.4157 -0.0677
10189TIP3    H151982   4.645  -0.003   0.469  0.3618  0.7493  1.1355
10189TIP3    H251983   4.650   0.086   0.347  0.4389 -2.3482 -1.2521
10190TIP3   OH251984   5.473   0.622  13.240  0.5363 -0.4901  0.2100
10190TIP3    H151985   5.393   0.632  13.188  0.5482 -1.2890  0.0301
10190TIP3    H251986   5.516   0.707  13.234  0.0717 -0.2882 -0.3223
10191TIP3   OH251987   5.786   4.697  12.853 -0.0804 -0.2493  0.4554
10191TIP3    H151988   5.859   4.672  12.797  0.1523 -1.0863  1.1048
10191TIP3    H251989   5.714   4.716  12.793  0.2427 -0.8657 -0.1361
10192TIP3   OH251990   1.147   3.871   5.524  0.4696  0.0700  0.3346
10192TIP3    H151991   1.140   3.940   5.590 -1.2702  0.3151 -0.0785
10192TIP3    H251992   1.083   3.893   5.458 -0.3968 -2.1130  0.3431
10193TIP3   OH251993   6.710   2.263  13.847  0.1528  0.4021 -0.6756
10193TIP3    H151994   6.789   2.231  13.803  0.3805 -0.1133  0.0956
10193TIP3    H251995   6.718   2.232  13.937  0.5174  2.8456  0.2256
10194TIP3   OH251996   1.662   5.220   1.124  0.1904  0.2709  0.1228
10194TIP3    H151997   1.623   5.262   1.200 -0.6042  0.2514 -0.2685
10194TIP3    H251998   1.729   5.162   1.161 -0.1284  0.3242  0.8020
10195TIP3   OH251999   3.978   5.014  15.612  0.6557  0.1553 -0.8999
10195TIP3    H152000   3.915   5.072  15.569  0.7682  0.3911 -0.7467
10195TIP3    H252001   3.973   4.932  15.562 -0.3359 -0.0951 -0.4353
10196TIP3   OH252002   6.303   3.708   0.129  0.2835  0.1473  0.6208
10196TIP3    H152003   6.280   3.760   0.206 -0.3865  2.9287 -1.3131
10196TIP3    H252004   6.385   3.746   0.097  0.5006 -0.8989 -0.1300
10197TIP3   OH252005   1.902   4.600  15.657  0.1684 -0.6773  0.2209
10197TIP3    H152006   1.979   4.610  15.713  0.3724 -1.4549  0.0890
10197TIP3    H252007   1.913   4.514  15.616 -0.0337 -0.1570 -0.9378
10198TIP3   OH252008   4.002   4.431  11.156 -0.5214 -0.6937 -0.4810
10198TIP3    H152009   4.033   4.342  11.170  1.0809 -0.1061 -0.1190
10198TIP3    H252010   4.080   4.480  11.128 -1.3410  0.6208 -0.5629
10199TIP3   OH252011   2.303   0.181   0.831  0.5073 -0.5321 -0.0023
10199TIP3    H152012   2.361   0.248   0.867  0.0080  0.7585 -1.4706
10199TIP3    H252013   2.256   0.147   0.907  1.5688 -0.0256  0.9187
10200TIP3   OH252014   2.546   5.308   5.988  0.8308  0.6316  0.1540
10200TIP3    H152015   2.638   5.327   5.971  0.6024 -0.1805 -2.3564
10200TIP3    H252016   2.541   5.295   6.083  2.7842  3.1730  0.7205
10201TIP3   OH252017   3.417   5.381   3.195  0.8583 -0.0208  0.0769
10201TIP3    H152018   3.493   5.339   3.154  0.6498  0.5382 -0.9177
10201TIP3    H252019   3.365   5.414   3.121  0.2910  0.7183  0.7872
10202TIP3   OH252020   1.437   0.749  13.392 -0.5671 -0.5906 -0.2085
10202TIP3    H152021   1.424   0.725  13.300 -0.4554 -2.1641  0.1537
10202TIP3    H252022   1.348   0.761  13.426 -0.6129  3.2366 -1.2325
10203TIP3   OH252023   4.235   4.082   3.309 -0.9670 -0.0831 -0.1080
10203TIP3    H152024   4.318   4.130   3.310  0.0925 -1.8334  0.9600
10203TIP3    H252025   4.217   4.067   3.216 -0.4164  0.8300 -0.3785
10204TIP3   OH252026   4.986   4.156   6.279 -0.3178  0.7251  0.2392
10204TIP3    H152027   5.075   4.119   6.280 -1.3418 -2.0924 -1.0982
10204TIP3    H252028   4.995   4.242   6.320  2.5588 -0.4933  2.5265
10205TIP3   OH252029   0.987   4.634  14.904 -0.6850  0.3823  0.0158
10205TIP3    H152030   1.022   4.562  14.851  0.7027  1.4376 -0.5440
10205TIP3    H252031   1.063   4.672  14.947 -1.6191  0.4550  1.6794
10206TIP3   OH252032   1.414   3.647  16.427 -0.1566  0.0221 -0.1575
10206TIP3    H152033   1.481   3.711  16.454  0.8142 -1.4131  0.9876
10206TIP3    H252034   1.461   3.586  16.371 -0.3292 -1.3024  1.0814
10207TIP3   OH252035   3.079   2.240   1.157  0.0416  0.3316  0.0416
10207TIP3    H152036   3.124   2.288   1.226 -2.6635  0.9980  1.4692
10207TIP3    H252037   2.995   2.214   1.195  0.0181 -2.7820 -1.7376
10208TIP3   OH252038   0.400   5.396   5.420  0.7435 -0.5757  0.0586
10208TIP3    H152039   0.311   5.386   5.455  0.0277 -1.8377 -1.9331
10208TIP3    H252040   0.421   5.489   5.433  0.3206 -0.8228  3.1288
10209TIP3   OH252041   0.723   0.490   0.119 -0.2364  0.0345 -0.0258
10209TIP3    H152042   0.729   0.400   0.152  0.1455  0.1755  0.2974
10209TIP3    H252043   0.653   0.530   0.170  0.2870  0.2225  0.5540
10210TIP3   OH252044   6.309   3.324  14.456 -0.3969  0.2640  0.1312
10210TIP3    H152045   6.306   3.230  14.436  0.4656 -0.0555  1.3924
10210TIP3    H252046   6.400   3.348  14.444 -0.5863  0.9273 -0.0329
10211TIP3   OH252047   6.435   0.122   6.346 -0.1395 -0.3898  0.8791
10211TIP3    H152048   6.481   0.141   6.264 -0.4832 -0.8949  0.5618
10211TIP3    H252049   6.493   0.062   6.393  0.7107  1.0002  1.6530
10212TIP3   OH252050   1.397   6.736  15.823 -0.3608  0.5043  0.2446
10212TIP3    H152051   1.487   6.767  15.825  0.6749 -2.2042  0.1937
10212TIP3    H252052   1.367   6.756  15.734  0.9446 -0.4093 -0.4371
10213TIP3   OH252053   2.759   0.981   3.065 -0.6443 -0.4569 -0.0339
10213TIP3    H152054   2.664   0.973   3.053 -0.9061 -0.2753  1.6109
10213TIP3    H252055   2.796   0.907   3.016 -1.6175 -0.4479 -0.8124
10214TIP3   OH252056   3.904   3.723  11.914  0.3794 -0.2133  0.3944
10214TIP3    H152057   3.972   3.666  11.949  0.4517 -0.4776 -0.1643
10214TIP3    H252058   3.823   3.693  11.956  0.3606 -0.9677 -0.1536
10215TIP3   OH252059   2.911   6.522   5.538 -0.5556 -0.9067  0.1650
10215TIP3    H152060   2.878   6.502   5.450 -0.1688 -1.1201  0.0630
10215TIP3    H252061   2.894   6.443   5.588 -1.1003 -0.6558  0.3811
10216TIP3   OH252062   1.098   1.735  11.060 -0.1356  0.3515 -0.0480
10216TIP3    H152063   1.048   1.765  10.984 -1.3035 -1.8249 -0.2273
10216TIP3    H252064   1.031   1.705  11.122  0.8746  0.1586  0.9859
10217TIP3   OH252065   0.066   0.565  14.613  0.2139 -0.0982 -0.3186
10217TIP3    H152066  -0.022   0.604  14.620  0.1039 -0.4385  0.2324
10217TIP3    H252067   0.097   0.593  14.527 -0.4398  0.0218 -0.5241
10218TIP3   OH252068   1.871   4.623  14.565  0.1037 -0.3287 -0.2473
10218TIP3    H152069   1.918   4.540  14.567  2.3124  0.8587  0.9577
10218TIP3    H252070   1.902   4.666  14.485 -1.0232 -0.6162 -0.8625
10219TIP3   OH252071   5.545   4.384   1.918  0.2122  0.4691 -0.0319
10219TIP3    H152072   5.476   4.450   1.921 -1.6242 -1.3072 -0.4249
10219TIP3    H252073   5.576   4.385   1.828 -0.0888  0.5329 -0.1349
10220TIP3   OH252074   1.469   5.938   1.257 -0.0120  0.3114  0.2882
10220TIP3    H152075   1.559   5.964   1.277  0.4968  1.3141 -2.8021
10220TIP3    H252076   1.476   5.849   1.223  0.1431  1.0582 -1.7462
10221TIP3   OH252077   1.225   4.244  15.600 -0.1187 -0.7180 -0.1079
10221TIP3    H152078   1.230   4.334  15.569 -2.2158 -0.9155 -1.1597
10221TIP3    H252079   1.155   4.204  15.549 -0.3546 -2.5017  1.4867
10222TIP3   OH252080   2.601   5.903  15.087 -0.1477  0.2549  0.4517
10222TIP3    H152081   2.545   5.948  15.151  1.2294  0.3740  1.6391
10222TIP3    H252082   2.662   5.853  15.141  1.1822  0.5067 -0.7755
10223TIP3   OH252083   1.264   6.610  12.976 -0.2815  0.2252  0.0687
10223TIP3    H152084   1.324   6.545  12.938 -1.2751 -0.5762 -0.1682
10223TIP3    H252085   1.251   6.579  13.066  1.3971  1.6469  0.8671
10224TIP3   OH252086   4.673   6.285  15.231  0.0931  0.3892 -0.0799
10224TIP3    H152087   4.748   6.344  15.227  0.3489  0.1676  1.0830
10224TIP3    H252088   4.624   6.314  15.308 -1.4604  1.0303 -1.2741
10225TIP3   OH252089   2.748   6.127  16.452 -0.6461 -0.3077 -0.0630
10225TIP3    H152090   2.763   6.032  16.447  3.5476  0.2096 -0.6421
10225TIP3    H252091   2.682   6.137  16.521  0.2420 -3.5699  1.4602
10226TIP3   OH252092   1.290   2.223  13.000  0.5661  0.2669 -0.1530
10226TIP3    H152093   1.274   2.259  13.087  0.3940 -1.0128  0.3702
10226TIP3    H252094   1.209   2.238  12.952 -0.5147 -1.7197  0.9021
10227TIP3   OH252095   5.447   5.576   3.565  0.3889 -0.2213  0.1205
10227TIP3    H152096   5.354   5.595   3.572  0.2763 -0.4919 -0.6185
10227TIP3    H252097   5.490   5.651   3.606 -0.1595 -0.3906  1.0464
10228TIP3   OH252098   4.648   1.518   4.478 -0.2935  0.0803 -0.2203
10228TIP3    H152099   4.658   1.588   4.414 -0.0252 -0.0002 -0.2676
10228TIP3    H252100   4.573   1.467   4.448  0.0206 -0.1388 -0.6436
10229TIP3   OH252101   1.204   3.036  13.738 -0.6991  0.0148  0.6514
10229TIP3    H152102   1.138   3.083  13.686 -0.1700  0.7269  0.6017
10229TIP3    H252103   1.272   3.013  13.675 -0.9871 -0.8983  0.6651
10230TIP3   OH252104   0.912   4.360   1.007  0.7189  0.3857 -0.2711
10230TIP3    H152105   0.957   4.380   1.089  0.2449 -0.2138  0.1373
10230TIP3    H252106   0.821   4.345   1.032  0.8526 -1.2980 -0.6788
10231TIP3   OH252107   6.029   0.188  17.080 -0.2343 -0.1729  0.0344
10231TIP3    H152108   6.011   0.185  17.174 -0.1261 -1.1389  0.0386
10231TIP3    H252109   6.091   0.260  17.070 -0.3187 -0.0020  0.6943
10232TIP3   OH252110   3.444   0.267  16.052 -0.2018  0.1818  0.4198
10232TIP3    H152111   3.510   0.264  15.983 -1.4833  2.3895 -1.0348
10232TIP3    H252112   3.360   0.269  16.006 -1.1599  0.6953  2.0815
10233TIP3   OH252113   5.063   2.023   4.498 -0.2086  0.5690  0.0729
10233TIP3    H152114   5.137   1.977   4.537  0.6817  1.3771 -0.6424
10233TIP3    H252115   5.096   2.110   4.477 -2.0707  1.9337  2.1931
10234TIP3   OH252116   2.084   4.245   1.478 -0.2100  0.1216 -0.0429
10234TIP3    H152117   2.073   4.339   1.492 -2.3198 -0.3339  1.8568
10234TIP3    H252118   2.101   4.209   1.565 -2.3491 -1.5608 -0.2394
10235TIP3   OH252119   5.326   0.421  15.452 -0.1347  0.3003 -0.7472
10235TIP3    H152120   5.356   0.384  15.369  1.1194  0.3010 -0.3183
10235TIP3    H252121   5.333   0.349  15.514 -0.9833  0.3254 -0.6145
10236TIP3   OH252122   5.878   1.503  13.799  0.3199  0.8223 -0.0286
10236TIP3    H152123   5.897   1.506  13.705  0.8315  2.1972  0.0988
10236TIP3    H252124   5.784   1.524  13.804  1.0169  4.4546 -0.0628
10237TIP3   OH252125   3.461   0.472   2.180  0.0101 -0.0579 -0.0672
10237TIP3    H152126   3.449   0.563   2.208 -0.3061  0.3777 -1.5520
10237TIP3    H252127   3.423   0.468   2.093 -0.6691 -1.8218  0.2709
10238TIP3   OH252128   2.950   1.905   3.628 -0.7366 -0.0311  0.7830
10238TIP3    H152129   3.020   1.900   3.693 -1.1596  1.4787  1.3890
10238TIP3    H252130   2.869   1.895   3.678 -1.0648  1.1556  0.5251
10239TIP3   OH252131   5.696   4.770   1.938  0.6037 -0.0270 -0.6314
10239TIP3    H152132   5.645   4.705   1.891  1.1289 -0.3687 -0.7285
10239TIP3    H252133   5.662   4.767   2.028 -0.9312  1.1629 -1.1203
10240TIP3   OH252134   4.394   1.846  13.725  0.0397 -0.4557 -0.3330
10240TIP3    H152135   4.473   1.804  13.691  1.3551  0.4836  1.3973
10240TIP3    H252136   4.387   1.927  13.674  1.4711  0.4967  0.8930
10241TIP3   OH252137   1.273   5.212  15.231 -0.1243  0.7649 -0.6455
10241TIP3    H152138   1.283   5.260  15.150  1.2734 -0.7018 -1.4122
10241TIP3    H252139   1.185   5.174  15.226 -0.2109  1.0394 -1.2728
10242TIP3   OH252140   0.216   4.591   0.803  0.2198 -0.2009 -0.6557
10242TIP3    H152141   0.289   4.626   0.751  0.2797 -1.4230 -1.4129
10242TIP3    H252142   0.147   4.574   0.739 -1.3397  2.2978  0.2082
10243TIP3   OH252143   2.816   5.139   6.034 -0.0277 -0.0849 -0.4143
10243TIP3    H152144   2.742   5.078   6.047 -0.2689  0.2572 -0.1647
10243TIP3    H252145   2.810   5.199   6.108  0.8395 -0.3938 -0.0774
10244TIP3   OH252146   3.644   5.600  11.324  0.3836  0.1755 -0.1611
10244TIP3    H152147   3.676   5.511  11.313  0.1203  0.1864 -1.1265
10244TIP3    H252148   3.698   5.637  11.394  0.4499 -0.7544  0.2829
10245TIP3   OH252149   0.195   2.275  16.293  0.1825  0.1022 -0.5966
10245TIP3    H152150   0.201   2.200  16.352 -1.1405  0.3951 -0.0662
10245TIP3    H252151   0.277   2.323  16.307 -0.9023  1.2481  2.5349
10246TIP3   OH252152   3.690   4.228   2.456  0.0305  0.3152 -0.0169
10246TIP3    H152153   3.639   4.210   2.377 -1.0470  2.0699  0.2156
10246TIP3    H252154   3.775   4.186   2.441 -0.2048  0.4824 -2.0366
10247TIP3   OH252155   1.039   3.820  10.804 -0.2352  0.2131 -0.1217
10247TIP3    H152156   1.040   3.864  10.889  0.5375  0.4134 -0.2278
10247TIP3    H252157   1.064   3.887  10.741 -0.1069 -0.1087 -0.4191
10248TIP3   OH252158   3.697   5.551   6.642 -0.2024  0.1831  0.8147
10248TIP3    H152159   3.752   5.614   6.594  1.2559 -0.2482  1.8384
10248TIP3    H252160   3.760   5.496   6.688 -1.4533 -1.7990  0.2717
10249TIP3   OH252161   2.615   5.822  11.693  0.3071 -0.2885 -0.6779
10249TIP3    H152162   2.666   5.895  11.728 -0.3091 -0.9974  1.8458
10249TIP3    H252163   2.525   5.840  11.722  0.2908 -2.4946  0.7851
10250TIP3   OH252164   3.195   1.480   2.413  0.1106  0.1660  0.1951
10250TIP3    H152165   3.268   1.518   2.364  0.0089  0.4048  0.2258
10250TIP3    H252166   3.201   1.520   2.500  1.0200 -1.1623  0.7728
10251TIP3   OH252167   6.038   5.656  13.119 -0.0575  0.8889  0.0967
10251TIP3    H152168   6.132   5.654  13.138  0.1214  0.5093 -0.7897
10251TIP3    H252169   5.997   5.616  13.196  0.6640 -0.9214 -0.4244
10252TIP3   OH252170   5.081   1.387  11.956 -0.2300 -0.7303  0.2911
10252TIP3    H152171   5.174   1.408  11.965 -0.0880 -0.2393 -1.7928
10252TIP3    H252172   5.075   1.336  11.875 -1.9941  1.2303 -0.9423
10253TIP3   OH252173   5.511   4.247   1.253 -0.0214 -0.2575 -0.0113
10253TIP3    H152174   5.606   4.249   1.264  0.0692  1.1831 -0.8298
10253TIP3    H252175   5.496   4.179   1.188  0.4218 -0.7002  0.3452
10254TIP3   OH252176   5.039   0.462   6.748  0.0037 -0.2684  0.1950
10254TIP3    H152177   4.977   0.398   6.784  0.2929 -0.8177 -0.2876
10254TIP3    H252178   5.125   0.430   6.774  0.0855  0.9238  1.5794
10255TIP3   OH252179   1.270   4.765   5.620  0.2340  0.5002 -0.2062
10255TIP3    H152180   1.273   4.724   5.706  2.5061  1.1303  0.0637
10255TIP3    H252181   1.289   4.694   5.559  0.5513  0.4318 -0.0286
10256TIP3   OH252182   1.072   2.945  16.281 -0.2016  0.1852 -0.2289
10256TIP3    H152183   1.089   2.923  16.189  1.4842  1.3606 -0.2364
10256TIP3    H252184   0.999   3.006  16.278 -1.2114 -0.9881 -0.6270
10257TIP3   OH252185   6.128   0.842  11.722  0.4331 -0.1294 -0.2527
10257TIP3    H152186   6.139   0.842  11.818  0.3017  1.1998 -0.2168
10257TIP3    H252187   6.161   0.928  11.695 -0.0043 -0.3031 -1.3501
10258TIP3   OH252188   6.114   5.446   5.873  0.0837  0.4082 -0.4509
10258TIP3    H152189   6.021   5.422   5.871 -0.5120  2.2576  1.0177
10258TIP3    H252190   6.128   5.494   5.792 -0.3702  0.4935 -0.4839
10259TIP3   OH252191   0.215   2.799   3.663  0.2373 -0.2650  0.5525
10259TIP3    H152192   0.187   2.854   3.589  1.1214 -0.7520 -0.1670
10259TIP3    H252193   0.134   2.769   3.703 -0.2803 -0.5889 -0.6864
10260TIP3   OH252194   6.588   6.260   5.307  0.6814 -0.1979  0.6335
10260TIP3    H152195   6.566   6.303   5.224 -2.3118 -2.2890  0.1884
10260TIP3    H252196   6.586   6.330   5.372  2.3339  1.3537 -0.8619
10261TIP3   OH252197   0.686   0.891   4.112  0.0660 -0.0210  0.3910
10261TIP3    H152198   0.641   0.883   4.028  0.0059  2.3331  0.1477
10261TIP3    H252199   0.771   0.929   4.091  0.6760 -0.8608  1.2558
10262TIP3   OH252200   0.277   1.401  10.867 -0.4061  1.0515  0.0057
10262TIP3    H152201   0.300   1.331  10.927  2.0686  0.1262 -1.8397
10262TIP3    H252202   0.336   1.473  10.890 -0.5793  1.2858 -0.2715
10263TIP3   OH252203   2.103   3.384   1.050  0.3951  0.0727  0.3010
10263TIP3    H152204   2.092   3.292   1.072  3.8779 -0.7032 -0.5037
10263TIP3    H252205   2.102   3.387   0.954  0.8756  0.7434  0.3027
10264TIP3   OH252206   6.813   3.188   1.534 -0.0148  0.2740  0.2602
10264TIP3    H152207   6.887   3.134   1.561 -0.3992 -1.1659 -1.4092
10264TIP3    H252208   6.820   3.267   1.588  2.6907  0.1665  0.1829
10265TIP3   OH252209   0.286   3.742   0.190 -0.8218  0.2523 -0.2732
10265TIP3    H152210   0.224   3.678   0.224 -2.2551  1.7086 -0.0240
10265TIP3    H252211   0.241   3.826   0.197  1.1883  1.3968 -0.0761
10266TIP3   OH252212   5.862   0.988  15.032 -0.0001 -0.0346 -0.1720
10266TIP3    H152213   5.952   1.018  15.031 -0.2212  0.6294 -0.2965
10266TIP3    H252214   5.815   1.052  15.085 -0.5885  0.1679 -0.9207
10267TIP3   OH252215   2.444   2.323   4.404 -0.1537 -0.2605  0.1289
10267TIP3    H152216   2.437   2.381   4.328  1.7571 -1.6446 -1.2078
10267TIP3    H252217   2.531   2.341   4.439 -0.7696 -0.1146  1.6243
10268TIP3   OH252218   1.729   0.376   5.453 -0.0146 -0.3334 -0.3213
10268TIP3    H152219   1.637   0.362   5.476 -0.1693  0.7845 -0.2037
10268TIP3    H252220   1.727   0.400   5.361  0.1517 -0.1995 -0.2892
10269TIP3   OH252221   4.414   2.813   0.547 -0.5884  0.1254 -0.1288
10269TIP3    H152222   4.419   2.762   0.628  1.7299  0.5376  0.0712
10269TIP3    H252223   4.332   2.785   0.506  0.4566 -3.7223 -0.0039
10270TIP3   OH252224   6.446   5.293   5.848  0.4354  0.0072  0.0352
10270TIP3    H152225   6.396   5.212   5.841  0.2447  0.1991 -0.9079
10270TIP3    H252226   6.489   5.303   5.764 -0.0594  1.2116 -0.1025
10271TIP3   OH252227   0.442   5.744   4.122  0.0946 -0.5324  0.6102
10271TIP3    H152228   0.463   5.729   4.214  0.4926 -0.5128  0.5265
10271TIP3    H252229   0.524   5.777   4.084 -0.5511  1.2167  0.6349
10272TIP3   OH252230   2.472   3.986  13.312 -0.2325 -0.3408 -0.4790
10272TIP3    H152231   2.479   3.906  13.365  1.9915  0.7187  0.9710
10272TIP3    H252232   2.416   3.960  13.239 -1.7546 -2.4614  1.2745
10273TIP3   OH252233   1.437   0.066  14.751  0.0013  0.2182 -0.2441
10273TIP3    H152234   1.522   0.056  14.794 -0.3774 -2.2864  0.0627
10273TIP3    H252235   1.452   0.035  14.661 -0.2949  1.0718 -0.6042
10274TIP3   OH252236   4.246   0.303   4.481 -0.1113  0.5108 -0.1593
10274TIP3    H152237   4.341   0.314   4.482 -0.1095  0.4657  0.5013
10274TIP3    H252238   4.216   0.348   4.560 -0.4223 -1.3213  0.8101
10275TIP3   OH252239   3.806   0.018   3.412  0.0516 -0.2549  0.0859
10275TIP3    H152240   3.754   0.085   3.366 -2.7911  0.3723  3.7094
10275TIP3    H252241   3.758  -0.063   3.398 -0.9262 -0.0346  1.8223
10276TIP3   OH252242   0.912   2.003  11.021  0.3240 -0.3687 -0.0872
10276TIP3    H152243   0.869   2.054  10.952  1.2213  2.2560  1.1847
10276TIP3    H252244   0.840   1.978  11.080 -0.4342 -2.5435 -1.7553
10277TIP3   OH252245   4.951   3.417   3.972  0.1862 -0.3051 -0.0990
10277TIP3    H152246   4.877   3.464   4.010 -0.2366 -0.2594 -0.9458
10277TIP3    H252247   4.911   3.356   3.911  0.8912  0.7521 -1.6985
10278TIP3   OH252248   3.620   1.032  15.211  0.4741  0.1368 -0.4143
10278TIP3    H152249   3.715   1.039  15.220  0.4279  0.4564 -0.1723
10278TIP3    H252250   3.585   1.084  15.283  0.1164 -0.4201 -0.1768
10279TIP3   OH252251   5.312   1.594  12.852 -0.4157  0.5867  0.5587
10279TIP3    H152252   5.303   1.498  12.855 -0.6144  0.6218  2.5329
10279TIP3    H252253   5.222   1.626  12.851 -0.3574  0.7491  0.5625
10280TIP3   OH252254   1.023   0.592  12.959 -0.0127  0.2350  0.3518
10280TIP3    H152255   1.042   0.502  12.988  0.6863  0.6409  1.1877
10280TIP3    H252256   1.089   0.609  12.891  2.4860  1.4591  2.8958
10281TIP3   OH252257   1.767   1.927  16.373  0.0471 -0.1455  0.0611
10281TIP3    H152258   1.696   1.871  16.404 -0.1521 -0.4381 -0.9127
10281TIP3    H252259   1.772   1.911  16.279  0.2586  1.1753 -0.1714
10282TIP3   OH252260   0.762   2.791   0.369 -0.2882 -0.4249 -1.0801
10282TIP3    H152261   0.757   2.885   0.353 -0.2105 -0.3930 -0.9241
10282TIP3    H252262   0.684   2.755   0.327 -0.7479 -0.1905 -0.4371
10283TIP3   OH252263   2.398   5.324   5.722 -0.7613  0.1475  0.3336
10283TIP3    H152264   2.433   5.240   5.752  1.1016  0.5785 -0.5287
10283TIP3    H252265   2.445   5.390   5.773 -1.7488  0.7236  0.5428
10284TIP3   OH252266   5.316   0.018   4.798 -0.0484  0.5412  0.3134
10284TIP3    H152267   5.258   0.064   4.738  0.1692 -0.4502 -0.6921
10284TIP3    H252268   5.380   0.083   4.825  0.6505  0.7047 -1.5820
10285TIP3   OH252269   1.053   5.480  11.046  0.4158  0.3230  0.4623
10285TIP3    H152270   1.143   5.476  11.077  0.7031  0.8479 -0.2955
10285TIP3    H252271   1.059   5.483  10.951 -0.4983 -2.2061  0.2401
10286TIP3   OH252272   1.329   0.426   3.325 -0.0207  0.6198 -0.5040
10286TIP3    H152273   1.250   0.428   3.271 -0.6867 -1.5197  0.2565
10286TIP3    H252274   1.334   0.335   3.356  3.2168  0.4418 -1.1842
10287TIP3   OH252275   6.628   2.242   1.274 -0.1614  0.1010 -0.1792
10287TIP3    H152276   6.544   2.210   1.306  0.0076 -0.6989 -0.5053
10287TIP3    H252277   6.633   2.332   1.305 -0.8082 -0.0780  0.4697
10288TIP3   OH252278   5.044   0.871   3.077  0.3094  0.1734  0.0935
10288TIP3    H152279   4.996   0.833   3.004  1.9564  0.4540 -1.1944
10288TIP3    H252280   5.008   0.829   3.155 -1.2743 -0.3575 -0.8989
10289TIP3   OH252281   6.766   1.224  14.350  0.9096  0.5889 -0.3849
10289TIP3    H152282   6.728   1.144  14.314  2.0786  0.2853 -0.9917
10289TIP3    H252283   6.692   1.270  14.390  0.1927 -0.6939 -0.2020
10290TIP3   OH252284   0.179   0.481   5.578 -0.2255 -0.1130 -0.3775
10290TIP3    H152285   0.102   0.519   5.619 -0.6650  0.9129 -2.0448
10290TIP3    H252286   0.253   0.521   5.624 -0.6984  0.2830  0.0435
10291TIP3   OH252287   2.026   6.128  15.337  0.5682  0.3484 -0.2143
10291TIP3    H152288   2.093   6.142  15.271  1.0874 -0.6529  0.0842
10291TIP3    H252289   1.996   6.216  15.360 -1.4157  0.7210 -3.5441
10292TIP3   OH252290   3.953   0.512  11.993  0.3977  0.0410 -0.0050
10292TIP3    H152291   4.001   0.429  11.986 -0.9441 -0.7107 -0.5464
10292TIP3    H252292   3.954   0.547  11.905  0.1729  0.1464  0.0350
10293TIP3   OH252293   6.095   6.522  11.111 -0.1064 -0.0546 -0.3501
10293TIP3    H152294   6.014   6.497  11.066 -1.0613 -0.5997  1.5583
10293TIP3    H252295   6.086   6.615  11.128  1.5649  0.8902 -3.6971
10294TIP3   OH252296   0.353   3.612   1.431 -0.1880 -0.4263  0.0348
10294TIP3    H152297   0.296   3.669   1.380  2.6668  0.4614 -2.4798
10294TIP3    H252298   0.373   3.662   1.510 -1.9459 -0.3213  0.4522
10295TIP3   OH252299   4.886   6.035   4.293  0.3174  0.5326 -0.3500
10295TIP3    H152300   4.840   6.056   4.375 -0.1868 -2.0376  0.1160
10295TIP3    H252301   4.974   6.072   4.305  0.5445 -0.5268  1.7930
10296TIP3   OH252302   6.663   6.460   5.507 -0.7979 -0.5870 -0.2191
10296TIP3    H152303   6.724   6.528   5.534  2.1169 -2.4976 -1.5568
10296TIP3    H252304   6.646   6.409   5.586  2.0891 -1.9803 -0.3886
10297TIP3   OH252305   0.755   4.989   1.523  0.5087  0.2640 -0.1019
10297TIP3    H152306   0.695   4.938   1.577  0.4780 -0.3164 -0.6817
10297TIP3    H252307   0.841   4.951   1.542  0.3676 -0.7521 -1.3438
10298TIP3   OH252308   3.047   3.583   0.989  0.1646 -0.5856  0.0153
10298TIP3    H152309   2.992   3.516   0.948  1.2730 -1.0371 -0.7525
10298TIP3    H252310   3.123   3.591   0.932  0.4305  0.7734  0.5174
10299TIP3   OH252311   0.267   6.326  13.651 -0.0109  0.3599  0.1937
10299TIP3    H152312   0.319   6.394  13.695 -2.8334  2.4326  0.5316
10299TIP3    H252313   0.218   6.372  13.584 -0.4296 -1.7522 -1.0306
10300TIP3   OH252314   6.270   4.073  11.210  0.2974  0.1447 -0.3650
10300TIP3    H152315   6.190   4.088  11.260 -0.2849 -0.3569 -1.1239
10300TIP3    H252316   6.248   4.097  11.120  0.9973 -0.0073 -0.5886
10301TIP3   OH252317   0.112   1.496  13.508 -0.4976 -0.2757 -0.3796
10301TIP3    H152318   0.171   1.495  13.583 -1.6087 -2.0292  0.5420
10301TIP3    H252319   0.169   1.481  13.433  0.1879 -3.1754  0.5899
10302TIP3   OH252320   5.839   2.879  15.932 -0.0625  0.7245  0.0076
10302TIP3    H152321   5.756   2.926  15.938 -1.4477 -1.5123 -0.5622
10302TIP3    H252322   5.832   2.826  15.853  1.4195 -0.4434  0.6055
10303TIP3   OH252323   5.884   4.623  16.699  0.2305  0.1249 -0.2716
10303TIP3    H152324   5.968   4.604  16.657  1.5245  1.3235  1.6203
10303TIP3    H252325   5.850   4.537  16.724  1.8217 -0.3005  0.5915
10304TIP3   OH252326   4.460   2.654  12.525 -0.4640  0.5264  0.3576
10304TIP3    H152327   4.366   2.658  12.542 -0.1064  0.6703  2.5328
10304TIP3    H252328   4.486   2.565  12.547 -0.0288  0.5979  0.1571
10305TIP3   OH252329   6.579   2.984  11.362 -0.0601 -0.4103 -0.6800
10305TIP3    H152330   6.659   2.934  11.347 -0.9620 -1.8154 -0.9507
10305TIP3    H252331   6.518   2.952  11.295 -0.8947  0.5617 -0.4099
10306TIP3   OH252332   1.318   3.643   4.753 -0.3579  0.0443  0.2085
10306TIP3    H152333   1.399   3.617   4.797  0.0331  1.3383  0.2844
10306TIP3    H252334   1.346   3.670   4.666 -0.8126 -0.2217 -0.0204
10307TIP3   OH252335   1.261   0.777  14.439  0.1092 -0.4022  0.3534
10307TIP3    H152336   1.216   0.710  14.388 -1.8798  1.6807 -0.8233
10307TIP3    H252337   1.219   0.774  14.525  0.1222 -0.7292  0.3510
10308TIP3   OH252338   5.834   4.380  11.047  0.1954 -0.3145 -0.1716
10308TIP3    H152339   5.758   4.327  11.020 -0.3693  1.2639 -1.8617
10308TIP3    H252340   5.797   4.445  11.108  0.4711 -0.4487  0.1413
10309TIP3   OH252341   2.859   5.385  12.287 -0.6887  0.1173 -0.0644
10309TIP3    H152342   2.791   5.318  12.285 -0.9585  0.3976 -0.9916
10309TIP3    H252343   2.935   5.344  12.245 -1.1304  0.6521 -1.4454
10310TIP3   OH252344   3.155   6.565   0.067  0.5093 -0.6882  0.2562
10310TIP3    H152345   3.181   6.648   0.105  0.8938 -0.5113 -0.3749
10310TIP3    H252346   3.126   6.512   0.141  1.1934 -0.3415  0.7762
10311TIP3   OH252347   2.629   4.515  13.103 -0.5746 -0.3329  0.3640
10311TIP3    H152348   2.623   4.525  13.008 -0.0969  1.3213  0.4755
10311TIP3    H252349   2.637   4.604  13.136  1.9660 -0.9604  1.7459
10312TIP3   OH252350   0.727   3.813  13.200 -0.1513 -0.1581 -0.6744
10312TIP3    H152351   0.811   3.799  13.156  0.0806  0.6530 -0.5209
10312TIP3    H252352   0.695   3.725  13.220  1.7690 -0.5104  1.3071
10313TIP3   OH252353   3.961   3.402   0.380  0.0216 -0.3933  0.2761
10313TIP3    H152354   3.973   3.496   0.390  0.2207 -0.0455 -2.3996
10313TIP3    H252355   4.049   3.365   0.390  0.3182 -0.0122 -0.7718
10314TIP3   OH252356   5.902   6.451  12.992  0.0836 -0.3979 -0.3395
10314TIP3    H152357   5.972   6.415  13.047  0.9567  1.2043 -0.3305
10314TIP3    H252358   5.828   6.461  13.051  0.1798 -1.1343 -0.0904
10315TIP3   OH252359   4.000   3.129  15.695 -0.1018  0.0384  0.2770
10315TIP3    H152360   3.991   3.159  15.786  1.2844  0.0522  0.4258
10315TIP3    H252361   3.960   3.199  15.644  2.5824  2.0207  0.6586
10316TIP3   OH252362   5.615   1.673   0.444  0.1361  0.2670  0.1299
10316TIP3    H152363   5.676   1.623   0.391 -0.9215 -1.0512  0.0973
10316TIP3    H252364   5.530   1.631   0.429 -0.7926  2.0484  0.1543
10317TIP3   OH252365   3.301   3.329  11.332  0.5133  0.4389  0.3765
10317TIP3    H152366   3.324   3.238  11.352  1.3985  0.4627 -0.4578
10317TIP3    H252367   3.233   3.323  11.264  1.4991  0.3864 -0.6364
10318TIP3   OH252368   3.196   3.501  14.690 -0.1504  0.2015  0.0777
10318TIP3    H152369   3.240   3.555  14.757  1.3378  0.2214 -0.8603
10318TIP3    H252370   3.206   3.411  14.722  2.3607  0.0122 -1.0095
10319TIP3   OH252371   0.281   3.772  13.499  0.0807 -0.6536 -0.1048
10319TIP3    H152372   0.254   3.692  13.544 -1.9376  0.5717  1.0598
10319TIP3    H252373   0.216   3.783  13.430  0.0485  0.1858  0.0431
10320TIP3   OH252374   2.795   6.023  11.732  0.3111 -0.6587  0.8693
10320TIP3    H152375   2.870   5.968  11.754  0.5131 -1.0045 -0.6058
10320TIP3    H252376   2.828   6.083  11.666 -0.0201  1.0053  2.1397
10321TIP3   OH252377   2.581   6.541   3.149 -0.1148  0.7639  0.0713
10321TIP3    H152378   2.647   6.536   3.079  1.8390  0.5484  1.8185
10321TIP3    H252379   2.592   6.458   3.196 -2.3178  0.3269 -0.1012
10322TIP3   OH252380   5.914   2.431  16.534 -0.1026 -0.1296 -0.4508
10322TIP3    H152381   5.879   2.412  16.621 -0.5808 -0.3409 -0.6813
10322TIP3    H252382   5.911   2.526  16.526 -3.2691 -0.1820 -1.4802
10323TIP3   OH252383   3.450   4.301  12.367 -0.0933  0.2523  0.4361
10323TIP3    H152384   3.382   4.234  12.355 -0.0437  0.6752 -3.3480
10323TIP3    H252385   3.530   4.252  12.383 -0.6651 -0.3953  1.4105
10324TIP3   OH252386   1.549   1.817  13.512  0.0648  0.1893  0.2898
10324TIP3    H152387   1.488   1.757  13.555  1.2001 -0.3027  1.2857
10324TIP3    H252388   1.602   1.852  13.583  2.6999 -1.4210 -0.7416
10325TIP3   OH252389   5.949   1.925  16.579  0.7216 -0.2875 -0.3612
10325TIP3    H152390   6.037   1.935  16.543  1.1325 -1.2271  0.3150
10325TIP3    H252391   5.919   2.014  16.597  0.8143  0.1456 -2.2276
10326TIP3   OH252392   2.806   2.431  14.174  0.2322 -0.5156 -0.5513
10326TIP3    H152393   2.758   2.468  14.249 -0.4610 -0.0254 -1.2167
10326TIP3    H252394   2.885   2.484  14.169 -0.5463  0.6344 -1.2252
10327TIP3   OH252395   3.142   3.251   2.987  0.3229 -0.1204 -0.6542
10327TIP3    H152396   3.073   3.193   3.018 -0.2934 -0.1456 -1.9997
10327TIP3    H252397   3.100   3.337   2.983  0.7207  0.0892 -0.3340
10328TIP3   OH252398   6.340   4.803   1.915 -0.3864  0.1550  0.7538
10328TIP3    H152399   6.431   4.830   1.919 -0.1056 -0.5763 -0.3045
10328TIP3    H252400   6.322   4.764   2.001 -0.5447  2.7789  2.0049
10329TIP3   OH252401   4.109   2.059  13.994 -0.1609  0.3107  0.5194
10329TIP3    H152402   4.080   2.101  13.912 -1.2852 -1.5823 -0.1286
10329TIP3    H252403   4.031   2.015  14.027  0.5777  0.0550  2.0014
10330TIP3   OH252404   4.822   3.901  13.986  0.8053  0.1432 -0.1361
10330TIP3    H152405   4.809   3.928  13.895 -1.3888  0.1820  0.1331
10330TIP3    H252406   4.799   3.808  13.987  0.3773  0.2447  0.4378
10331TIP3   OH252407   0.343   1.503   6.098 -0.4446 -0.2253  0.0757
10331TIP3    H152408   0.421   1.554   6.075 -1.7001  2.2392  0.9710
10331TIP3    H252409   0.286   1.511   6.022 -1.1339  0.7433  0.6825
10332TIP3   OH252410   5.659   1.173   5.332  0.0993 -0.3147 -0.3427
10332TIP3    H152411   5.637   1.081   5.342  0.0554 -0.3582 -0.7944
10332TIP3    H252412   5.752   1.173   5.310  0.2743 -0.2045  0.3857
10333TIP3   OH252413   0.150   2.286   3.106 -0.6989  0.1796  0.3741
10333TIP3    H152414   0.205   2.278   3.183 -1.8591  1.9578  1.4805
10333TIP3    H252415   0.200   2.246   3.035  0.7707 -0.7245  1.8705
10334TIP3   OH252416   2.874   6.118  11.032  0.1099  0.5547 -0.2374
10334TIP3    H152417   2.910   6.203  11.056 -0.6322  0.7814  0.1118
10334TIP3    H252418   2.796   6.108  11.088 -0.2960  0.0254 -0.8791
10335TIP3   OH252419   6.215   6.249   5.072 -0.2055 -0.5120 -0.2156
10335TIP3    H152420   6.171   6.317   5.124 -0.5345 -0.1957 -0.9016
10335TIP3    H252421   6.203   6.276   4.981 -0.4873 -1.5788 -0.5078
10336TIP3   OH252422   3.953   0.473  16.042  0.3871  0.6486  0.2955
10336TIP3    H152423   3.940   0.425  16.124 -0.6982 -0.0388 -0.2564
10336TIP3    H252424   3.998   0.553  16.068  0.7320  0.1026  1.4632
10337TIP3   OH252425   0.699   1.863   1.198  0.0273  0.0688 -0.4080
10337TIP3    H152426   0.612   1.851   1.236  0.7130 -1.3555  0.8259
10337TIP3    H252427   0.706   1.957   1.183 -0.8350  0.5214  1.6854
10338TIP3   OH252428   1.069   2.396  15.506  0.4714 -0.3100  0.2322
10338TIP3    H152429   1.012   2.434  15.573 -0.5162  0.2326 -0.8659
10338TIP3    H252430   1.123   2.469  15.476 -0.6754  0.0208 -1.1238
10339TIP3   OH252431   4.992   3.152  12.846  0.7186  0.7519 -0.5694
10339TIP3    H152432   5.048   3.224  12.876 -0.4164  1.5238 -0.2120
10339TIP3    H252433   4.905   3.177  12.876  0.6025 -1.9098  1.6328
10340TIP3   OH252434   0.062   0.936   2.419  0.2216 -0.4536 -0.1992
10340TIP3    H152435   0.157   0.922   2.427 -0.0269 -1.7053  0.8726
10340TIP3    H252436   0.030   0.859   2.372 -0.0803  0.7546 -2.0658
10341TIP3   OH252437   2.133   3.447   5.501 -0.6626 -0.3148  0.4923
10341TIP3    H152438   2.072   3.426   5.572 -1.5610  0.1799 -0.1073
10341TIP3    H252439   2.220   3.433   5.538 -1.1459 -1.6178  1.1976
10342TIP3   OH252440   1.149   0.181   6.105  0.6242  0.1715  0.0597
10342TIP3    H152441   1.183   0.092   6.096  0.4750  0.2007 -0.9567
10342TIP3    H252442   1.055   0.170   6.119  0.7237  0.1539  0.7531
10343TIP3   OH252443   5.776   0.466   0.593 -0.0115  0.4834  0.8344
10343TIP3    H152444   5.684   0.454   0.618 -0.0575 -0.6929  0.1744
10343TIP3    H252445   5.773   0.519   0.513 -0.1747 -0.2033  0.3759
10344TIP3   OH252446   2.548   0.277   1.418  0.0618  0.1276  0.5032
10344TIP3    H152447   2.462   0.317   1.433  0.8286  1.3453  1.8571
10344TIP3    H252448   2.609   0.333   1.465  2.0274  0.9601 -2.7262
10345TIP3   OH252449   2.150   1.229  14.888 -0.4090 -0.1608  0.3444
10345TIP3    H152450   2.076   1.200  14.941 -0.9616  0.2991 -0.1610
10345TIP3    H252451   2.151   1.324  14.898 -0.9707  0.0099 -1.0261
10346TIP3   OH252452   2.309   2.971  15.938 -0.2417 -0.4571  0.9528
10346TIP3    H152453   2.240   2.995  16.000 -1.2249 -2.2072  0.6119
10346TIP3    H252454   2.269   2.903  15.883  1.9098 -1.9336  1.0840
10347TIP3   OH252455   1.101   3.273  16.519 -0.1151 -0.6051 -0.5071
10347TIP3    H152456   1.118   3.239  16.431 -0.9759 -1.3806 -0.3917
10347TIP3    H252457   1.140   3.208  16.578  0.6257  0.0067 -0.3083
10348TIP3   OH252458   1.147   4.180  11.430  0.4307  0.0204 -0.1155
10348TIP3    H152459   1.142   4.147  11.340 -2.2850 -0.4975  0.1305
10348TIP3    H252460   1.162   4.274  11.421 -2.8554  0.5733 -1.3646
10349TIP3   OH252461   0.567   5.457   5.090 -0.6023  0.4372 -0.1001
10349TIP3    H152462   0.624   5.441   5.015  1.9509  0.8816  1.6236
10349TIP3    H252463   0.588   5.387   5.152 -2.5304  0.1605  0.3024
10350TIP3   OH252464   5.683   4.836  13.817  0.3014 -0.7284 -0.1607
10350TIP3    H152465   5.627   4.786  13.877 -0.7746 -0.6711 -1.0744
10350TIP3    H252466   5.626   4.855  13.743  1.7522 -1.3195 -1.4814
10351TIP3   OH252467   5.321   0.415  12.489  0.3199 -0.0230  0.2403
10351TIP3    H152468   5.356   0.392  12.403  0.5256  0.5862  0.1555
10351TIP3    H252469   5.350   0.344  12.547  0.1795 -0.4347 -0.1892
10352TIP3   OH252470   5.170   3.066   5.193  0.2574  0.3900  0.3579
10352TIP3    H152471   5.200   3.011   5.265  1.4637  0.7775  0.1814
10352TIP3    H252472   5.114   3.132   5.234  0.0739 -0.0246  0.7806
10353TIP3   OH252473   4.698   2.342   0.776  0.2999  0.1897  0.5450
10353TIP3    H152474   4.716   2.326   0.868  0.2566 -2.0907  0.2150
10353TIP3    H252475   4.603   2.334   0.768  0.3434 -0.0766  0.2430
10354TIP3   OH252476   4.795   4.569   3.942  0.0392 -0.0466  0.0314
10354TIP3    H152477   4.809   4.616   4.025  0.5595 -1.6431  0.8941
10354TIP3    H252478   4.702   4.549   3.942 -0.3159  1.4454 -0.6354
10355TIP3   OH252479   3.615   1.329   0.471 -0.1143  0.3613  0.4510
10355TIP3    H152480   3.673   1.306   0.544 -1.8759  0.9408  2.1105
10355TIP3    H252481   3.555   1.395   0.507 -1.9111 -0.3129 -1.1190
10356TIP3   OH252482   1.601   3.702  16.709 -0.5477 -0.1479  0.5244
10356TIP3    H152483   1.611   3.749  16.626 -0.4408 -1.9279 -0.5033
10356TIP3    H252484   1.517   3.733  16.743 -0.1282  1.3514  0.2813
10357TIP3   OH252485   6.375   4.305   6.064 -0.0855 -0.0349  0.2922
10357TIP3    H152486   6.415   4.268   6.142  0.7795 -0.0912 -0.1656
10357TIP3    H252487   6.294   4.345   6.095  0.4344  0.2797  1.2746
10358TIP3   OH252488   1.352   4.360  11.109 -0.0853 -0.3352 -0.6994
10358TIP3    H152489   1.323   4.411  11.033 -1.9779  1.6250  1.1721
10358TIP3    H252490   1.372   4.426  11.175 -0.3220 -1.9796  1.1079
10359TIP3   OH252491   2.998   1.803  13.999  0.1233 -0.1346 -0.0039
10359TIP3    H152492   2.912   1.764  14.009  0.5728 -0.7745  1.7620
10359TIP3    H252493   2.983   1.897  14.013 -0.2141 -0.3111  0.8771
10360TIP3   OH252494   2.615   2.293  10.670  0.0543  0.3332  0.3740
10360TIP3    H152495   2.569   2.348  10.606 -0.6301 -0.0976  0.4881
10360TIP3    H252496   2.647   2.354  10.736  0.3554  0.7294 -0.1323
10361TIP3   OH252497   0.398   6.252   5.723  0.0578 -0.2302 -0.1186
10361TIP3    H152498   0.347   6.176   5.749  0.5286 -1.2323 -1.9745
10361TIP3    H252499   0.335   6.325   5.727 -0.8480 -0.9959  0.0156
10362TIP3   OH252500   1.086   3.034  10.557 -0.0180  0.5235 -0.4463
10362TIP3    H152501   1.132   3.057  10.638 -0.6756  1.1929 -0.2427
10362TIP3    H252502   0.999   3.007  10.587  0.3220 -0.9932 -0.7972
10363TIP3   OH252503   1.721   3.512  15.436 -0.6284 -0.0272  0.2527
10363TIP3    H152504   1.809   3.549  15.422 -0.0823 -0.0409  3.1089
10363TIP3    H252505   1.662   3.585  15.416 -0.0289  0.0527 -1.4820
10364TIP3   OH252506   0.742   3.160   5.049  0.0524 -0.3970  0.2170
10364TIP3    H152507   0.792   3.193   4.974 -0.2455 -0.1592  0.1208
10364TIP3    H252508   0.668   3.114   5.009 -1.7413  2.2166  0.3438
10365TIP3   OH252509   2.495   0.581   1.413  0.5578  0.0302  0.2645
10365TIP3    H152510   2.580   0.624   1.411 -0.1063  1.4718  1.0390
10365TIP3    H252511   2.477   0.566   1.506  0.0809 -0.5165  0.0960
10366TIP3   OH252512   3.825   2.614  14.677 -0.2331 -0.3298 -0.0262
10366TIP3    H152513   3.839   2.558  14.601  0.7988  0.5548 -0.5277
10366TIP3    H252514   3.856   2.563  14.751  0.8854 -0.3782 -0.4986
10367TIP3   OH252515   2.319   4.927  11.932  0.4320  0.0460 -0.3536
10367TIP3    H152516   2.253   4.860  11.950  0.7801  0.1439  1.5107
10367TIP3    H252517   2.288   5.004  11.979  0.5042  0.9529 -1.7184
10368TIP3   OH252518   4.368   3.016   5.433  0.1569  0.0062 -0.0580
10368TIP3    H152519   4.428   2.986   5.501 -0.2538 -0.9776 -0.1148
10368TIP3    H252520   4.424   3.036   5.358  0.5339  0.3390  0.3077
10369TIP3   OH252521   2.008   0.167   2.929  0.0235  0.3158  0.2026
10369TIP3    H152522   1.988   0.094   2.989  0.1870 -0.2802 -0.4482
10369TIP3    H252523   2.099   0.151   2.903  0.7084  1.8318  1.5200
10370TIP3   OH252524   4.825   5.069  10.518  0.3024  0.3843  0.7602
10370TIP3    H152525   4.822   5.014  10.440  0.4056  0.9631  0.3411
10370TIP3    H252526   4.799   5.156  10.487 -2.2664  0.0959  1.8569
10371TIP3   OH252527   0.599   5.629   0.297 -0.2443 -0.0095  0.1166
10371TIP3    H152528   0.675   5.643   0.242  0.0010  1.1533  0.7267
10371TIP3    H252529   0.584   5.713   0.340 -3.0057  0.3924 -1.3922
10372TIP3   OH252530   6.729   0.722   0.821 -0.2024  0.0132 -0.1053
10372TIP3    H152531   6.798   0.749   0.881 -0.0754  1.7670 -0.9754
10372TIP3    H252532   6.729   0.626   0.826  2.0013 -0.0222  0.2472
10373TIP3   OH252533   4.749   3.517   1.929  0.0535 -0.4303  0.1411
10373TIP3    H152534   4.830   3.524   1.878  0.2558 -2.4799  0.1231
10373TIP3    H252535   4.688   3.576   1.885  1.0488 -0.0928 -0.8246
10374TIP3   OH252536   4.312   4.328   4.734  0.5456  0.3564  0.3276
10374TIP3    H152537   4.376   4.258   4.741 -1.1846 -1.3907 -0.5181
10374TIP3    H252538   4.334   4.388   4.806  2.1844 -0.9411  0.9639
10375TIP3   OH252539   0.254   6.584  11.187  0.3289 -0.5267 -0.3541
10375TIP3    H152540   0.259   6.500  11.142 -0.3946  0.0577 -1.5583
10375TIP3    H252541   0.342   6.597  11.223  0.5560 -1.6048 -0.5054
10376TIP3   OH252542   2.678   6.196   0.116 -0.0424  0.4720 -0.6782
10376TIP3    H152543   2.718   6.260   0.058  0.2590  0.5145 -0.4294
10376TIP3    H252544   2.598   6.237   0.147 -0.8988 -0.0744 -2.0983
10377TIP3   OH252545   1.510   5.053   5.785 -0.2298  0.1779 -0.7314
10377TIP3    H152546   1.507   4.969   5.830  0.8093 -0.1655 -1.2648
10377TIP3    H252547   1.521   5.030   5.693  1.4485  0.8705 -0.7494
10378TIP3   OH252548   4.900   1.876   4.021 -0.2380 -0.0146  0.1536
10378TIP3    H152549   4.929   1.848   3.934 -0.9335  0.2336 -0.1624
10378TIP3    H252550   4.968   1.843   4.080  0.3689  0.0228 -0.5040
10379TIP3   OH252551   0.654   1.653  11.325 -0.7887  0.9040 -0.2225
10379TIP3    H152552   0.724   1.591  11.304 -1.6766  0.6317 -2.7362
10379TIP3    H252553   0.614   1.618  11.404  0.1630 -0.4567 -0.3005
10380TIP3   OH252554   6.124   6.037  16.471  0.3447  0.0397 -0.2208
10380TIP3    H152555   6.039   6.042  16.428  0.1151 -0.1801  0.2036
10380TIP3    H252556   6.128   5.949  16.508  1.1011 -0.2456 -0.9366
10381TIP3   OH252557   0.981   1.517   1.684  0.7220  0.6297 -0.4379
10381TIP3    H152558   1.062   1.527   1.634  0.1018  1.8242 -1.2147
10381TIP3    H252559   0.912   1.548   1.626 -0.2659  0.0238  0.3772
10382TIP3   OH252560   2.338   6.433   3.444  0.3138 -0.2798  0.0579
10382TIP3    H152561   2.318   6.357   3.499  1.1113 -0.6969 -0.2101
10382TIP3    H252562   2.307   6.408   3.357  0.1121 -0.0849  0.0720
10383TIP3   OH252563   6.203   1.833  15.258 -0.3394  0.5924  0.7639
10383TIP3    H152564   6.239   1.920  15.238 -1.9600  1.2892  0.6824
10383TIP3    H252565   6.109   1.843  15.245 -0.4035 -1.7225 -1.2099
10384TIP3   OH252566   0.790   6.718   0.106  0.0518 -0.6975 -0.1222
10384TIP3    H152567   0.714   6.754   0.152  0.7491  0.3771  0.2152
10384TIP3    H252568   0.836   6.794   0.072 -1.2293 -1.4443 -4.0442
10385TIP3   OH252569   4.537   6.214  12.291 -0.4000 -0.5678  0.0262
10385TIP3    H152570   4.527   6.206  12.196  2.4150 -0.2696 -0.3905
10385TIP3    H252571   4.576   6.131  12.318  1.1069  0.2395  0.4723
10386TIP3   OH252572   4.049   3.698  10.872  0.2926 -0.0981  0.2219
10386TIP3    H152573   4.038   3.785  10.910  0.1120  0.3111 -0.7179
10386TIP3    H252574   4.081   3.715  10.783  2.0426 -1.0487  0.6254
10387TIP3   OH252575   3.831   3.255  13.802 -0.1664 -0.2362 -0.2978
10387TIP3    H152576   3.771   3.326  13.826  1.5040  0.7845  1.0012
10387TIP3    H252577   3.891   3.295  13.738  1.1822 -0.2478  0.9189
10388TIP3   OH252578   2.777   0.074   4.582  0.1450 -0.0247 -1.1769
10388TIP3    H152579   2.712   0.023   4.533 -0.8536  0.6561 -0.6088
10388TIP3    H252580   2.727   0.147   4.618  1.5107  1.3198 -1.8858
10389TIP3   OH252581   3.308   3.697  13.876 -0.3300  0.0184 -0.4092
10389TIP3    H152582   3.351   3.612  13.869 -2.0628 -0.7323 -4.0232
10389TIP3    H252583   3.238   3.683  13.941 -0.9706 -1.5361 -1.3803
10390TIP3   OH252584   0.722   6.577   0.535 -1.2012 -0.0738 -0.3286
10390TIP3    H152585   0.756   6.495   0.500 -1.8858 -0.1741 -0.7783
10390TIP3    H252586   0.784   6.601   0.604 -0.7441 -0.7280 -0.4996
10391TIP3   OH252587   5.268   3.154  12.843  0.1813  0.3382  0.0159
10391TIP3    H152588   5.203   3.084  12.835  0.2413  0.4051 -1.2880
10391TIP3    H252589   5.265   3.179  12.935 -4.3324  2.8701 -0.5365
10392TIP3   OH252590   1.658   4.614   0.458  0.2516  0.5818 -0.1896
10392TIP3    H152591   1.722   4.630   0.527 -0.4259  1.8632  0.1891
10392TIP3    H252592   1.656   4.519   0.448  2.1694  0.5200 -0.2002
10393TIP3   OH252593   2.505   2.441  16.214  0.2247  0.3727 -0.4620
10393TIP3    H152594   2.560   2.388  16.271 -0.2478  0.9579  0.5576
10393TIP3    H252595   2.463   2.377  16.156 -0.0935 -0.3625  0.5403
10394TIP3   OH252596   6.527   6.390  14.345 -0.3217 -0.4401 -0.1793
10394TIP3    H152597   6.612   6.422  14.314 -0.6488 -0.9000 -1.6330
10394TIP3    H252598   6.465   6.457  14.316 -0.4438  0.0373  1.1289
10395TIP3   OH252599   4.013   3.056   6.402 -0.3670 -0.3279  0.6985
10395TIP3    H152600   4.092   3.093   6.362 -2.7392  1.5617 -2.7691
10395TIP3    H252601   3.993   2.979   6.349 -2.2553  0.8174 -0.3732
10396TIP3   OH252602   5.714   5.860   5.489  0.0659  0.6318  0.0609
10396TIP3    H152603   5.776   5.826   5.424 -0.6896 -0.3744 -0.1616
10396TIP3    H252604   5.764   5.864   5.570  0.4733  0.0202 -0.1545
10397TIP3   OH252605   4.452   1.274  13.610 -0.3018  0.2159  0.4033
10397TIP3    H152606   4.397   1.308  13.680 -0.2236  1.4008 -0.0875
10397TIP3    H252607   4.424   1.183  13.599 -1.4121  0.4910  0.8791
10398TIP3   OH252608   0.709   3.161  11.497  0.0646 -0.0409 -0.7132
10398TIP3    H152609   0.679   3.245  11.463  0.6096  0.1268 -0.7890
10398TIP3    H252610   0.805   3.166  11.494  0.1035 -0.8596 -1.2032
10399TIP3   OH252611   1.434   2.203   3.387  0.3982 -0.2939 -0.1172
10399TIP3    H152612   1.379   2.160   3.321  1.8417  0.4299 -1.8956
10399TIP3    H252613   1.504   2.140   3.405  0.8167  0.0713 -0.4195
10400TIP3   OH252614   5.024   6.126   2.286 -0.0033  0.3412 -0.1252
10400TIP3    H152615   5.117   6.109   2.275 -0.0257 -1.1583  1.6829
10400TIP3    H252616   5.002   6.186   2.214  2.3451  0.7953 -0.5296
10401TIP3   OH252617   2.950   2.742  11.021 -0.5441  0.0496 -0.7095
10401TIP3    H152618   2.865   2.759  10.982 -1.2011 -0.9117  0.2461
10401TIP3    H252619   2.990   2.676  10.965 -1.4716 -1.3090  0.1736
10402TIP3   OH252620   2.426   6.418  11.389  0.6813  0.1517  0.2580
10402TIP3    H152621   2.446   6.504  11.352 -1.6270  0.7828  0.3134
10402TIP3    H252622   2.425   6.359  11.314  1.0499  0.4144  0.0430
10403TIP3   OH252623   3.514   5.859  12.986 -0.0910 -0.8756  0.3733
10403TIP3    H152624   3.480   5.946  13.010 -0.1729 -0.6345 -0.6002
10403TIP3    H252625   3.475   5.800  13.051 -0.5410 -0.2780  0.6596
10404TIP3   OH252626   3.524   5.141  14.153  0.0392 -0.0733  0.0646
10404TIP3    H152627   3.596   5.175  14.100 -0.5185  1.9611  0.5308
10404TIP3    H252628   3.565   5.074  14.208  1.1124 -0.4840 -1.1538
10405TIP3   OH252629   4.304   3.701  13.958 -0.4293  0.0947 -0.0215
10405TIP3    H152630   4.212   3.707  13.933 -0.0654 -1.5235 -1.9864
10405TIP3    H252631   4.341   3.635  13.899  2.3511  1.7770 -0.3386
10406TIP3   OH252632   2.648   1.042   0.427 -0.2156  0.7918 -0.6981
10406TIP3    H152633   2.690   0.958   0.408  0.4416  0.4306  2.0139
10406TIP3    H252634   2.558   1.020   0.449 -0.0310  0.7739  0.0611
10407TIP3   OH252635   2.369   2.453   4.825  0.2547  0.0767 -0.1298
10407TIP3    H152636   2.374   2.416   4.913 -1.2917 -0.6263 -0.3151
10407TIP3    H252637   2.396   2.544   4.836 -2.2810  0.7327  1.5675
10408TIP3   OH252638   3.014   0.400   2.521 -0.0015  0.9168 -0.3740
10408TIP3    H152639   3.032   0.493   2.508  0.8890  0.7186 -0.6155
10408TIP3    H252640   2.929   0.386   2.478 -1.2338  2.0483  1.5215
10409TIP3   OH252641   0.705   4.118  12.794  0.8828  0.1580 -0.0652
10409TIP3    H152642   0.632   4.059  12.815  0.4526  0.0162 -1.7804
10409TIP3    H252643   0.732   4.091  12.706  1.8054  1.4214 -0.1894
10410TIP3   OH252644   1.800   0.413   5.160  0.0530  0.4370  0.1359
10410TIP3    H152645   1.755   0.471   5.099  1.5284  0.8354 -0.6399
10410TIP3    H252646   1.844   0.349   5.105  0.0376 -0.2310  0.8813
10411TIP3   OH252647   1.122   2.623  16.749 -0.5336 -0.7141  0.1852
10411TIP3    H152648   1.108   2.685  16.678  0.3075  0.1956  0.7875
10411TIP3    H252649   1.041   2.625  16.800 -0.9240 -0.9484 -0.4169
10412TIP3   OH252650   3.656   0.013   4.640 -0.5279 -0.0891 -0.2639
10412TIP3    H152651   3.616  -0.074   4.648  1.0451 -0.9686 -1.3475
10412TIP3    H252652   3.616   0.050   4.561 -2.1795  0.7589  0.9312
10413TIP3   OH252653   3.292   6.492   4.392  0.9637 -0.3783 -0.4121
10413TIP3    H152654   3.331   6.561   4.338 -2.5844  0.2719 -2.4408
10413TIP3    H252655   3.304   6.523   4.482  0.6523  2.2877 -1.1912
10414TIP3   OH252656   1.222   1.732   3.022 -0.1223 -0.4447  0.2321
10414TIP3    H152657   1.138   1.695   2.993  0.4511 -0.5891 -1.3282
10414TIP3    H252658   1.278   1.656   3.038  0.3634 -0.3210 -0.8126
10415TIP3   OH252659   6.349   4.140   1.586 -0.0113 -0.3739  0.8276
10415TIP3    H152660   6.411   4.197   1.630 -1.2603  0.6065  1.3609
10415TIP3    H252661   6.354   4.165   1.493  0.0476  0.0209  0.9399
10416TIP3   OH252662   3.023   3.495   3.026 -0.6506  0.4110 -0.4196
10416TIP3    H152663   3.073   3.575   3.009  2.6280 -1.2149  0.8081
10416TIP3    H252664   2.933   3.525   3.035  0.3279  3.8549 -0.7374
10417TIP3   OH252665   2.369   4.803   2.951  0.3677  0.1588  0.2888
10417TIP3    H152666   2.442   4.804   3.013 -0.8376  0.0189  1.7797
10417TIP3    H252667   2.370   4.714   2.915  1.0258  0.2157  0.1490
10418TIP3   OH252668   6.528   5.263  16.043  0.0301  0.4335 -0.3640
10418TIP3    H152669   6.607   5.252  16.095 -0.2741  1.8307  0.4471
10418TIP3    H252670   6.534   5.195  15.975  1.7428  0.3070 -0.1257
10419TIP3   OH252671   5.709   2.944  13.766  0.0986 -0.2174  0.6925
10419TIP3    H152672   5.702   2.881  13.838 -1.4514  2.5422  3.2251
10419TIP3    H252673   5.643   3.011  13.787  1.7521  2.3455 -1.6095
10420TIP3   OH252674   5.886   1.106   2.908 -0.3541  0.2729  0.7282
10420TIP3    H152675   5.970   1.110   2.862 -0.2405 -1.5596  0.7101
10420TIP3    H252676   5.897   1.165   2.982  0.5911  0.8252  0.1773
10421TIP3   OH252677   5.656   0.938  11.631  0.8201  0.5277 -0.2821
10421TIP3    H152678   5.633   1.017  11.680  0.3725  0.2589 -0.0505
10421TIP3    H252679   5.751   0.930  11.641  0.9148  1.2180 -0.5898
10422TIP3   OH252680   6.623   3.267   5.834 -0.3885 -0.2787 -0.6072
10422TIP3    H152681   6.600   3.272   5.927  1.4494  0.8140 -0.1454
10422TIP3    H252682   6.587   3.183   5.805  1.2446 -1.9826  1.8116
10423TIP3   OH252683   5.373   5.248  15.417  0.2327  0.4572  0.1755
10423TIP3    H152684   5.292   5.206  15.445  0.3008  0.4060  0.2945
10423TIP3    H252685   5.357   5.342  15.430 -0.0605  0.4992 -0.4534
10424TIP3   OH252686   1.271   0.593   0.993 -0.2233 -0.3476 -1.0026
10424TIP3    H152687   1.332   0.537   0.945 -0.5324 -0.0003 -1.8121
10424TIP3    H252688   1.185   0.554   0.978 -0.2883 -0.4307 -0.4446
10425TIP3   OH252689   1.007   0.776   4.047 -0.1744 -0.3245  0.0670
10425TIP3    H152690   1.098   0.804   4.055  0.5336 -2.2873 -0.5915
10425TIP3    H252691   0.959   0.857   4.026  1.8092  0.3774 -2.2551
10426TIP3   OH252692   1.628   4.223  13.892  0.5578 -0.9706  0.4487
10426TIP3    H152693   1.662   4.190  13.809 -0.0332 -1.2805  0.3272
10426TIP3    H252694   1.703   4.220  13.951  0.9474 -0.8793 -0.0344
10427TIP3   OH252695   2.232   6.368  14.943  0.1366  0.3894  0.3957
10427TIP3    H152696   2.325   6.364  14.922 -0.3238  0.3982 -1.9109
10427TIP3    H252697   2.188   6.350  14.860 -1.9333 -0.1810  1.5458
10428TIP3   OH252698   5.486   5.283   5.279 -0.4168 -0.4236  0.4126
10428TIP3    H152699   5.528   5.359   5.240 -2.2700  0.8337  0.7450
10428TIP3    H252700   5.558   5.232   5.316  0.7823  2.0479  1.7265
10429TIP3   OH252701   6.407   5.677   2.342  0.0486  0.6748  0.5829
10429TIP3    H152702   6.369   5.612   2.282 -0.8790  1.6121  0.1182
10429TIP3    H252703   6.463   5.626   2.400 -0.5319 -0.5259  0.1293
10430TIP3   OH252704   6.239   1.444  16.514  0.3178  0.3644 -0.0266
10430TIP3    H152705   6.155   1.452  16.469  0.3751 -0.5732 -0.3103
10430TIP3    H252706   6.272   1.358  16.489  0.1042 -0.4469  2.2307
10431TIP3   OH252707   3.043   5.330   1.864 -0.0144 -0.4946  0.0900
10431TIP3    H152708   3.114   5.354   1.923  0.9656 -1.5669 -0.5919
10431TIP3    H252709   3.007   5.250   1.902 -2.5446  1.3062  1.7740
10432TIP3   OH252710   4.549   3.962   1.088 -0.2060  0.1719 -0.3831
10432TIP3    H152711   4.462   4.002   1.091 -0.2177  0.1952 -0.8764
10432TIP3    H252712   4.576   3.970   0.996  0.0807 -0.3353 -0.3481
10433TIP3   OH252713   4.457   5.680   5.188 -0.1272  0.4882  0.1757
10433TIP3    H152714   4.370   5.674   5.229  0.3553 -0.9753  1.0699
10433TIP3    H252715   4.443   5.648   5.099 -0.5322  0.3553  0.2824
10434TIP3   OH252716   0.561   6.804   0.247  0.2488 -0.5836  0.4298
10434TIP3    H152717   0.517   6.888   0.237  0.7635 -0.3823 -0.1943
10434TIP3    H252718   0.505   6.755   0.307 -0.9766 -0.4424 -0.5550
10435TIP3   OH252719   1.066   3.005   1.147  0.4076 -0.8066  0.3071
10435TIP3    H152720   1.153   3.036   1.172 -0.3618  0.5297  1.4666
10435TIP3    H252721   1.005   3.057   1.200 -1.0718 -2.4558  0.3522
10436TIP3   OH252722   1.221   6.086  13.095  0.5105  0.5284 -0.1368
10436TIP3    H152723   1.235   6.094  13.001 -0.4415 -2.1124 -0.6110
10436TIP3    H252724   1.309   6.084  13.132  0.8881  2.7293 -0.7793
10437TIP3   OH252725   2.779   1.494   0.431  0.6250 -0.4478  0.0412
10437TIP3    H152726   2.838   1.423   0.404 -1.0810 -2.0050  0.1630
10437TIP3    H252727   2.695   1.450   0.446 -0.6474  1.7040 -0.3723
10438TIP3   OH252728   5.085   0.467   1.184  0.2689 -0.2527  0.3236
10438TIP3    H152729   5.096   0.440   1.276  1.0076 -0.8621  0.0645
10438TIP3    H252730   4.991   0.483   1.176 -0.2469 -2.7673  0.5237
10439TIP3   OH252731   1.850   6.007  12.768 -0.0936  0.2930  0.4130
10439TIP3    H152732   1.844   6.075  12.835  0.5727 -1.3253  2.2077
10439TIP3    H252733   1.828   5.926  12.814  1.5410 -1.0366 -1.0116
10440TIP3   OH252734   1.340   5.425   4.145 -0.3783  0.2995  0.1555
10440TIP3    H152735   1.303   5.512   4.160 -0.7681  0.2120 -0.2771
10440TIP3    H252736   1.425   5.441   4.104 -0.2050  0.4877  0.5835
10441TIP3   OH252737   3.402   6.169   2.907 -0.3972 -0.0863 -0.4011
10441TIP3    H152738   3.415   6.140   2.817  0.0074 -0.1151 -0.3351
10441TIP3    H252739   3.307   6.166   2.920 -0.6983  2.2472 -1.5909
10442TIP3   OH252740   3.462   5.799   4.346  0.3027  0.7721  0.2834
10442TIP3    H152741   3.513   5.740   4.291 -0.9671 -0.3842  0.2899
10442TIP3    H252742   3.470   5.764   4.434 -0.7923  0.3327  0.2259
10443TIP3   OH252743   6.588   0.404   1.637 -0.4518  0.1910  0.1054
10443TIP3    H152744   6.522   0.461   1.598 -0.7394 -0.6731 -0.7019
10443TIP3    H252745   6.540   0.325   1.663  0.4361 -1.1048 -1.8762
10444TIP3   OH252746   4.308   4.224   1.957  0.6856 -0.1446 -0.1379
10444TIP3    H152747   4.376   4.220   1.890  2.1114 -0.4852  1.2599
10444TIP3    H252748   4.345   4.279   2.026 -1.4140  1.6014 -0.3037
10445TIP3   OH252749   0.841   0.388  10.946  0.6138  0.1416  0.3783
10445TIP3    H152750   0.860   0.481  10.951  0.1523  0.3334 -1.0512
10445TIP3    H252751   0.753   0.382  10.909  1.0682 -0.8619 -0.6160
10446TIP3   OH252752   6.059   1.354  10.611 -0.1361  0.1683 -0.0442
10446TIP3    H152753   6.018   1.395  10.535  0.2918  0.0531 -0.3445
10446TIP3    H252754   6.149   1.338  10.583 -0.0231 -0.0330  0.4291
10447TIP3   OH252755   0.363   4.871  12.713 -0.4098  0.3837  0.2431
10447TIP3    H152756   0.409   4.802  12.761  1.1116 -0.2039 -1.9373
10447TIP3    H252757   0.408   4.876  12.629 -1.1825  3.2984 -0.0992
10448TIP3   OH252758   0.077   0.618   4.531  0.0429 -0.3910 -0.0649
10448TIP3    H152759   0.055   0.664   4.450  1.0481  0.4636  0.1206
10448TIP3    H252760   0.029   0.665   4.599  0.8908  0.2589  0.0960
10449TIP3   OH252761   4.819   0.943  13.253 -0.4776 -0.3646  0.4607
10449TIP3    H152762   4.770   0.869  13.217 -0.9895 -0.5708  1.5259
10449TIP3    H252763   4.758   1.017  13.247  0.0851  0.0259 -0.7367
10450TIP3   OH252764   4.163   6.607   3.505 -0.2968  0.2563  0.3872
10450TIP3    H152765   4.214   6.579   3.428 -0.6518 -3.5013  1.3645
10450TIP3    H252766   4.229   6.641   3.566  0.8679 -2.2904  0.6756
10451TIP3   OH252767   1.471   6.101  14.831 -0.0805 -0.2667  0.7225
10451TIP3    H152768   1.410   6.034  14.863 -0.2814 -0.7004 -0.4845
10451TIP3    H252769   1.555   6.056  14.825  0.3625  0.3151  2.3258
10452TIP3   OH252770   3.290   3.908   4.521  0.2158  0.7161 -0.7992
10452TIP3    H152771   3.240   3.990   4.516  0.3057  1.0024  1.6782
10452TIP3    H252772   3.224   3.839   4.524 -0.1909  1.0920  2.4278
10453TIP3   OH252773   3.848   4.212   6.807 -0.4895  0.3961 -0.2578
10453TIP3    H152774   3.895   4.175   6.733  0.5644 -1.7188  1.3749
10453TIP3    H252775   3.756   4.187   6.792 -0.2506 -0.2162 -0.7332
10454TIP3   OH252776   0.210   6.665   0.346 -0.1780  0.2911  0.7039
10454TIP3    H152777   0.234   6.612   0.270  0.5254  0.0384  1.0816
10454TIP3    H252778   0.287   6.659   0.403  0.4716  2.8057  0.1786
10455TIP3   OH252779   3.142   1.966   1.025  0.4364 -0.2231  0.8204
10455TIP3    H152780   3.173   2.005   0.943 -2.0056 -0.3297 -0.2299
10455TIP3    H252781   3.162   2.032   1.092 -0.9520  1.5807 -0.4627
10456TIP3   OH252782   6.404   2.571  17.047  0.6731  0.4172 -0.5323
10456TIP3    H152783   6.459   2.511  16.997  0.0239 -1.7155  1.1549
10456TIP3    H252784   6.315   2.538  17.034  0.2015  1.4680 -0.1197
10457TIP3   OH252785   4.837   1.953   4.328 -0.2983  0.3905  0.2223
10457TIP3    H152786   4.893   1.976   4.402  0.3410 -1.3943  0.3664
10457TIP3    H252787   4.892   1.970   4.251  1.0987 -2.6073  0.4017
10458TIP3   OH252788   2.039   0.060  11.613  0.5689 -0.6447 -0.0325
10458TIP3    H152789   2.039   0.151  11.584 -0.6763 -0.9803 -1.1999
10458TIP3    H252790   2.012   0.064  11.705 -2.1548  0.0411 -0.7576
10459TIP3   OH252791   0.402   0.591   2.931  0.0019  0.1330 -0.1471
10459TIP3    H152792   0.419   0.664   2.871 -2.7439  0.0339 -1.2123
10459TIP3    H252793   0.400   0.514   2.874  0.0351 -0.3597  0.5056
10460TIP3   OH252794   0.518   5.300   5.999 -0.6949 -0.5389 -0.0900
10460TIP3    H152795   0.569   5.245   5.939 -0.4280 -0.4392  0.0476
10460TIP3    H252796   0.436   5.317   5.951 -0.3367 -0.1564 -0.5829
10461TIP3   OH252797   4.625   4.510  14.418 -0.4215 -0.5366  0.3121
10461TIP3    H152798   4.631   4.596  14.375  0.9769 -0.4541  0.6399
10461TIP3    H252799   4.558   4.463  14.368 -0.8904  0.5830 -0.1433
10462TIP3   OH252800   4.227   5.136  16.933 -0.1249 -0.0763 -0.0802
10462TIP3    H152801   4.167   5.061  16.929  1.3108 -1.2673  0.1385
10462TIP3    H252802   4.210   5.184  16.851 -0.2354 -1.2977 -0.7967
10463TIP3   OH252803   1.033   3.655   5.675 -0.4885 -0.2247 -0.0403
10463TIP3    H152804   0.998   3.720   5.736 -1.7594 -0.2372 -0.7388
10463TIP3    H252805   1.107   3.699   5.633 -1.9443  1.1814 -1.2508
10464TIP3   OH252806   6.333   6.454   4.114  0.3544 -0.1188 -0.0400
10464TIP3    H152807   6.362   6.384   4.172 -0.4470 -0.7497 -0.3831
10464TIP3    H252808   6.333   6.414   4.027  2.9540  1.2131 -0.7584
10465TIP3   OH252809   4.287   0.765  11.775  0.4256  0.1234  0.3863
10465TIP3    H152810   4.377   0.741  11.792  0.3343 -0.5695 -0.0698
10465TIP3    H252811   4.247   0.686  11.737 -0.1688  0.6476 -0.1182
10466TIP3   OH252812   0.643   2.729   1.253  0.4522 -0.2812 -0.2972
10466TIP3    H152813   0.672   2.763   1.169 -0.1188  1.1075  0.0350
10466TIP3    H252814   0.716   2.677   1.285  1.4943  0.8731 -0.7265
10467TIP3   OH252815   0.643   4.750  16.277  0.0917 -0.4918  0.1662
10467TIP3    H152816   0.732   4.727  16.302  0.2868  0.3100  0.2168
10467TIP3    H252817   0.612   4.674  16.226  1.2675 -0.2240 -0.9945
10468TIP3   OH252818   3.424   1.892  14.810 -0.6261  0.6131  0.9894
10468TIP3    H152819   3.445   1.975  14.853 -1.3136  0.8777  0.8237
10468TIP3    H252820   3.463   1.826  14.867 -0.6774  1.0141  1.4981
10469TIP3   OH252821   1.987   5.867  16.688  0.5613 -0.0125 -0.1145
10469TIP3    H152822   2.052   5.937  16.693  1.4551 -0.8629  0.4928
10469TIP3    H252823   1.922   5.900  16.626  1.9058  0.5880 -1.2573
10470TIP3   OH252824   6.570   3.520   4.959  0.1361 -0.5200 -0.2822
10470TIP3    H152825   6.549   3.613   4.966 -0.4729 -0.6603 -0.2472
10470TIP3    H252826   6.582   3.491   5.050 -0.3602 -0.6315 -0.2502
10471TIP3   OH252827   3.866   3.834   4.546  0.5607  0.9265  0.4382
10471TIP3    H152828   3.876   3.763   4.609 -2.0236  0.7331  0.7263
10471TIP3    H252829   3.862   3.791   4.461  2.6495  1.0864  0.1953
10472TIP3   OH252830   3.736   6.445  15.747  0.2559  0.2845  0.2621
10472TIP3    H152831   3.715   6.362  15.705 -0.3323  0.6813 -0.2345
10472TIP3    H252832   3.811   6.425  15.804  1.2656 -0.2033 -1.1866
10473TIP3   OH252833   0.897   1.568  14.035  0.5266 -0.0118 -0.3655
10473TIP3    H152834   0.825   1.612  13.989  1.8305  0.4415 -2.1025
10473TIP3    H252835   0.888   1.476  14.010  0.2485 -0.0442 -0.1521
10474TIP3   OH252836   5.788   4.863   3.438  0.0332  0.4021 -0.0223
10474TIP3    H152837   5.776   4.916   3.358  1.6198  1.5248  0.4300
10474TIP3    H252838   5.862   4.904   3.482 -0.7693 -0.2466  2.0085
10475TIP3   OH252839   0.681   4.547   4.215  0.0937 -0.6981 -0.2345
10475TIP3    H152840   0.651   4.514   4.130  0.9702 -0.6271 -0.5884
10475TIP3    H252841   0.645   4.635   4.221  1.0834 -0.1955 -1.1479
10476TIP3   OH252842   5.022   3.591  15.538 -0.1030 -0.5725 -0.1671
10476TIP3    H152843   5.080   3.641  15.480 -0.2309 -0.6212 -0.3359
10476TIP3    H252844   5.021   3.503  15.500  1.6650 -1.2586  1.1768
10477TIP3   OH252845   1.551   6.100  14.076 -0.0220 -0.5175  0.0520
10477TIP3    H152846   1.627   6.042  14.086  0.2221 -0.2714 -0.3399
10477TIP3    H252847   1.580   6.184  14.111  0.2244 -0.1524 -0.9822
10478TIP3   OH252848   5.219   5.343   3.023 -0.5676  0.5691  0.7000
10478TIP3    H152849   5.134   5.363   2.985  0.2253  0.3108 -1.3161
10478TIP3    H252850   5.273   5.420   3.003  0.2889 -0.2160 -0.1070
10479TIP3   OH252851   1.116   6.734  13.242 -0.1426  0.0866 -0.7535
10479TIP3    H152852   1.128   6.770  13.154 -0.4412  0.2884 -0.7136
10479TIP3    H252853   1.184   6.774  13.295 -1.0080  1.2901 -0.5028
10480TIP3   OH252854   2.751   0.328   3.479 -0.5680 -0.4007  0.8637
10480TIP3    H152855   2.661   0.360   3.479 -0.8184 -1.0979  1.0721
10480TIP3    H252856   2.761   0.285   3.394 -0.7166 -1.1028  1.1963
10481TIP3   OH252857   1.104   4.214  11.137 -0.1389 -0.9302 -0.1198
10481TIP3    H152858   1.048   4.263  11.077 -0.5041 -1.5657 -0.3141
10481TIP3    H252859   1.193   4.238  11.113 -0.3178 -0.0292  0.0838
10482TIP3   OH252860   3.246   3.289  10.997 -0.2434  0.7888 -0.1496
10482TIP3    H152861   3.220   3.206  11.038 -0.4645 -1.1120 -3.7287
10482TIP3    H252862   3.341   3.287  10.998 -0.2133 -0.3845 -1.6077
10483TIP3   OH252863   1.439   4.051   4.378  0.4225  0.4198 -0.3039
10483TIP3    H152864   1.510   4.052   4.314  0.1984  0.3706 -0.5539
10483TIP3    H252865   1.411   4.143   4.384 -0.2667  0.2690 -1.0733
10484TIP3   OH252866   5.627   5.980   5.934 -0.2076  0.2441 -0.1403
10484TIP3    H152867   5.647   5.974   5.840 -1.4374 -0.8418 -0.3797
10484TIP3    H252868   5.679   5.910   5.974 -0.4589  0.0330 -0.1766
10485TIP3   OH252869   1.199   1.323  15.410  0.3164  0.2629  0.7949
10485TIP3    H152870   1.293   1.311  15.425  0.0612 -1.0331  1.4628
10485TIP3    H252871   1.161   1.236  15.421 -0.4148 -0.3215 -4.2307
10486TIP3   OH252872   4.026   5.169   1.529  0.3651 -0.0799  0.1126
10486TIP3    H152873   4.075   5.143   1.607  2.1983  2.2664 -0.1441
10486TIP3    H252874   3.935   5.165   1.555  0.7073 -2.7948  1.2047
10487TIP3   OH252875   1.088   5.970  11.802 -0.2026 -0.1409 -0.1936
10487TIP3    H152876   1.113   5.921  11.880  1.4719 -0.1974 -0.7285
10487TIP3    H252877   1.019   6.030  11.832 -0.5460 -1.0997  1.0034
10488TIP3   OH252878   5.755   2.246  12.203 -0.0469 -0.3784  0.1201
10488TIP3    H152879   5.722   2.180  12.264 -0.4118  0.9506  1.3919
10488TIP3    H252880   5.831   2.205  12.162 -0.7024 -1.8641  0.3128
10489TIP3   OH252881   3.451   0.896  15.049 -0.1794 -0.0859  0.2739
10489TIP3    H152882   3.515   0.831  15.079 -0.5419  0.1835  1.7143
10489TIP3    H252883   3.495   0.980  15.060 -0.7618  0.1016  1.2802
10490TIP3   OH252884   1.850   6.427   2.708 -0.4480 -0.0200  0.3261
10490TIP3    H152885   1.865   6.491   2.638  0.9484  0.3643  0.9429
10490TIP3    H252886   1.765   6.388   2.687  0.0939 -0.1788 -1.7693
10491TIP3   OH252887   4.082   2.158   5.539 -0.2815  0.0289  0.5035
10491TIP3    H152888   4.017   2.214   5.497  1.5800  1.1576 -1.0684
10491TIP3    H252889   4.098   2.200   5.624 -1.2922 -0.0660  0.7592
10492TIP3   OH252890   2.890   2.978  15.862 -0.1608 -0.0352 -0.0447
10492TIP3    H152891   2.980   2.948  15.877  0.3765  0.3413 -2.2348
10492TIP3    H252892   2.838   2.932  15.929  1.5569 -0.6890  0.9017
10493TIP3   OH252893   2.080   1.164   5.950 -0.0745  0.2421 -0.2358
10493TIP3    H152894   1.992   1.195   5.927 -0.5026 -1.6864 -1.4278
10493TIP3    H252895   2.065   1.085   6.001  0.9871  0.4975  0.4961
10494TIP3   OH252896   6.218   4.743  12.066  0.0616  0.4857  0.0028
10494TIP3    H152897   6.207   4.826  12.018 -0.9070 -0.2672 -1.1346
10494TIP3    H252898   6.181   4.761  12.153 -1.2772  0.9078 -0.6245
10495TIP3   OH252899   3.585   4.639  13.120 -0.4949  0.1176 -0.1022
10495TIP3    H152900   3.577   4.662  13.027 -0.9414  0.1088 -0.0668
10495TIP3    H252901   3.598   4.544  13.119  0.4106  0.2384 -0.2002
10496TIP3   OH252902   3.168   6.155   3.085 -0.4439  0.1481  0.0705
10496TIP3    H152903   3.168   6.068   3.126  0.5155  0.1054  0.0006
10496TIP3    H252904   3.229   6.206   3.138  0.2352  0.3140 -0.8496
10497TIP3   OH252905   4.968   5.352  15.528 -0.2591 -0.1092  0.4728
10497TIP3    H152906   4.938   5.440  15.504 -0.9971 -0.1697  1.1237
10497TIP3    H252907   5.064   5.358  15.525 -0.3098  0.2139 -1.2141
10498TIP3   OH252908   6.456   3.955   1.756 -0.4691  0.9088  0.2672
10498TIP3    H152909   6.406   3.978   1.678 -0.6428  2.1630  0.7098
10498TIP3    H252910   6.396   3.973   1.829 -0.7671 -1.4741  0.6676
10499TIP3   OH252911   4.620   1.262  12.686 -0.3174 -0.1576 -0.1617
10499TIP3    H152912   4.656   1.183  12.726 -0.7165  0.0811  0.6772
10499TIP3    H252913   4.529   1.239  12.665 -0.1276 -0.2652 -0.9021
10500TIP3   OH252914   1.400   0.710  15.887 -0.4260 -0.4906  0.0870
10500TIP3    H152915   1.349   0.686  15.810 -0.0563 -0.3989 -0.1877
10500TIP3    H252916   1.491   0.709  15.858 -0.3514  0.6130  0.2298
10501TIP3   OH252917   2.228   5.539  16.076 -0.0697 -0.4786 -0.0971
10501TIP3    H152918   2.289   5.603  16.114 -1.3631  0.4334  0.5447
10501TIP3    H252919   2.258   5.528  15.986  1.1548 -0.2108  0.2530
10502TIP3   OH252920   5.966   3.687   0.552 -0.3564 -0.1034 -0.1480
10502TIP3    H152921   5.991   3.774   0.520  1.0147 -0.2516  0.4327
10502TIP3    H252922   5.872   3.681   0.537 -0.1224  0.5948 -2.3392
10503TIP3   OH252923   0.300   0.679   5.238 -0.0619  0.2989  0.2809
10503TIP3    H152924   0.377   0.691   5.292  0.5022  0.8260 -0.6143
10503TIP3    H252925   0.297   0.585   5.220  1.8584  0.5353 -1.7508
10504TIP3   OH252926   4.625   0.787  14.258  0.2353  0.4441  0.2188
10504TIP3    H152927   4.599   0.716  14.198  0.8914  0.8099 -0.5105
10504TIP3    H252928   4.608   0.867  14.209 -1.0813  0.8498  1.2629
10505TIP3   OH252929   0.828   4.357   4.758  0.9091 -0.0271 -0.0504
10505TIP3    H152930   0.867   4.364   4.845  1.1502  0.0951 -0.1682
10505TIP3    H252931   0.801   4.446   4.736 -0.3718 -0.2739  0.4572
10506TIP3   OH252932   6.501   4.880   5.298 -0.5644  0.3175  0.2948
10506TIP3    H152933   6.426   4.865   5.240  0.8492  0.2028 -1.6143
10506TIP3    H252934   6.576   4.890   5.238  0.7502  1.7169  2.0478
10507TIP3   OH252935   5.374   4.727   3.159  0.3053 -0.6849 -0.7696
10507TIP3    H152936   5.402   4.800   3.214 -1.7287  0.2598 -0.9165
10507TIP3    H252937   5.425   4.738   3.078 -1.2488  1.7011 -1.5040
10508TIP3   OH252938   3.532   0.532  10.560  1.0013  0.4565 -0.0520
10508TIP3    H152939   3.437   0.549  10.559  1.0834  0.9485 -1.3509
10508TIP3    H252940   3.554   0.528  10.653 -0.2452  0.6377  0.2785
10509TIP3   OH252941   0.227   2.705  14.823  0.8476  0.3195 -0.0869
10509TIP3    H152942   0.182   2.790  14.814  0.3923 -0.1220 -3.5956
10509TIP3    H252943   0.158   2.640  14.807  1.7770 -0.5671 -0.5811
10510TIP3   OH252944   3.061   3.235   0.053  0.6618 -0.7462  0.3319
10510TIP3    H152945   3.134   3.231   0.115  2.0435  0.7674 -1.0833
10510TIP3    H252946   3.058   3.149   0.013  0.6105 -1.3207  1.5188
10511TIP3   OH252947   4.164   4.725   2.267 -0.1270 -0.1908  0.2098
10511TIP3    H152948   4.093   4.787   2.283 -0.2391 -0.8661  2.7262
10511TIP3    H252949   4.184   4.688   2.353  1.9383 -1.4893 -0.7406
10512TIP3   OH252950   2.706   3.760   4.068 -0.0598  0.6288  0.1940
10512TIP3    H152951   2.750   3.802   4.142  0.6828  0.6668 -0.2654
10512TIP3    H252952   2.692   3.669   4.097 -0.1913  0.7606  0.5545
10513TIP3   OH252953   3.193   5.159   3.147  0.4797  0.5956 -0.2034
10513TIP3    H152954   3.278   5.123   3.173  0.3381  0.9323  0.7550
10513TIP3    H252955   3.201   5.173   3.052  0.6649 -1.5955 -0.5587
10514TIP3   OH252956   1.676   5.092  11.999 -0.0809  0.4628 -0.2728
10514TIP3    H152957   1.631   5.175  12.013 -1.3948 -0.2062 -0.3155
10514TIP3    H252958   1.643   5.062  11.914 -2.3337 -1.6925  1.2043
10515TIP3   OH252959   6.096   4.860  15.704  0.0943  0.5678  0.3937
10515TIP3    H152960   6.019   4.811  15.733 -1.4711  2.7191  0.0643
10515TIP3    H252961   6.100   4.846  15.610 -0.0121  0.6148  0.3818
10516TIP3   OH252962   3.643   3.008   4.637 -0.7232  0.0272  0.4627
10516TIP3    H152963   3.728   3.029   4.600 -0.8096  1.6590  1.0726
10516TIP3    H252964   3.660   2.939   4.701  0.1059  0.1908  0.4225
10517TIP3   OH252965   5.307   5.333  14.676 -0.1126  0.2773  0.5325
10517TIP3    H152966   5.310   5.381  14.594 -1.0846 -0.7830 -0.1518
10517TIP3    H252967   5.324   5.399  14.743 -0.2337  1.3367 -0.4431
10518TIP3   OH252968   2.027   1.469   2.340 -0.1121  0.2897 -0.1582
10518TIP3    H152969   1.977   1.499   2.264 -0.5687  0.3319  0.1509
10518TIP3    H252970   1.960   1.445   2.404  0.2619 -0.1795  0.0638
10519TIP3   OH252971   6.659   0.881   3.186  0.5834 -0.0780 -0.5515
10519TIP3    H152972   6.620   0.968   3.182 -2.9953 -1.3812  1.2706
10519TIP3    H252973   6.670   0.855   3.094 -0.1738  1.5100 -1.1218
10520TIP3   OH252974   3.178   6.732  14.670  0.5555  0.3052 -0.1827
10520TIP3    H152975   3.183   6.757  14.763  1.4666 -0.9298  0.1230
10520TIP3    H252976   3.237   6.658  14.662 -0.5524 -0.4784 -1.4773
10521TIP3   OH252977   0.065   6.592   2.206  0.5921 -0.1829 -0.0113
10521TIP3    H152978   0.136   6.582   2.270  1.3354 -1.6028 -0.9823
10521TIP3    H252979   0.044   6.502   2.180  0.2846  0.3526 -1.7033
10522TIP3   OH252980   6.541   1.122  13.033  0.3105 -0.0357 -0.2354
10522TIP3    H152981   6.496   1.097  13.114  0.7139 -2.0397 -0.5649
10522TIP3    H252982   6.618   1.065  13.030 -0.9032 -1.7563 -3.1317
10523TIP3   OH252983   6.671   3.510   5.237 -0.5785 -0.5774  0.0957
10523TIP3    H152984   6.584   3.502   5.277 -0.3090  1.1885  1.1428
10523TIP3    H252985   6.724   3.447   5.286 -0.3191  1.3572  2.5149
10524TIP3   OH252986   4.917   1.889  13.422 -0.0369 -0.5721 -0.1351
10524TIP3    H152987   5.009   1.912  13.434 -0.1719  0.2424 -0.5846
10524TIP3    H252988   4.872   1.928  13.497  0.0292 -1.2901  0.2830
10525TIP3   OH252989   6.659   0.368   5.422 -0.1488 -0.3310 -0.4453
10525TIP3    H152990   6.565   0.352   5.408 -0.2729  0.0692 -0.1122
10525TIP3    H252991   6.703   0.312   5.359 -0.6390  0.2144 -1.2947
10526TIP3   OH252992   4.364   0.682  15.146 -0.3602  0.2655 -0.1223
10526TIP3    H152993   4.334   0.596  15.174 -0.3883 -0.1136 -1.2930
10526TIP3    H252994   4.285   0.727  15.118 -0.1836  0.1975 -0.7460
10527TIP3   OH252995   1.262   4.085   0.514  0.2884 -0.0706 -0.0221
10527TIP3    H152996   1.188   4.145   0.526  0.5446  0.4717 -1.0595
10527TIP3    H252997   1.275   4.046   0.600 -0.9929  0.0762  0.2553
10528TIP3   OH252998   6.095   3.762   2.856 -0.2369 -0.5797 -0.4158
10528TIP3    H152999   6.180   3.737   2.819  0.2382 -1.5602  1.2137
10528TIP3    H253000   6.049   3.804   2.784  1.4896 -0.3527 -1.4493
10529TIP3   OH253001   2.534   3.112   0.241  0.3940 -0.3734 -0.5769
10529TIP3    H153002   2.573   3.174   0.302  0.4028 -1.3448  0.4287
10529TIP3    H253003   2.586   3.032   0.251 -1.1770 -1.3690  0.0507
10530TIP3   OH253004   4.032   1.662   3.841 -0.0180  0.1867  0.0394
10530TIP3    H153005   3.966   1.596   3.861 -0.7518  0.7352 -0.5376
10530TIP3    H253006   4.016   1.687   3.750 -0.3226  1.7707  0.4879
10531TIP3   OH253007   0.139   6.194  11.303 -0.1418  0.5690  0.0107
10531TIP3    H153008   0.206   6.150  11.251 -0.0714  1.3140 -0.5513
10531TIP3    H253009   0.113   6.129  11.368 -1.1889 -0.9101 -1.7674
10532TIP3   OH253010   5.983   2.017   2.106 -0.8053  0.2440  0.6060
10532TIP3    H153011   6.064   2.051   2.145 -0.1915 -1.0608  0.5212
10532TIP3    H253012   5.918   2.024   2.175 -0.2357 -0.1144  1.1897
10533TIP3   OH253013   3.558   1.653   5.559  0.1230 -0.0987 -0.3081
10533TIP3    H153014   3.647   1.663   5.593 -1.0384  1.7020  2.5832
10533TIP3    H253015   3.529   1.568   5.591  0.8133 -0.7857 -1.4364
10534TIP3   OH253016   3.211   0.404   5.396 -0.6672 -0.3190  0.2725
10534TIP3    H153017   3.294   0.434   5.360 -0.3893 -1.1832  0.1728
10534TIP3    H253018   3.187   0.470   5.461  0.7049 -0.6734  1.1794
10535TIP3   OH253019   5.339   1.999   4.669  0.2996  0.3498 -0.5000
10535TIP3    H153020   5.381   1.914   4.653  0.8116  0.7286 -1.2454
10535TIP3    H253021   5.391   2.061   4.618 -1.2032  0.8238 -1.5201
10536TIP3   OH253022   4.134   0.053   5.553  0.0098 -0.2177 -0.3130
10536TIP3    H153023   4.104   0.111   5.483 -0.8147 -1.6291 -1.1633
10536TIP3    H253024   4.219   0.021   5.523  0.2100  0.0934 -0.0939
10537TIP3   OH253025   5.842   2.846   4.402  0.1258 -0.3693 -0.0251
10537TIP3    H153026   5.755   2.808   4.391 -1.0308  1.2371  2.6278
10537TIP3    H253027   5.896   2.772   4.430 -1.6057 -0.6175  3.0919
10538TIP3   OH253028   5.843   4.378  12.440 -0.0478  0.2881 -0.0502
10538TIP3    H153029   5.813   4.313  12.504  0.8908 -0.6167 -0.5085
10538TIP3    H253030   5.836   4.334  12.355  0.1325  0.9576 -0.4161
10539TIP3   OH253031   1.875   2.931  15.866  0.3947 -0.8914 -0.3816
10539TIP3    H153032   1.946   2.895  15.813  1.0703 -0.3247  0.1225
10539TIP3    H253033   1.796   2.888  15.833  1.0644 -2.1424 -0.4153
10540TIP3   OH253034   1.332   0.717  16.473 -0.5822  0.3449  0.0095
10540TIP3    H153035   1.363   0.637  16.431 -1.3199  0.5149 -0.8889
10540TIP3    H253036   1.271   0.755  16.410  0.7021  2.2756 -0.1153
10541TIP3   OH253037   6.502   6.257   3.396 -0.2434 -0.0053  0.5785
10541TIP3    H153038   6.447   6.179   3.409 -1.0907  0.6330  0.8758
10541TIP3    H253039   6.586   6.221   3.366 -0.4070 -1.0787  1.3285
10542TIP3   OH253040   2.268   2.040  13.457 -0.8495 -0.2008  0.0145
10542TIP3    H153041   2.322   2.072  13.385 -1.2965 -1.2022 -0.7854
10542TIP3    H253042   2.190   2.095  13.455 -0.4993  0.3225  0.2865
10543TIP3   OH253043   0.981   5.023  13.848  0.3708  0.0144 -0.4040
10543TIP3    H153044   1.043   4.966  13.803 -1.0239 -3.5498  1.7585
10543TIP3    H253045   0.898   5.012  13.801 -0.2635 -0.9863  0.8898
10544TIP3   OH253046   1.195   2.845   3.640  0.0644  0.2618  0.1868
10544TIP3    H153047   1.119   2.811   3.593 -0.2699  0.4427  0.5796
10544TIP3    H253048   1.217   2.926   3.595  0.2661  0.0130 -0.1649
10545TIP3   OH253049   4.524   6.128   1.840  0.0930  0.7267 -0.2898
10545TIP3    H153050   4.467   6.121   1.763 -0.4220 -1.7421  0.2538
10545TIP3    H253051   4.599   6.072   1.821 -0.5152 -0.7450  1.3393
10546TIP3   OH253052   2.660   0.859  14.060  0.3023  0.4733  0.0360
10546TIP3    H153053   2.628   0.928  14.002 -0.0549 -0.3373 -0.7636
10546TIP3    H253054   2.589   0.844  14.122  0.2960  0.6772  0.0774
10547TIP3   OH253055   4.230   3.608   2.066 -0.4329 -0.0418  0.2434
10547TIP3    H153056   4.274   3.691   2.087 -0.8161  0.3583 -0.4701
10547TIP3    H253057   4.298   3.553   2.028  0.0709 -0.4638  1.7227
10548TIP3   OH253058   1.522   0.751   1.072 -0.1358  0.2542 -0.1011
10548TIP3    H153059   1.470   0.724   0.996 -0.7384  1.2985 -0.0876
10548TIP3    H253060   1.502   0.844   1.083  1.6298  0.6531  0.0220
10549TIP3   OH253061   6.024   2.599   1.459  0.5711  0.2469  0.4521
10549TIP3    H153062   6.053   2.615   1.548  1.0124  0.4409  0.2765
10549TIP3    H253063   6.009   2.505   1.454 -0.6061  0.3814  1.0696
10550TIP3   OH253064   4.516   1.328   3.605 -0.2012 -0.0182 -0.1652
10550TIP3    H153065   4.423   1.351   3.614 -0.2877 -0.5494  0.3928
10550TIP3    H253066   4.563   1.399   3.648 -0.3836 -0.0569  0.1052
10551TIP3   OH253067   2.097   2.048   4.867 -0.3580 -0.6124  0.0988
10551TIP3    H153068   2.187   2.032   4.839 -0.1461  1.0185 -0.2996
10551TIP3    H253069   2.055   2.085   4.789 -0.8819  0.2322  0.7600
10552TIP3   OH253070   6.296   6.197  15.069 -0.3171 -0.3713 -0.2291
10552TIP3    H153071   6.265   6.266  15.127  0.4015 -1.1281  1.1150
10552TIP3    H253072   6.391   6.195  15.083 -0.3100 -1.5351 -0.3311
10553TIP3   OH253073   4.859   1.030  15.208  0.1941 -0.1185  0.0991
10553TIP3    H153074   4.890   1.096  15.146  2.4914 -0.2046  1.0562
10553TIP3    H253075   4.910   0.952  15.188 -0.5464 -0.7915  0.7527
10554TIP3   OH253076   1.527   2.669   6.790  0.3261 -0.8512  0.1344
10554TIP3    H153077   1.621   2.681   6.795  0.5371 -2.4135  0.5294
10554TIP3    H253078   1.515   2.583   6.751 -0.8651 -1.6004  2.0004
10555TIP3   OH253079   3.796   1.437  13.986  0.1056  0.2049  0.0418
10555TIP3    H153080   3.757   1.352  14.007 -0.8393  0.5665 -0.2030
10555TIP3    H253081   3.767   1.495  14.057 -0.2616  0.6072 -0.4313
10556TIP3   OH253082   1.640   1.978   6.205  0.2402 -0.0064  0.1503
10556TIP3    H153083   1.597   1.893   6.200 -1.3738  0.5763  2.4583
10556TIP3    H253084   1.568   2.041   6.214  1.3876  1.6642 -1.4673
10557TIP3   OH253085   1.185   5.537  11.900  0.5996  0.0576 -1.1482
10557TIP3    H153086   1.174   5.539  11.805  0.7891 -2.5870 -1.3041
10557TIP3    H253087   1.264   5.590  11.916  1.3450 -0.5395 -2.6331
10558TIP3   OH253088   2.427   0.871   5.497 -0.0620 -0.2993 -0.1601
10558TIP3    H153089   2.501   0.931   5.484  1.1317 -1.4923  0.8300
10558TIP3    H253090   2.373   0.914   5.563 -0.1626  0.4762 -0.7255
10559TIP3   OH253091   4.570   2.080  10.689  0.4496 -0.1067 -0.8143
10559TIP3    H153092   4.520   2.000  10.669 -0.3271  0.2622 -0.3946
10559TIP3    H253093   4.567   2.131  10.608  0.9986 -0.5287 -1.1025
10560TIP3   OH253094   2.494   0.720  12.210  0.5267  0.4460 -0.3360
10560TIP3    H153095   2.520   0.628  12.204  0.6756  0.4794 -0.2041
10560TIP3    H253096   2.428   0.731  12.141 -0.6002 -0.1370  0.6048
10561TIP3   OH253097   2.205   4.669  10.931  1.1559  0.5504  0.8039
10561TIP3    H153098   2.293   4.646  10.963  1.5677  0.5874 -0.2535
10561TIP3    H253099   2.218   4.752  10.885  0.5298  0.6185  0.7491
10562TIP3   OH253100   4.545   0.605  15.706  0.2392 -0.8634 -0.0543
10562TIP3    H153101   4.454   0.577  15.692  0.3650 -1.3916  0.1301
10562TIP3    H253102   4.541   0.700  15.705 -0.4568 -0.8665  0.7825
10563TIP3   OH253103   4.681   6.651   5.358  0.0744  0.0968 -0.3784
10563TIP3    H153104   4.668   6.687   5.446 -1.9355  1.1916 -1.0730
10563TIP3    H253105   4.635   6.567   5.360  0.2827 -0.0186 -0.3198
10564TIP3   OH253106   4.200   4.349   0.692 -0.1451 -0.1353 -0.1112
10564TIP3    H153107   4.244   4.300   0.761  2.7613  0.8823 -1.0720
10564TIP3    H253108   4.178   4.283   0.626 -1.5003 -0.8720  1.0213
10565TIP3   OH253109   2.614   4.421  16.097  0.0435  0.4094 -0.4220
10565TIP3    H153110   2.656   4.426  16.011  0.9120 -0.7035 -0.0809
10565TIP3    H253111   2.535   4.370  16.081  2.5936 -4.2754  0.1973
10566TIP3   OH253112   6.462   5.245  15.138 -0.2586 -0.2011 -0.2887
10566TIP3    H153113   6.435   5.223  15.227  0.2891  0.0455 -0.0598
10566TIP3    H253114   6.512   5.326  15.147  1.5676 -1.2490 -0.5277
10567TIP3   OH253115   2.197   0.317  13.571  0.1491 -0.3255  0.2960
10567TIP3    H153116   2.224   0.359  13.489  1.6081 -0.5819  0.6048
10567TIP3    H253117   2.197   0.223  13.550  0.9222 -0.4180  0.6843
10568TIP3   OH253118   1.242   6.555   5.683 -0.3161  0.1442 -0.6150
10568TIP3    H153119   1.301   6.589   5.615  1.2788 -0.0492  0.5927
10568TIP3    H253120   1.301   6.513   5.746 -1.7793 -0.1184  0.6308
10569TIP3   OH253121   1.201   5.687  11.322 -0.4975  0.0486  0.1174
10569TIP3    H153122   1.244   5.611  11.363  0.6704  0.4034 -0.3964
10569TIP3    H253123   1.147   5.724  11.391 -0.5431 -0.8454  0.5838
10570TIP3   OH253124   4.279   3.966  13.424  0.1959  0.0074 -0.3805
10570TIP3    H153125   4.315   4.041  13.377 -0.8808  0.7907  0.0121
10570TIP3    H253126   4.247   3.908  13.355 -2.0492  1.4898 -0.6792
10571TIP3   OH253127   5.822   1.166   5.002 -0.0192  0.3689  0.2873
10571TIP3    H153128   5.867   1.158   5.086 -0.2425 -1.1912  0.2914
10571TIP3    H253129   5.766   1.088   4.997 -1.8682  1.6515 -0.2288
10572TIP3   OH253130   6.626   1.900  11.074 -0.2014 -0.2486  0.0303
10572TIP3    H153131   6.590   1.946  11.150 -0.1828  3.5489 -1.9750
10572TIP3    H253132   6.553   1.896  11.012  1.0643  2.1198 -1.8222
10573TIP3   OH253133   3.874   0.996   2.980  0.5747  0.2871 -0.3279
10573TIP3    H153134   3.852   1.089   2.982  1.4818  0.5271 -1.0222
10573TIP3    H253135   3.852   0.968   2.891 -0.3466 -0.3455  0.0770
10574TIP3   OH253136   4.504   1.773  12.396 -0.2799 -0.0930  0.0838
10574TIP3    H153137   4.591   1.799  12.363 -0.1359 -0.2680  0.3207
10574TIP3    H253138   4.458   1.740  12.319 -0.4914  0.9249 -0.2368
10575TIP3   OH253139   4.670   6.548  15.843  0.0643 -0.1212 -0.4413
10575TIP3    H153140   4.579   6.540  15.816  0.5302 -0.4318 -2.0112
10575TIP3    H253141   4.695   6.460  15.871 -0.1095 -0.0270  0.0312
10576TIP3   OH253142   6.485   1.477   4.420 -0.3212 -0.0361 -0.0951
10576TIP3    H153143   6.483   1.568   4.390 -0.0052  0.8288  2.3188
10576TIP3    H253144   6.413   1.471   4.483 -0.8230 -1.6966 -0.7756
10577TIP3   OH253145   2.772   5.767   4.040  0.7561 -0.3986  0.1752
10577TIP3    H153146   2.771   5.678   4.076 -0.0053 -0.0747  1.0163
10577TIP3    H253147   2.685   5.778   4.002  0.4863  0.3155  0.9640
10578TIP3   OH253148   1.779   4.739  13.601 -0.1119 -0.6063 -0.4748
10578TIP3    H153149   1.695   4.697  13.582  0.0510 -0.9900 -0.3579
10578TIP3    H253150   1.777   4.822  13.552 -0.5876 -0.5808 -0.4098
10579TIP3   OH253151   6.214   6.755  16.518  0.0458  0.7769 -0.4185
10579TIP3    H153152   6.267   6.728  16.443 -1.6483 -1.1874 -1.0059
10579TIP3    H253153   6.124   6.741  16.489 -0.7360  2.1467  1.2253
10580TIP3   OH253154   1.869   3.621  15.060 -0.1143  0.5877 -0.2135
10580TIP3    H153155   1.898   3.629  14.970 -0.7632 -2.4824 -0.8035
10580TIP3    H253156   1.773   3.627  15.056 -0.1976 -0.3048  0.1305
10581TIP3   OH253157   3.956   2.553   2.564 -0.2039 -0.3603  0.0574
10581TIP3    H153158   3.961   2.458   2.561 -0.5110 -0.3614 -0.9676
10581TIP3    H253159   4.039   2.580   2.605 -1.0104 -1.1152  2.3485
10582TIP3   OH253160   1.986   1.729   2.919 -0.1952 -0.0561  0.0663
10582TIP3    H153161   2.078   1.704   2.924  0.0013  0.3857 -1.0001
10582TIP3    H253162   1.986   1.824   2.920 -0.6843 -0.0566  0.6302
10583TIP3   OH253163   6.431   4.038   4.998  0.1190 -0.3392  0.7173
10583TIP3    H153164   6.478   4.096   5.059 -0.3265  1.5913 -0.6584
10583TIP3    H253165   6.342   4.036   5.031  0.1501 -0.2658  0.8070
10584TIP3   OH253166   5.273   3.915  16.618  0.7637  0.6342 -0.2594
10584TIP3    H153167   5.227   3.837  16.648  1.4606 -0.1861 -1.2533
10584TIP3    H253168   5.332   3.938  16.690  0.6419  0.1746 -0.0155
10585TIP3   OH253169   0.864   3.913   5.278  0.4426 -0.2345 -0.0905
10585TIP3    H153170   0.810   3.869   5.343  0.6203  0.0625  0.2589
10585TIP3    H253171   0.848   3.864   5.197 -2.9786  1.7962 -0.8534
10586TIP3   OH253172   6.616   4.603   3.319  0.2222 -0.3205 -0.1489
10586TIP3    H153173   6.602   4.517   3.280 -0.0512  0.7362 -2.5373
10586TIP3    H253174   6.529   4.642   3.325  0.2751 -0.3593  1.4217
10587TIP3   OH253175   0.154   4.472   4.685  0.5118 -0.3584  0.2826
10587TIP3    H153176   0.063   4.492   4.708  0.8237 -0.0240  1.2775
10587TIP3    H253177   0.157   4.377   4.676 -0.3320 -0.2508 -1.5706
10588TIP3   OH253178   3.137   0.219   3.741  0.5031  0.5736 -0.1371
10588TIP3    H153179   3.215   0.266   3.710  0.8725  0.0167 -0.0637
10588TIP3    H253180   3.091   0.193   3.661  1.5290 -0.9842 -0.2684
10589TIP3   OH253181   6.007   4.638   0.123 -0.2153  0.0062  0.2791
10589TIP3    H153182   6.083   4.585   0.096 -1.5100 -1.9245  0.2455
10589TIP3    H253183   6.043   4.725   0.136  2.2034 -1.0179  1.0948
10590TIP3   OH253184   1.370   3.043  15.850  0.4062 -1.3629 -0.7171
10590TIP3    H153185   1.311   3.092  15.908 -1.6444 -1.8857 -2.2460
10590TIP3    H253186   1.392   2.964  15.899 -0.9783 -1.6156 -0.4582
10591TIP3   OH253187   4.280   6.508   2.934 -0.5270  0.3344  0.0491
10591TIP3    H153188   4.330   6.505   3.016 -0.9971 -0.8588  0.3192
10591TIP3    H253189   4.199   6.553   2.958 -1.8845 -2.3947  1.0044
10592TIP3   OH253190   4.262   4.027  11.735  0.1996  0.3526  0.3923
10592TIP3    H153191   4.285   4.040  11.827  2.2207  0.2090 -0.0470
10592TIP3    H253192   4.261   3.931  11.725  0.8635  0.3689  0.0913
10593TIP3   OH253193   6.484   1.920   1.206  0.2457 -0.1516 -0.0682
10593TIP3    H153194   6.439   1.860   1.147  2.6348 -1.8464 -0.2914
10593TIP3    H253195   6.518   1.988   1.148 -0.2384  0.0169 -0.1635
10594TIP3   OH253196   0.994   3.147  11.439  0.0215  0.4591  0.2094
10594TIP3    H153197   1.028   3.058  11.445  2.2943  1.0347 -2.2993
10594TIP3    H253198   1.038   3.195  11.510  0.8453  0.1541 -0.0907
10595TIP3   OH253199   0.344   0.446  13.778 -0.0643  0.3440 -0.1597
10595TIP3    H153200   0.288   0.447  13.856 -0.2358 -0.0769 -0.2722
10595TIP3    H253201   0.428   0.479  13.808 -0.1698  0.3111  0.1745
10596TIP3   OH253202   2.350   1.291   6.098  0.1088 -0.1212  0.0073
10596TIP3    H153203   2.405   1.365   6.124 -0.1000 -0.9145  3.0025
10596TIP3    H253204   2.399   1.214   6.125 -1.5145 -0.9256  0.7796
10597TIP3   OH253205   3.843   5.132  14.039 -0.0164 -0.2614  0.1486
10597TIP3    H153206   3.863   5.049  13.996  3.2217 -0.1278  1.1621
10597TIP3    H253207   3.853   5.198  13.970 -0.6819 -0.4929 -0.1895
10598TIP3   OH253208   0.073   1.494  16.572 -0.3321  0.4387 -0.1484
10598TIP3    H153209   0.153   1.503  16.521 -0.7140 -1.5086 -1.1854
10598TIP3    H253210   0.018   1.566  16.542 -0.3037 -0.2770 -2.0915
10599TIP3   OH253211   6.352   1.676   1.751  0.9008 -0.0440  0.3441
10599TIP3    H153212   6.426   1.710   1.701 -0.0094  1.6278  0.0396
10599TIP3    H253213   6.385   1.666   1.840  1.6526  0.1009  0.0907
10600TIP3   OH253214   3.113   3.134   4.527  0.3045  0.7335 -0.3085
10600TIP3    H153215   3.043   3.070   4.535  0.2764  0.9045  1.1354
10600TIP3    H253216   3.150   3.140   4.615  1.3572  1.5137 -0.7829
10601TIP3   OH253217   6.790   4.157  11.726 -0.2700 -0.6075 -0.5574
10601TIP3    H153218   6.726   4.089  11.749  0.7293 -1.4965 -0.3571
10601TIP3    H253219   6.804   4.147  11.632 -0.2633 -0.5561 -0.5619
10602TIP3   OH253220   1.656   5.330   4.329  0.4736  0.7027  0.4861
10602TIP3    H153221   1.570   5.349   4.367 -0.5191 -0.4640 -1.0433
10602TIP3    H253222   1.637   5.272   4.256  2.5180  0.9911 -0.3371
10603TIP3   OH253223   5.919   0.055  15.271 -0.3190 -0.2232 -0.0026
10603TIP3    H153224   5.968   0.137  15.259  0.3362 -0.8982 -3.0427
10603TIP3    H253225   5.827   0.080  15.266 -0.1368  0.4372 -0.0694
10604TIP3   OH253226   6.661   6.662   0.932 -0.1694 -0.2341 -0.0463
10604TIP3    H153227   6.747   6.673   0.971 -1.0630  1.3993  1.5787
10604TIP3    H253228   6.599   6.689   1.000 -1.8239  2.6220 -2.4138
10605TIP3   OH253229   3.043   6.275   1.260  0.0259 -0.4217  0.6326
10605TIP3    H153230   2.983   6.330   1.310 -1.3975 -1.2391 -0.0967
10605TIP3    H253231   3.053   6.320   1.176 -0.6543 -0.9336  0.2629
10606TIP3   OH253232   6.103   2.518   3.605  0.2121 -0.0681  0.4838
10606TIP3    H153233   6.062   2.510   3.519 -2.9618  1.7321  1.6492
10606TIP3    H253234   6.054   2.458   3.660  0.5730  0.5479  1.5060
10607TIP3   OH253235   5.051   4.419  14.329 -0.0836 -0.0547  0.2687
10607TIP3    H153236   4.989   4.372  14.385  0.8002 -0.7844  0.6740
10607TIP3    H253237   5.011   4.504  14.314 -0.0284  0.4732  2.6519
10608TIP3   OH253238   6.372   1.021  16.327 -0.0229 -0.1521 -0.0767
10608TIP3    H153239   6.465   1.028  16.307 -0.5091 -1.3637 -3.5897
10608TIP3    H253240   6.328   1.039  16.243 -2.8290 -1.4774  0.9684
10609TIP3   OH253241   6.385   2.264  16.027 -0.1118 -0.2253  0.3685
10609TIP3    H153242   6.397   2.275  16.122 -1.8630 -0.8875  0.7155
10609TIP3    H253243   6.322   2.192  16.020  0.4781 -0.6048 -1.3334
10610TIP3   OH253244   5.798   4.356   1.710 -0.0953  0.1656  0.5652
10610TIP3    H153245   5.837   4.271   1.694  0.0897  0.0751  1.4868
10610TIP3    H253246   5.870   4.419   1.696 -0.0729  0.1251  0.5028
10611TIP3   OH253247   1.728   1.437  14.914  0.2534  0.4520 -0.6587
10611TIP3    H153248   1.796   1.476  14.970 -0.3239  0.6832 -0.1002
10611TIP3    H253249   1.710   1.505  14.848 -0.1157  0.7833 -0.2239
10612TIP3   OH253250   1.883   3.983   0.805 -0.2599  0.4623  0.0586
10612TIP3    H153251   1.976   3.960   0.802 -0.3130  0.3470 -0.9063
10612TIP3    H253252   1.841   3.908   0.847  0.0367  0.3621  0.1793
10613TIP3   OH253253   1.519   6.749  12.938 -0.2018  0.3293  0.1141
10613TIP3    H153254   1.547   6.673  12.888 -0.2297  0.0786  0.4727
10613TIP3    H253255   1.429   6.730  12.962  0.2038 -0.1509  1.3536
10614TIP3   OH253256   3.212   1.273   3.664  0.1558 -0.2088  0.3802
10614TIP3    H153257   3.291   1.220   3.654  0.2813  0.3921 -2.4539
10614TIP3    H253258   3.156   1.247   3.591 -1.2930  1.0618  0.9863
10615TIP3   OH253259   5.839   5.769  14.811 -0.5840  0.4117  0.0327
10615TIP3    H153260   5.801   5.708  14.748 -2.6454 -0.3829  1.8895
10615TIP3    H253261   5.916   5.723  14.845 -1.3516 -0.6230  0.4319
10616TIP3   OH253262   5.210   1.290   1.253  0.3050  0.6678  0.2930
10616TIP3    H153263   5.149   1.225   1.288  0.9478 -0.3942 -0.4709
10616TIP3    H253264   5.191   1.293   1.159 -0.7132  2.7176  0.5304
10617TIP3   OH253265   0.693   2.121  14.587  0.2277 -0.0540  0.5074
10617TIP3    H153266   0.774   2.156  14.625  1.8142 -0.9866 -1.7722
10617TIP3    H253267   0.657   2.194  14.536 -0.3194  0.3299  1.4347
10618TIP3   OH253268   1.823   6.324  13.968  0.3905  0.1750 -0.3629
10618TIP3    H153269   1.809   6.300  14.060  0.1639 -1.0440 -0.6955
10618TIP3    H253270   1.743   6.370  13.943 -0.3019 -0.9906 -0.4073
10619TIP3   OH253271   6.009   3.242  14.909  0.8130 -0.4861 -0.3665
10619TIP3    H153272   5.974   3.308  14.850  2.4228 -0.4546 -1.3526
10619TIP3    H253273   5.957   3.163  14.892 -0.0056  0.0557 -0.4058
10620TIP3   OH253274   2.755   3.098   0.008 -0.5001 -0.8208  0.1979
10620TIP3    H153275   2.760   3.186   0.045 -0.2976 -0.9618  0.5160
10620TIP3    H253276   2.843   3.082  -0.026 -0.1937 -1.3483  1.1989
10621TIP3   OH253277   5.755   6.221  14.479 -0.0068 -0.1704 -0.5188
10621TIP3    H153278   5.728   6.140  14.523 -1.1212  0.2330 -0.4458
10621TIP3    H253279   5.782   6.279  14.550  0.3158 -0.3016 -0.5340
10622TIP3   OH253280   0.219   0.996  10.843 -0.0971  0.2006  0.0866
10622TIP3    H153281   0.201   1.060  10.774  0.6920  0.4756  0.1246
10622TIP3    H253282   0.313   1.006  10.861  0.0051 -0.8623  0.2018
10623TIP3   OH253283   5.821   6.121   3.225  0.2813 -0.2896 -0.4961
10623TIP3    H153284   5.729   6.139   3.246  0.0667 -0.4048 -1.2924
10623TIP3    H253285   5.866   6.204   3.241  0.0897 -0.3026  0.1432
10624TIP3   OH253286   6.676   2.533  16.220  0.1435 -0.0682  0.1155
10624TIP3    H153287   6.589   2.496  16.233 -0.8238  1.2489 -1.9585
10624TIP3    H253288   6.690   2.591  16.295 -0.0110 -1.5563  1.3264
10625TIP3   OH253289   3.143   5.204   5.553 -0.5418  0.0453  0.3127
10625TIP3    H153290   3.073   5.190   5.489  0.3564 -0.9836 -0.4757
10625TIP3    H253291   3.119   5.149   5.627 -1.0941  0.4960  0.4714
10626TIP3   OH253292   3.617   5.050   2.520 -0.3007 -0.4188  0.0149
10626TIP3    H153293   3.628   5.038   2.425 -0.5626  1.6761 -0.3276
10626TIP3    H253294   3.621   4.961   2.556  0.8813 -1.1805 -1.8398
10627TIP3   OH253295   5.048   6.669   3.716 -0.8057 -0.1208 -0.0720
10627TIP3    H153296   5.080   6.594   3.766  1.0714  0.1223 -0.8046
10627TIP3    H253297   5.043   6.741   3.780  0.1282 -0.1844  0.0889
10628TIP3   OH253298   3.570   5.430  15.598 -0.0342 -0.2338 -0.3292
10628TIP3    H153299   3.503   5.492  15.570  0.3883  0.5779  0.4095
10628TIP3    H253300   3.529   5.344  15.588 -0.7175  0.1755 -1.1222
10629TIP3   OH253301   1.320   3.099   1.216 -0.5355  0.2125 -0.5230
10629TIP3    H153302   1.352   3.009   1.212 -0.3612  0.1237  1.7671
10629TIP3    H253303   1.394   3.149   1.250 -1.7641  0.5370  1.8638
10630TIP3   OH253304   4.446   2.112   1.468  0.1141 -0.3474  0.0607
10630TIP3    H153305   4.390   2.190   1.464 -0.8250 -0.9881  0.3740
10630TIP3    H253306   4.469   2.104   1.561  1.4961  0.4193 -0.1843
10631TIP3   OH253307   1.100   0.822  16.274 -0.0016 -0.1553  0.5055
10631TIP3    H153308   1.095   0.915  16.251  0.5420 -0.2152  0.1365
10631TIP3    H253309   1.009   0.797  16.290 -0.2372  0.2499 -0.1544
10632TIP3   OH253310   3.535   4.239  11.783 -0.0083  0.0900 -0.0080
10632TIP3    H153311   3.587   4.185  11.723 -0.0129  2.0392 -1.8951
10632TIP3    H253312   3.444   4.221  11.760 -0.0043  1.3765 -1.1992
10633TIP3   OH253313   3.942   6.355   0.747 -0.0553  0.1573 -0.3277
10633TIP3    H153314   3.894   6.405   0.813 -1.0853 -0.9259 -0.2280
10633TIP3    H253315   3.990   6.288   0.797 -1.7981 -1.4454 -0.7199
10634TIP3   OH253316   3.292   2.851   5.724  0.2393 -0.1060 -0.0436
10634TIP3    H153317   3.318   2.923   5.666 -1.0761 -1.3305 -2.2967
10634TIP3    H253318   3.327   2.772   5.682  0.2997 -0.9484  1.5266
10635TIP3   OH253319   6.027   3.575  15.838  0.0635 -0.1990 -0.3468
10635TIP3    H153320   5.979   3.554  15.918 -1.4077  2.1842 -0.4900
10635TIP3    H253321   6.047   3.491  15.799  0.1502 -1.4192  2.1229
10636TIP3   OH253322   0.748   6.013  16.439  0.7483  0.2568 -0.3818
10636TIP3    H153323   0.707   6.090  16.479  0.0694 -0.1641 -0.2431
10636TIP3    H253324   0.700   5.939  16.476  1.4937 -0.2433 -0.3958
10637TIP3   OH253325   3.247   6.570  12.017  0.1173  1.0876  0.0098
10637TIP3    H153326   3.341   6.568  12.036  0.1440  4.0742  0.6636
10637TIP3    H253327   3.206   6.542  12.099  0.4123 -0.2871 -0.2962
10638TIP3   OH253328   3.800   6.746  11.873  0.1566 -0.1297 -0.6459
10638TIP3    H153329   3.759   6.826  11.841 -0.7691 -0.4775 -0.3379
10638TIP3    H253330   3.820   6.765  11.965 -0.3175 -0.3513 -0.4969
10639TIP3   OH253331   1.942   2.825  13.187 -0.2838 -0.2471 -0.3872
10639TIP3    H153332   1.947   2.731  13.168  0.6533 -0.1996 -0.4309
10639TIP3    H253333   1.918   2.830  13.279  0.4201 -0.5459 -0.1819
10640TIP3   OH253334   0.869   6.680  13.193  0.0023  0.2684  0.1762
10640TIP3    H153335   0.841   6.755  13.245  0.9327  1.9153 -1.5694
10640TIP3    H253336   0.964   6.677  13.205 -0.1685 -1.7239  1.5386
10641TIP3   OH253337   1.897   0.465  13.267 -0.6886 -0.1566  0.3800
10641TIP3    H153338   1.906   0.464  13.362 -1.6006  2.1036  0.5525
10641TIP3    H253339   1.803   0.475  13.252 -0.5209 -0.1836 -0.7670
10642TIP3   OH253340   6.057   4.353  13.001 -0.1328 -0.3962 -0.1761
10642TIP3    H153341   6.042   4.362  12.907 -0.7219  1.6775  0.0873
10642TIP3    H253342   5.971   4.364  13.040  0.2977 -0.0252  0.6810
10643TIP3   OH253343   3.453   1.922  16.664 -0.1717  0.1878  0.6275
10643TIP3    H153344   3.371   1.898  16.706  0.2604  1.1576  2.0983
10643TIP3    H253345   3.429   1.991  16.602 -0.5590  0.0597  0.6345
10644TIP3   OH253346   4.012   3.928  11.021  0.2032  0.3017 -0.4095
10644TIP3    H153347   4.040   3.878  11.097 -2.4586 -0.8899 -0.0800
10644TIP3    H253348   3.977   4.009  11.057  1.3053  0.8911 -0.6306
10645TIP3   OH253349   2.159   3.437   3.553  0.5831 -0.0927 -0.1143
10645TIP3    H153350   2.194   3.478   3.633 -0.1517  0.6197 -0.1517
10645TIP3    H253351   2.064   3.439   3.565  0.4599  0.2709 -1.1314
10646TIP3   OH253352   3.952   0.867   0.523 -0.5802 -0.2394  0.8429
10646TIP3    H153353   3.920   0.780   0.545 -0.5752 -0.2665  0.7446
10646TIP3    H253354   3.874   0.913   0.490 -0.2669 -0.7329 -0.6900
10647TIP3   OH253355   2.218   1.559  14.625 -0.3432  0.5100 -0.9797
10647TIP3    H153356   2.212   1.463  14.623  0.1496  0.2097  3.1285
10647TIP3    H253357   2.128   1.589  14.611 -0.6462 -0.5903 -1.4741
10648TIP3   OH253358   4.544   1.173  12.135  0.2659  0.0200 -0.0574
10648TIP3    H153359   4.541   1.122  12.217 -2.7131  0.0869  0.0170
10648TIP3    H253360   4.480   1.243  12.149  0.0174  0.2946 -2.2757
10649TIP3   OH253361   1.746   6.031   1.255 -0.3249 -0.2453  0.3501
10649TIP3    H153362   1.784   6.115   1.229  1.3707 -1.4860 -1.4885
10649TIP3    H253363   1.778   5.969   1.189 -2.0025 -2.2420  1.2979
10650TIP3   OH253364   4.061   5.924  12.928 -0.5585 -0.2302 -0.4421
10650TIP3    H153365   4.031   5.970  12.849 -0.9992  0.0217 -0.1374
10650TIP3    H253366   4.114   5.989  12.974  1.6729 -1.1033 -1.6491
10651TIP3   OH253367   2.229   0.725   1.812  0.0058  0.7571 -0.4353
10651TIP3    H153368   2.162   0.665   1.780 -1.8167  1.4509  1.8392
10651TIP3    H253369   2.271   0.758   1.733 -2.4415  0.4316 -1.9753
10652TIP3   OH253370   0.628   2.911   2.197 -0.1805 -0.7068  0.1936
10652TIP3    H153371   0.545   2.958   2.199  0.3037  0.1704  0.5583
10652TIP3    H253372   0.689   2.968   2.244  0.3491 -1.8819  0.9863
10653TIP3   OH253373   0.465   4.131  11.481 -0.7656  0.6221  0.1416
10653TIP3    H153374   0.399   4.070  11.511 -0.9614 -0.0532 -1.5408
10653TIP3    H253375   0.416   4.200  11.436 -0.3798  0.2714 -0.8580
10654TIP3   OH253376   2.422   1.440  10.634  0.0699 -0.1549 -0.0811
10654TIP3    H153377   2.497   1.395  10.674 -0.2270 -1.8451 -1.3257
10654TIP3    H253378   2.345   1.394  10.670 -0.3077  0.3022 -0.2938
10655TIP3   OH253379   4.151   6.024   2.678 -0.0706 -0.3031  0.5221
10655TIP3    H153380   4.239   5.997   2.705  0.7275 -0.0553 -1.6564
10655TIP3    H253381   4.127   6.092   2.741  2.1682  1.0867 -0.0261
10656TIP3   OH253382   6.035   6.327   2.930  0.1641  0.1721 -0.5891
10656TIP3    H153383   6.100   6.315   2.860  0.6150 -0.1368 -0.1177
10656TIP3    H253384   6.030   6.422   2.942  0.1026  0.2278 -1.0148
10657TIP3   OH253385   5.260   0.392  13.402 -0.1470  0.1372  0.4168
10657TIP3    H153386   5.353   0.378  13.419  0.1452  0.8362 -0.5305
10657TIP3    H253387   5.248   0.487  13.410 -0.7782  0.0590  0.4861
10658TIP3   OH253388   2.304   0.512   1.214 -0.7538  0.3654  0.9048
10658TIP3    H153389   2.367   0.541   1.280 -1.0285  1.9259  0.5116
10658TIP3    H253390   2.231   0.574   1.221  0.1121  1.9615 -2.2452
10659TIP3   OH253391   2.860   4.751  14.229  0.2678  0.3407 -0.0101
10659TIP3    H153392   2.862   4.836  14.186 -0.3817  1.1972  1.5574
10659TIP3    H253393   2.860   4.771  14.323  2.5519 -1.4589  0.4725
10660TIP3   OH253394   6.382   0.592   1.550 -0.6130 -0.4356 -0.0169
10660TIP3    H153395   6.444   0.662   1.571  0.7766 -1.6284  0.0559
10660TIP3    H253396   6.298   0.622   1.584  0.2019  0.6615  1.0881
10661TIP3   OH253397   3.939   3.100  15.969 -0.1777 -0.8330 -0.3138
10661TIP3    H153398   3.847   3.112  15.989 -0.3718 -1.2400 -0.9598
10661TIP3    H253399   3.972   3.188  15.950 -0.7589 -0.8582 -1.4791
10662TIP3   OH253400   6.548   6.288  16.243 -0.2123 -0.2635  0.1789
10662TIP3    H153401   6.576   6.199  16.225  0.2157 -0.0144 -0.4285
10662TIP3    H253402   6.533   6.290  16.337 -0.6950 -1.1007  0.1317
10663TIP3   OH253403   4.440   3.891   4.288 -0.1103  0.0613  0.6904
10663TIP3    H153404   4.491   3.971   4.304  3.3900 -1.8312  0.0947
10663TIP3    H253405   4.412   3.863   4.375  1.9337  0.0317  1.4088
10664TIP3   OH253406   2.816   2.072   1.181 -0.0764  0.0698  0.2035
10664TIP3    H153407   2.778   2.156   1.153 -0.4568  0.3643  1.5513
10664TIP3    H253408   2.748   2.032   1.235  1.1872  0.2318  1.9752
10665TIP3   OH253409   1.773   4.342   1.048 -0.2957  0.3810 -0.4193
10665TIP3    H153410   1.797   4.311   1.135 -1.2385  3.3020  1.0368
10665TIP3    H253411   1.677   4.342   1.049 -0.3122  0.9652 -1.2306
10666TIP3   OH253412   5.993   3.122  16.568 -0.7360  0.0469 -0.3588
10666TIP3    H153413   6.039   3.083  16.642 -0.9351  1.1597  0.3836
10666TIP3    H253414   5.900   3.118  16.593 -0.6686  2.5950  0.6202
10667TIP3   OH253415   2.129   0.802  12.547 -0.0847  0.3745 -0.5063
10667TIP3    H153416   2.208   0.777  12.499  0.5904 -1.3505  1.3412
10667TIP3    H253417   2.060   0.806  12.481  1.2885  0.6161 -1.9663
10668TIP3   OH253418   3.365   4.569   3.042 -0.2081  0.2666  0.1277
10668TIP3    H153419   3.437   4.631   3.051  0.1878 -0.1481 -0.1674
10668TIP3    H253420   3.293   4.621   3.005  0.2490  0.4615 -0.5061
10669TIP3   OH253421   1.605   6.687  16.876  0.0664 -0.4451  0.4651
10669TIP3    H153422   1.522   6.674  16.829 -0.4156  2.1080  0.4194
10669TIP3    H253423   1.668   6.633  16.830 -0.9606 -0.0642 -1.4891
10670TIP3   OH253424   6.081   2.250  16.891  0.7904  0.1828  0.4032
10670TIP3    H153425   6.128   2.181  16.845  0.8068  0.2326  0.3451
10670TIP3    H253426   6.125   2.331  16.864  0.9396  0.1924  0.6792
10671TIP3   OH253427   5.259   1.539  15.318  0.1672 -0.1566 -0.3302
10671TIP3    H153428   5.272   1.560  15.226 -0.1461  0.3176 -0.2678
10671TIP3    H253429   5.169   1.564  15.337  0.4779  0.5151  0.3121
10672TIP3   OH253430   1.020   1.578  16.795 -0.5185  0.3486 -0.1451
10672TIP3    H153431   0.938   1.627  16.783 -1.0784 -0.4197  0.4121
10672TIP3    H253432   1.004   1.524  16.873  0.1573 -0.5275 -0.5933
10673TIP3   OH253433   3.883   3.476  11.502  0.3165  0.3233  0.1666
10673TIP3    H153434   3.929   3.490  11.420 -1.1880  1.1303 -0.5867
10673TIP3    H253435   3.792   3.500  11.483 -0.0468  0.6671  2.0890
10674TIP3   OH253436   3.226   0.649   2.532 -0.4279 -0.0757  0.0249
10674TIP3    H153437   3.239   0.693   2.616 -0.1158  0.6638 -0.4024
10674TIP3    H253438   3.313   0.643   2.494  0.1227 -3.9739  1.4432
10675TIP3   OH253439   5.758   4.306   0.019  0.2445  0.5198 -0.0582
10675TIP3    H153440   5.764   4.215  -0.012  1.8992  0.5073  0.1902
10675TIP3    H253441   5.750   4.297   0.114  1.8861  0.6172  0.1183
10676TIP3   OH253442   3.284   0.904   1.828 -0.0503 -0.4216 -0.4458
10676TIP3    H153443   3.267   0.897   1.922  0.4924 -3.7147 -0.4696
10676TIP3    H253444   3.199   0.920   1.789 -0.2654  1.1141  0.5729
10677TIP3   OH253445   0.029   0.962  12.235  0.0157  0.4061 -0.0788
10677TIP3    H153446  -0.048   0.948  12.290 -1.0265 -0.7425 -1.7589
10677TIP3    H253447   0.021   0.899  12.164  2.5612  0.1843 -0.2906
10678TIP3   OH253448   0.162   0.339  11.311 -0.2122  0.5155 -0.1298
10678TIP3    H153449   0.205   0.419  11.279  0.4768 -0.0439 -0.6439
10678TIP3    H253450   0.069   0.355  11.300 -0.0640  1.1436 -0.4856
10679TIP3   OH253451   2.560   1.626   0.808  0.2128 -0.0477 -0.3040
10679TIP3    H153452   2.490   1.615   0.743  0.0210 -1.4669  0.0976
10679TIP3    H253453   2.597   1.712   0.789  0.9919 -0.8804 -3.1243
10680TIP3   OH253454   4.393   0.865   4.333 -0.2365  0.4934  0.1765
10680TIP3    H153455   4.314   0.913   4.359 -0.2041  0.4585  0.3422
10680TIP3    H253456   4.367   0.773   4.337  0.8543  0.1781  4.0273
10681TIP3   OH253457   1.153   0.931   4.966 -1.0611 -0.1034  0.3594
10681TIP3    H153458   1.194   0.894   5.045  0.0177 -0.3174 -0.2802
10681TIP3    H253459   1.145   0.856   4.906 -0.3303  0.3730 -0.3512
10682TIP3   OH253460   0.676   5.694   3.950 -0.7133 -0.1092  0.6414
10682TIP3    H153461   0.714   5.698   3.862 -1.6480  0.2898  0.2389
10682TIP3    H253462   0.599   5.638   3.940 -1.6784  1.1199  0.8501
10683TIP3   OH253463   5.377   3.955  16.352  0.1472  0.3344 -0.4602
10683TIP3    H153464   5.315   3.936  16.422  0.1149 -0.9627 -0.8267
10683TIP3    H253465   5.327   3.946  16.272  0.6578 -0.1229 -0.7320
10684TIP3   OH253466   6.684   2.873   0.483 -0.2821  0.3522 -0.3546
10684TIP3    H153467   6.706   2.942   0.545  0.0106  0.2318 -0.3228
10684TIP3    H253468   6.595   2.894   0.455 -1.9023 -1.5596  2.8102
10685TIP3   OH253469   5.997   1.710   2.114 -0.2035 -0.4666  0.2850
10685TIP3    H153470   6.061   1.777   2.090  0.0338 -0.4185  1.0433
10685TIP3    H253471   5.915   1.757   2.123 -0.0532 -0.2910  0.7399
10686TIP3   OH253472   6.423   4.274  16.452 -0.1479  0.5054 -0.2645
10686TIP3    H153473   6.329   4.277  16.432 -0.0562  1.3715 -0.5983
10686TIP3    H253474   6.460   4.218  16.384 -0.5198 -0.4742  0.3130
10687TIP3   OH253475   0.058   2.174   0.031 -0.0051  0.0866  0.2203
10687TIP3    H153476  -0.024   2.137  -0.000 -0.3153 -0.7373  1.9239
10687TIP3    H253477   0.038   2.266   0.049 -0.3730  0.0413  0.0537
10688TIP3   OH253478   3.122   6.383  11.730 -0.3816 -0.3830 -0.2946
10688TIP3    H153479   3.172   6.443  11.676 -0.3928  0.0484  0.1674
10688TIP3    H253480   3.187   6.344  11.789  0.0491 -2.5209 -2.0317
10689TIP3   OH253481   5.078   1.383  13.170 -0.2222  0.2623 -0.9419
10689TIP3    H153482   5.098   1.462  13.221 -1.2025 -0.1179  0.0620
10689TIP3    H253483   5.064   1.415  13.081  0.1484  1.1186 -0.7056
10690TIP3   OH253484   2.529   6.781   4.407  0.1439  0.5321 -0.5807
10690TIP3    H153485   2.476   6.758   4.331 -0.1144  0.8844 -0.5093
10690TIP3    H253486   2.485   6.857   4.445 -0.9841 -0.9220  1.1938
10691TIP3   OH253487   6.808   1.483   4.972 -0.5297 -0.7211  0.4220
10691TIP3    H153488   6.834   1.512   5.060 -0.5851  0.0761  0.1848
10691TIP3    H253489   6.715   1.508   4.966 -0.3825 -0.2682 -0.0597
10692TIP3   OH253490   4.109   3.861  12.657  0.5588 -0.1987 -0.6511
10692TIP3    H153491   4.050   3.926  12.616  0.7373  0.5077  0.1734
10692TIP3    H253492   4.066   3.777  12.642  0.7552 -0.0149 -2.5171
10693TIP3   OH253493   6.545   1.474  16.659  0.6624  0.7596 -0.3089
10693TIP3    H153494   6.597   1.554  16.647 -0.3173  1.3526 -0.6881
10693TIP3    H253495   6.597   1.421  16.721  2.8696  0.2979 -2.4019
10694TIP3   OH253496   0.709   4.120  11.675  0.0836 -0.2103  0.0043
10694TIP3    H153497   0.659   4.094  11.598 -0.3985  0.7556 -0.0210
10694TIP3    H253498   0.799   4.127  11.644 -0.3718  2.1026 -0.9986
10695TIP3   OH253499   3.434   0.544  12.866 -0.5296  0.5101 -0.3286
10695TIP3    H153500   3.529   0.548  12.864 -0.4383  0.4724  1.6996
10695TIP3    H253501   3.414   0.491  12.943 -2.1900 -1.5140 -2.0075
10696TIP3   OH253502   1.126   3.338   0.383 -0.0002 -0.2066  0.0404
10696TIP3    H153503   1.055   3.395   0.356  0.8775  0.8259 -0.1740
10696TIP3    H253504   1.206   3.387   0.362  0.7743 -1.1867  0.5706
10697TIP3   OH253505   0.761   2.102   5.078 -0.5208 -0.2790 -0.0211
10697TIP3    H153506   0.827   2.129   5.142  1.4542  1.5069 -2.6047
10697TIP3    H253507   0.811   2.057   5.010 -1.8715  1.3628 -2.2056
10698TIP3   OH253508   4.552   4.548  14.707 -0.3812 -0.5451 -0.1645
10698TIP3    H153509   4.613   4.486  14.747  0.8512  0.8388  0.1756
10698TIP3    H253510   4.567   4.538  14.613 -2.3257 -2.8323 -0.3350
10699TIP3   OH253511   4.331   1.087  15.955 -0.2693 -0.0728 -0.2022
10699TIP3    H153512   4.322   1.016  15.891  1.3011  0.2734 -0.8423
10699TIP3    H253513   4.309   1.166  15.906 -1.0973 -0.0074  0.2624
10700TIP3   OH253514   5.439   1.761  13.047  0.2624  0.9917 -0.1614
10700TIP3    H153515   5.404   1.711  12.974 -0.7085  0.1966  0.8054
10700TIP3    H253516   5.533   1.749  13.042  0.0445 -1.4940  0.3899
10701TIP3   OH253517   4.927   5.469   4.309 -0.3716  0.4884  0.4830
10701TIP3    H153518   4.832   5.465   4.297 -0.4771 -0.0121  1.3773
10701TIP3    H253519   4.940   5.458   4.403  0.5128  1.8223  0.5379
10702TIP3   OH253520   0.516   4.524   2.521 -0.0630 -0.2566 -0.0255
10702TIP3    H153521   0.531   4.451   2.582 -2.7580  0.6305  1.8943
10702TIP3    H253522   0.504   4.600   2.578 -1.9335  0.7632 -1.6794
10703TIP3   OH253523   4.312   6.151  13.605 -0.0032  0.3173 -0.2889
10703TIP3    H153524   4.276   6.136  13.518 -1.2800  1.6254 -0.0274
10703TIP3    H253525   4.268   6.088  13.661 -0.9550  1.0493 -0.1971
10704TIP3   OH253526   3.709   2.408  14.521 -0.0217 -0.2825 -0.2789
10704TIP3    H153527   3.687   2.319  14.495  1.1479 -0.5606 -0.3731
10704TIP3    H253528   3.693   2.460  14.442  0.1551 -0.5580 -0.4987
10705TIP3   OH253529   3.712   1.709  12.139 -0.5233  0.0006 -0.4258
10705TIP3    H153530   3.771   1.677  12.071 -0.1858  0.3958 -0.3226
10705TIP3    H253531   3.629   1.665  12.122  0.4519 -2.6325  0.9678
10706TIP3   OH253532   1.562   2.410   2.747  0.2023  0.2218  0.7784
10706TIP3    H153533   1.554   2.315   2.737 -0.5754  0.2914  0.7046
10706TIP3    H253534   1.482   2.446   2.709 -0.5751  0.7706  2.7610
10707TIP3   OH253535   0.356   0.847  12.310  0.0834  0.6662  0.0694
10707TIP3    H153536   0.440   0.835  12.355  0.7907 -1.5998 -1.6499
10707TIP3    H253537   0.374   0.912  12.242  0.9068 -0.7910 -1.1768
10708TIP3   OH253538   3.334   3.546   4.494 -0.3433 -1.1284  0.0495
10708TIP3    H153539   3.404   3.542   4.559 -0.0960 -2.0833 -0.2512
10708TIP3    H253540   3.253   3.548   4.545 -0.1243 -1.0044  0.3928
10709TIP3   OH253541   4.866   2.165  11.723  0.1037  0.0446 -0.2277
10709TIP3    H153542   4.850   2.075  11.751  0.3976  0.0637  0.0060
10709TIP3    H253543   4.822   2.218  11.789 -0.9888  0.0678 -0.9404
10710TIP3   OH253544   6.329   3.462  15.854  0.1002 -0.3906 -0.1857
10710TIP3    H153545   6.318   3.546  15.810  1.6105 -0.4890 -0.8265
10710TIP3    H253546   6.335   3.398  15.783  0.6950 -0.8024  0.2204
10711TIP3   OH253547   0.631   1.459  13.708  0.1865 -0.0947  0.1256
10711TIP3    H153548   0.715   1.414  13.694  0.9099  0.5907  1.8711
10711TIP3    H253549   0.610   1.440  13.800  0.3243  2.7034  0.8198
10712TIP3   OH253550   3.402   2.090   0.184  0.3450 -0.5143  0.0962
10712TIP3    H153551   3.322   2.047   0.152  0.1541 -1.1584  1.3691
10712TIP3    H253552   3.473   2.034   0.154  0.3190 -0.1179 -0.7541
10713TIP3   OH253553   0.978   3.849  12.323 -0.2264 -0.5830  0.0702
10713TIP3    H153554   0.900   3.902  12.339  0.3514  0.6655 -1.0601
10713TIP3    H253555   0.986   3.845  12.228  0.8178 -1.0912  0.1614
10714TIP3   OH253556   2.542   1.206  11.019  0.5957 -0.1053 -0.0469
10714TIP3    H153557   2.498   1.157  10.950 -0.9102  1.3038 -0.1453
10714TIP3    H253558   2.545   1.296  10.987  1.8011  0.1892  0.8234
10715TIP3   OH253559   3.774   3.255  14.580  0.1216  0.2392  1.0848
10715TIP3    H153560   3.833   3.285  14.649  0.6926 -1.0741  1.1973
10715TIP3    H253561   3.829   3.250  14.502  0.5060 -2.1117  1.4421
10716TIP3   OH253562   4.746   5.552   2.550 -0.1274  0.4112 -0.1182
10716TIP3    H153563   4.755   5.636   2.505  2.1051 -0.0516 -0.6671
10716TIP3    H253564   4.723   5.576   2.640  0.5981  1.6342 -0.2273
10717TIP3   OH253565   4.531   6.242  15.470 -0.0435 -0.2774  0.5060
10717TIP3    H153566   4.438   6.237  15.492 -0.3919  1.3111 -0.4494
10717TIP3    H253567   4.575   6.205  15.547 -1.4333 -0.9673  1.0229
10718TIP3   OH253568   3.005   6.047   3.465 -0.0559 -0.8515  0.1396
10718TIP3    H153569   2.964   5.974   3.420  0.7913 -1.1213 -0.2274
10718TIP3    H253570   3.095   6.018   3.481 -0.0976 -0.4124  1.2157
10719TIP3   OH253571   3.882   2.229  14.978  1.0183 -0.0117  0.3422
10719TIP3    H153572   3.824   2.179  14.920  1.4414 -0.0456 -0.0569
10719TIP3    H253573   3.953   2.169  14.998  1.5121  0.4104 -0.1127
10720TIP3   OH253574   1.294   6.097  10.777  0.1414  0.0557  0.1920
10720TIP3    H153575   1.380   6.074  10.743  0.5514  1.4659  0.2047
10720TIP3    H253576   1.240   6.020  10.760  1.2492 -0.6327 -0.3418
10721TIP3   OH253577   4.516   1.070  11.554 -0.3340  0.2161  0.2823
10721TIP3    H153578   4.601   1.108  11.529 -0.6088  0.2544 -0.6214
10721TIP3    H253579   4.505   1.097  11.645  1.2833 -1.0029  0.8907
10722TIP3   OH253580   6.344   3.269   5.183 -0.2611 -0.1912  0.2012
10722TIP3    H153581   6.404   3.210   5.228 -1.5263 -0.5666  1.4514
10722TIP3    H253582   6.378   3.357   5.201  1.3467 -0.4417 -1.2619
10723TIP3   OH253583   5.534   6.172  12.696 -0.0120  0.3319  0.2576
10723TIP3    H153584   5.599   6.207  12.756 -0.9098  1.5358  0.5734
10723TIP3    H253585   5.553   6.216  12.613 -0.7664  1.1388  0.4996
10724TIP3   OH253586   1.135   5.495  11.646  0.0616  0.5122  0.0987
10724TIP3    H153587   1.184   5.413  11.648 -0.5854  0.0772 -0.9721
10724TIP3    H253588   1.200   5.562  11.624  0.3812  0.1173 -0.1566
10725TIP3   OH253589   5.371   2.231  12.245 -0.2160  0.1371  0.0618
10725TIP3    H153590   5.434   2.263  12.310 -0.6217  0.6670  0.2023
10725TIP3    H253591   5.410   2.251  12.161 -0.5173  1.1269  0.1488
10726TIP3   OH253592   4.513   6.535  14.276  1.0709  0.4311 -0.0424
10726TIP3    H153593   4.476   6.568  14.359 -0.3876  0.1147 -0.5340
10726TIP3    H253594   4.440   6.540  14.214  1.7940 -0.4879 -0.9970
10727TIP3   OH253595   4.377   2.320   3.873 -0.2595  0.2039 -0.1365
10727TIP3    H153596   4.390   2.240   3.925 -0.8201  1.3426  1.8721
10727TIP3    H253597   4.325   2.292   3.798 -3.7429 -0.7808  2.3937
10728TIP3   OH253598   0.065   2.739  14.520  0.5921 -0.6230  0.3875
10728TIP3    H153599   0.045   2.805  14.454 -1.7762 -1.5832  0.0409
10728TIP3    H253600   0.026   2.773  14.601  0.0317 -1.2119  0.3770
10729TIP3   OH253601   2.114   3.774   4.905 -0.2324  0.1234  0.1415
10729TIP3    H153602   2.099   3.868   4.890 -0.8126 -0.1869 -1.3742
10729TIP3    H253603   2.027   3.739   4.922 -0.0572 -0.2177  0.3491
10730TIP3   OH253604   0.589   2.250  12.252  0.0380  0.0360  0.1876
10730TIP3    H153605   0.661   2.188  12.265  0.4362  0.6453  0.9852
10730TIP3    H253606   0.598   2.313  12.323 -1.3507  0.0686  0.3730
10731TIP3   OH253607   0.359   3.027  15.645  0.1357 -0.6178 -0.3784
10731TIP3    H153608   0.330   3.098  15.588 -0.8511 -0.1257  0.6968
10731TIP3    H253609   0.305   2.952  15.619  0.1120 -0.5617 -0.4937
10732TIP3   OH253610   6.428   3.810   2.173  0.3593 -0.1022 -0.8283
10732TIP3    H153611   6.510   3.828   2.128 -0.0615  0.6320 -1.3204
10732TIP3    H253612   6.373   3.886   2.155  0.2003  0.2657  0.9765
10733TIP3   OH253613   3.119   4.617  13.069  0.6065 -0.6383  0.3535
10733TIP3    H153614   3.186   4.585  13.008  0.5368 -1.9866  0.9487
10733TIP3    H253615   3.043   4.562  13.053  1.2368 -2.4890  3.0495
10734TIP3   OH253616   2.699   5.123  12.238 -0.0658  0.0457 -0.3311
10734TIP3    H153617   2.767   5.107  12.303 -0.1227  3.1290  0.6442
10734TIP3    H253618   2.637   5.050  12.249  1.1297 -0.7688  1.4066
10735TIP3   OH253619   4.993   4.634   4.514 -0.1088  0.1894  0.4718
10735TIP3    H153620   5.062   4.586   4.559 -0.2520  0.1273  0.6230
10735TIP3    H253621   4.919   4.634   4.574 -0.7616 -1.0445 -0.3005
10736TIP3   OH253622   2.394   0.198  10.253  0.1359  0.1616 -0.1858
10736TIP3    H153623   2.452   0.242  10.190  0.1427  0.0233 -0.2772
10736TIP3    H253624   2.387   0.259  10.326  1.1875 -0.2193  0.2645
10737TIP3   OH253625   4.261   5.871   1.539  0.4054 -0.1108  0.6236
10737TIP3    H153626   4.187   5.841   1.591 -1.2512  0.5446 -1.2286
10737TIP3    H253627   4.321   5.796   1.537 -0.0749 -0.5863  2.2982
10738TIP3   OH253628   1.758   5.852   4.928  0.3210 -0.1216  0.4508
10738TIP3    H153629   1.778   5.759   4.924 -1.8236 -0.6576  0.8216
10738TIP3    H253630   1.719   5.865   5.014 -1.7081  0.5492 -0.4977
10739TIP3   OH253631   2.392   2.969   1.435  0.2695  0.0754 -0.0537
10739TIP3    H153632   2.486   2.952   1.429 -0.1005 -1.6458 -3.3043
10739TIP3    H253633   2.357   2.891   1.478  0.1710 -0.1252 -0.4909
10740TIP3   OH253634   0.553   3.726  14.849 -0.3701 -0.0103  0.9793
10740TIP3    H153635   0.549   3.783  14.772  1.1139 -1.2754 -0.0936
10740TIP3    H253636   0.489   3.657  14.832  0.7290 -0.8967  0.3264
10741TIP3   OH253637   0.533   0.077   4.178  0.4394  0.1522  0.6522
10741TIP3    H153638   0.624   0.054   4.197  0.6828  0.1035 -0.4816
10741TIP3    H253639   0.537   0.170   4.154  0.4074 -0.1561 -0.6234
10742TIP3   OH253640   1.123   4.369  14.231  0.3827  0.1937 -0.3954
10742TIP3    H153641   1.086   4.388  14.318  0.9942  0.6458 -0.2264
10742TIP3    H253642   1.063   4.305  14.193 -1.2395  1.7418 -0.5899
10743TIP3   OH253643   0.489   6.526  11.332  0.1697 -0.2709  0.1862
10743TIP3    H153644   0.494   6.433  11.352 -1.4563 -0.1750  1.2198
10743TIP3    H253645   0.453   6.566  11.411 -0.7074  0.9932 -0.8042
10744TIP3   OH253646   3.829   4.111   3.689 -0.4809  0.1982  0.2061
10744TIP3    H153647   3.828   4.155   3.774  0.2751  1.0586 -0.2032
10744TIP3    H253648   3.921   4.114   3.662 -0.7740  0.3430 -0.8335
10745TIP3   OH253649   2.516   1.147   1.789  0.5914  0.2174 -0.2702
10745TIP3    H153650   2.602   1.164   1.827  1.1767 -1.3274 -0.8170
10745TIP3    H253651   2.492   1.230   1.747  1.7374  0.7286  0.0243
10746TIP3   OH253652   2.389   5.969   4.717 -0.4420 -0.2088  0.4302
10746TIP3    H153653   2.439   5.890   4.736 -1.8138 -1.0090  0.8790
10746TIP3    H253654   2.354   5.997   4.802  0.4989  1.2528  0.3845
10747TIP3   OH253655   6.374   5.185  13.667 -0.7610  0.4927 -0.3620
10747TIP3    H153656   6.295   5.224  13.705 -1.9548 -0.6415 -1.5907
10747TIP3    H253657   6.344   5.104  13.627  1.0859 -0.0847 -0.6687
10748TIP3   OH253658   1.897   0.224  13.595  0.2530  0.5233 -0.0001
10748TIP3    H153659   1.924   0.308  13.633  0.5291 -0.5214  2.2560
10748TIP3    H253660   1.923   0.230  13.503 -0.2116  3.0916 -0.0329
10749TIP3   OH253661   3.322   5.269   0.719  0.2869  0.2938 -0.5159
10749TIP3    H153662   3.398   5.327   0.728  0.5116 -0.2630  1.9448
10749TIP3    H253663   3.256   5.309   0.775 -0.5503 -0.3236 -1.0504
10750TIP3   OH253664   1.774   5.712  16.932 -0.2512  0.0003 -0.0180
10750TIP3    H153665   1.787   5.618  16.923  0.5812  0.2454 -1.6463
10750TIP3    H253666   1.767   5.745  16.842 -0.1412  1.5416  0.5029
10751TIP3   OH253667   2.157   3.533   1.528 -0.3262  0.7014  0.4369
10751TIP3    H153668   2.242   3.488   1.529 -1.0163 -0.9167 -2.5724
10751TIP3    H253669   2.171   3.610   1.474 -0.3703  1.4203  1.4330
10752TIP3   OH253670   2.723   1.532   1.464  0.4836 -0.1825 -0.3042
10752TIP3    H153671   2.776   1.611   1.475  0.8021 -0.4855  0.4233
10752TIP3    H253672   2.707   1.527   1.370  0.8400  0.4999 -0.4099
10753TIP3   OH253673   0.775   3.304  14.818 -0.1500  0.2906  1.4525
10753TIP3    H153674   0.776   3.329  14.911 -0.8523 -0.0236  1.5594
10753TIP3    H253675   0.810   3.215  14.817 -1.9424 -0.4706  1.6995
10754TIP3   OH253676   0.471   5.510   0.793 -0.0848 -0.5449  0.4698
10754TIP3    H153677   0.501   5.437   0.848  0.0051  0.8809  2.4221
10754TIP3    H253678   0.551   5.554   0.765 -0.1664 -0.7147 -0.0454
10755TIP3   OH253679   2.626   5.567  15.208  0.2740 -0.2480  0.0527
10755TIP3    H153680   2.624   5.544  15.115  2.0562 -1.3155  0.2414
10755TIP3    H253681   2.534   5.570  15.233 -0.2713  0.4572 -1.8212
10756TIP3   OH253682   3.459   5.162   1.324  0.3766 -0.2006  0.2368
10756TIP3    H153683   3.532   5.140   1.382 -1.0975 -1.3019  1.7758
10756TIP3    H253684   3.389   5.191   1.383 -0.1291  1.8343 -1.2693
10757TIP3   OH253685   5.049   0.153   0.432 -0.3203  0.3187 -0.3969
10757TIP3    H153686   5.123   0.119   0.381 -0.2488  0.0578 -0.1213
10757TIP3    H253687   5.073   0.137   0.523 -0.3044  1.0761 -0.2622
10758TIP3   OH253688   2.237   2.237  16.251 -0.2128 -0.5036  0.6315
10758TIP3    H153689   2.150   2.197  16.252 -1.2680  1.4221 -1.7366
10758TIP3    H253690   2.297   2.163  16.244 -1.6965 -1.8594  1.5999
10759TIP3   OH253691   4.667   0.816  14.524  0.1832  0.1859 -0.8632
10759TIP3    H153692   4.658   0.817  14.429  0.9279  1.8010 -0.9414
10759TIP3    H253693   4.621   0.736  14.551 -1.8794  0.7821 -2.3825
10760TIP3   OH253694   0.253   0.803  16.381 -0.5458  0.0711 -0.9597
10760TIP3    H153695   0.164   0.839  16.389 -0.7424 -0.4174 -0.8423
10760TIP3    H253696   0.239   0.714  16.349 -0.1400 -0.2212 -0.3521
10761TIP3   OH253697   3.778   2.870   1.411 -0.0300  0.7168  0.6543
10761TIP3    H153698   3.802   2.871   1.504 -0.6335 -0.7146  0.8503
10761TIP3    H253699   3.855   2.905   1.366  0.7948  0.1702  1.5975
10762TIP3   OH253700   3.268   2.603  13.474 -0.0975 -0.2409 -0.2861
10762TIP3    H153701   3.332   2.658  13.521 -0.1188  0.4644 -1.0528
10762TIP3    H253702   3.206   2.576  13.542  0.7369 -0.5326  0.3821
10763TIP3   OH253703   5.011   4.938   0.822 -0.4200  0.2563 -0.3461
10763TIP3    H153704   5.031   4.911   0.911 -0.1140 -0.4084 -0.6109
10763TIP3    H253705   5.066   4.883   0.767 -0.7471  0.5259 -0.9582
10764TIP3   OH253706   0.607   3.410  15.056 -0.1471 -0.4490  0.4397
10764TIP3    H153707   0.519   3.411  15.019  0.2223 -3.3293 -0.7587
10764TIP3    H253708   0.610   3.330  15.109  2.1435 -1.2678 -0.7842
10765TIP3   OH253709   2.969   0.686   5.312 -0.0223  0.1329  0.1378
10765TIP3    H153710   3.024   0.760   5.288 -0.2724  0.3719  0.2898
10765TIP3    H253711   2.983   0.674   5.406 -1.3832  1.1930  0.5166
10766TIP3   OH253712   3.621   2.408   0.329 -0.6742  0.0299 -0.0320
10766TIP3    H153713   3.627   2.316   0.353  1.6915 -0.2803 -1.4527
10766TIP3    H253714   3.613   2.454   0.412 -1.9110 -1.4385  0.7045
10767TIP3   OH253715   6.095   3.805  13.103  0.3906 -0.0580  0.3897
10767TIP3    H153716   6.112   3.798  13.197  0.8847 -0.7739  0.2518
10767TIP3    H253717   6.004   3.834  13.098  0.2696 -0.2915  1.0923
10768TIP3   OH253718   3.793   1.975  14.294 -0.2852 -0.2570 -0.1761
10768TIP3    H153719   3.823   1.926  14.217  0.1100 -1.5047  0.7280
10768TIP3    H253720   3.698   1.982  14.281 -0.3222 -1.0663 -0.4646
10769TIP3   OH253721   2.168   6.530   4.078  0.4610 -0.2155 -0.0711
10769TIP3    H153722   2.130   6.456   4.125  0.9509  1.0876  2.4988
10769TIP3    H253723   2.148   6.511   3.986 -2.2176 -1.9499  0.7220
10770TIP3   OH253724   4.527   6.387   3.084  0.1882  0.0937  0.1679
10770TIP3    H153725   4.515   6.349   3.172  1.3575  2.1031  1.2721
10770TIP3    H253726   4.598   6.336   3.046 -0.1990 -0.6776  0.4404
10771TIP3   OH253727   5.281   1.936   1.379  0.4330 -0.1893 -0.3956
10771TIP3    H153728   5.280   2.032   1.379 -1.1854 -0.0830  2.2682
10771TIP3    H253729   5.309   1.912   1.291 -0.9503  2.7314 -1.7750
10772TIP3   OH253730   4.964   1.555   3.064  0.6397 -0.1010 -0.6534
10772TIP3    H153731   5.032   1.582   3.126  0.2510  0.3607 -0.4282
10772TIP3    H253732   5.011   1.500   3.000  1.4433  1.0585 -1.0952
10773TIP3   OH253733   3.901   5.879   5.730  0.0352 -0.4525 -0.4063
10773TIP3    H153734   3.858   5.937   5.793  0.7862 -0.0953 -0.2102
10773TIP3    H253735   3.831   5.851   5.671 -0.7432 -1.0466  0.7698
10774TIP3   OH253736   3.640   5.091  17.005 -0.4564 -0.2805  0.2820
10774TIP3    H153737   3.567   5.130  16.956  0.7836  2.1354  0.2673
10774TIP3    H253738   3.629   5.123  17.094  2.5723  3.4363 -0.4153
10775TIP3   OH253739   1.973   4.942  13.042 -0.4925 -0.0301 -0.0121
10775TIP3    H153740   2.034   4.869  13.053 -0.0950  0.4511  1.1436
10775TIP3    H253741   1.981   4.966  12.949  3.0721  1.6398  0.5310
10776TIP3   OH253742   4.820   3.616   5.455 -0.2324  1.0028  0.8782
10776TIP3    H153743   4.838   3.593   5.364 -0.2527 -0.2521  1.1767
10776TIP3    H253744   4.802   3.533   5.498 -1.3785  1.6878  1.7896
10777TIP3   OH253745   5.327   2.136   5.546 -0.0800 -0.3956  0.2814
10777TIP3    H153746   5.285   2.142   5.632  1.6757  0.3345  1.1377
10777TIP3    H253747   5.377   2.055   5.549  0.3946 -0.1108  0.1481
10778TIP3   OH253748   6.033   2.705  14.044 -0.2419  0.0154 -0.3503
10778TIP3    H153749   6.117   2.711  13.999  1.8409 -1.5071  2.9748
10778TIP3    H253750   6.016   2.793  14.076  0.4733  0.1675 -0.3831
10779TIP3   OH253751   3.577   1.543  14.758 -0.1789 -0.1460 -0.1331
10779TIP3    H153752   3.640   1.473  14.777 -1.2773 -1.4761 -1.1440
10779TIP3    H253753   3.526   1.510  14.684 -1.3984  1.3243 -0.0039
10780TIP3   OH253754   1.253   6.188   2.541 -0.5632  0.2572  0.1725
10780TIP3    H153755   1.251   6.281   2.518 -2.7195  0.6707  1.7195
10780TIP3    H253756   1.189   6.180   2.611 -0.5639 -2.4520 -0.0574
10781TIP3   OH253757   1.093   2.926  16.014 -0.3425 -0.2926  0.0664
10781TIP3    H153758   1.152   2.866  15.967 -1.5643  0.8382 -3.2140
10781TIP3    H253759   1.091   3.005  15.959 -0.1763  2.1465  3.2951
10782TIP3   OH253760   5.828   3.124   1.176  0.0163  0.1752  0.6313
10782TIP3    H153761   5.895   3.164   1.121  0.4198  0.5184  1.3521
10782TIP3    H253762   5.861   3.036   1.195  0.3884  0.4331  1.1922
10783TIP3   OH253763   3.207   2.054  14.481 -0.1307  1.0129 -0.0482
10783TIP3    H153764   3.209   2.149  14.491  1.4824  0.9799  0.2248
10783TIP3    H253765   3.297   2.026  14.497 -0.1334 -0.3781 -2.0747
10784TIP3   OH253766   4.300   6.443   4.716 -0.0226 -0.4793 -0.4153
10784TIP3    H153767   4.267   6.490   4.792 -0.5861  0.3905 -1.1849
10784TIP3    H253768   4.268   6.353   4.728 -0.1968 -0.3238  0.3134
10785TIP3   OH253769   0.153   4.822  11.159 -0.4155  0.4629  0.0871
10785TIP3    H153770   0.150   4.915  11.138 -1.5549  0.2872 -0.6140
10785TIP3    H253771   0.192   4.781  11.081  3.4947  0.6488  1.7093
10786TIP3   OH253772   4.313   3.974  14.171  0.0588 -0.1562 -0.0481
10786TIP3    H153773   4.272   4.028  14.104  0.5612 -0.5785 -0.7082
10786TIP3    H253774   4.389   3.936  14.128 -0.2507 -1.3450  0.4196
10787TIP3   OH253775   0.424   6.798  17.012  0.3365  0.0242 -0.1403
10787TIP3    H153776   0.506   6.755  16.988 -0.4830 -0.5322 -2.1171
10787TIP3    H253777   0.390   6.833  16.929 -0.8338  1.3215  0.8317
10788TIP3   OH253778   5.374   5.890  15.144 -0.1476  0.0296  0.0733
10788TIP3    H153779   5.368   5.924  15.055  0.0149 -0.3019 -0.0661
10788TIP3    H253780   5.463   5.856  15.151  0.0318  0.5800  0.5572
10789TIP3   OH253781   1.474   2.164   1.427 -0.4206  0.1261 -0.0448
10789TIP3    H153782   1.473   2.257   1.449  0.7541  0.0286  0.4798
10789TIP3    H253783   1.383   2.144   1.405 -0.6362  1.4523 -0.4444
10790TIP3   OH253784   1.819   5.337  12.221 -0.1410  0.0327 -0.7518
10790TIP3    H153785   1.857   5.286  12.293  0.8686  1.3934 -0.2937
10790TIP3    H253786   1.878   5.321  12.147  0.2811  0.6438 -0.5582
10791TIP3   OH253787   4.796   3.784  11.483 -0.4827  0.1510  0.1387
10791TIP3    H153788   4.732   3.713  11.476 -0.6253  0.2537  0.3802
10791TIP3    H253789   4.779   3.823  11.569  1.5679 -1.4213  1.3358
10792TIP3   OH253790   0.878   0.725  10.543 -0.4885 -0.0615  0.2492
10792TIP3    H153791   0.794   0.743  10.586 -0.6915  0.7926 -0.4863
10792TIP3    H253792   0.854   0.681  10.462 -0.1729 -0.5094  0.3942
10793TIP3   OH253793   6.623   0.407  15.429  0.0425 -0.0537  0.1857
10793TIP3    H153794   6.607   0.337  15.366 -1.7458  1.2644 -0.9088
10793TIP3    H253795   6.654   0.481  15.376  1.0797  0.2768  1.2057
10794TIP3   OH253796   5.584   3.925  11.100 -0.2571  0.5564 -0.3670
10794TIP3    H153797   5.514   3.860  11.090  1.0081 -1.0151  0.5755
10794TIP3    H253798   5.579   3.951  11.191  0.1963  0.6570 -0.3714
10795TIP3   OH253799   0.957   2.574  15.666 -0.2563  0.0341  0.0727
10795TIP3    H153800   0.866   2.603  15.674 -0.1509  0.3766  0.0430
10795TIP3    H253801   1.008   2.655  15.661 -0.0089 -0.1567 -0.6321
10796TIP3   OH253802   1.800   0.712   3.732  0.3542 -0.4181 -0.3041
10796TIP3    H153803   1.762   0.740   3.649  0.6189  1.4579  0.1540
10796TIP3    H253804   1.736   0.651   3.769 -2.4901  2.7550  0.5460
10797TIP3   OH253805   6.309   4.528   0.219  0.0701  0.7023  0.3069
10797TIP3    H153806   6.365   4.559   0.148  0.8108  1.1586  1.0683
10797TIP3    H253807   6.267   4.450   0.184 -0.1337  1.3251 -0.8741
10798TIP3   OH253808   0.992   2.791   4.374 -0.4277  0.3259 -0.0569
10798TIP3    H153809   0.981   2.709   4.422 -1.8356  0.7358  0.3670
10798TIP3    H253810   0.991   2.765   4.282 -0.5347 -0.1633  0.0826
10799TIP3   OH253811   4.369   5.540   4.377  0.1873  0.3408  0.0733
10799TIP3    H153812   4.308   5.557   4.305 -0.5570  1.3761  0.9162
10799TIP3    H253813   4.455   5.544   4.337 -0.2285  0.4781 -0.8372
10800TIP3   OH253814   2.841   2.840  14.758  0.3644 -0.0646 -0.0855
10800TIP3    H153815   2.920   2.845  14.704  0.1132 -0.7395 -0.5195
10800TIP3    H253816   2.778   2.896  14.712  0.2261 -0.4473 -0.3613
10801TIP3   OH253817   1.639   2.879   0.686 -0.2363  0.3351 -0.4237
10801TIP3    H153818   1.652   2.803   0.630 -0.6697  1.5340 -2.2323
10801TIP3    H253819   1.558   2.919   0.654 -0.1659  1.4011  0.6574
10802TIP3   OH253820   4.176   0.247  12.244  0.3561  0.5122  0.9178
10802TIP3    H153821   4.249   0.300  12.213  0.3874  1.3093  2.2454
10802TIP3    H253822   4.192   0.160  12.208  1.6085  0.8282  0.6626
10803TIP3   OH253823   1.519   4.494  15.231 -0.3740 -0.1991 -0.0337
10803TIP3    H153824   1.429   4.526  15.229 -1.1149 -2.1334 -1.8990
10803TIP3    H253825   1.515   4.414  15.283  0.0277 -0.7925 -0.8723
10804TIP3   OH253826   5.956   4.641   1.994 -0.2722  0.0461  0.3910
10804TIP3    H153827   5.872   4.686   2.003 -1.4939 -2.1602  0.5173
10804TIP3    H253828   5.938   4.550   2.017  2.7614 -0.0319  3.2293
10805TIP3   OH253829   4.917   0.161  11.620  0.3991  0.3433  0.0753
10805TIP3    H153830   4.929   0.247  11.661  1.3076  0.0628  0.4314
10805TIP3    H253831   5.005   0.137  11.590  0.0390 -0.1900 -0.5717
10806TIP3   OH253832   4.719   6.565  10.756 -0.2297  0.1709  0.2234
10806TIP3    H153833   4.699   6.658  10.746  0.5275  0.3339  0.1577
10806TIP3    H253834   4.739   6.554  10.849 -0.5333  0.0254  0.2735
10807TIP3   OH253835   6.343   0.800   4.356 -0.1507 -0.0726 -0.2164
10807TIP3    H153836   6.252   0.829   4.353 -1.0779 -2.8194 -2.0490
10807TIP3    H253837   6.385   0.845   4.281 -0.8211 -1.1007 -1.2392
10808TIP3   OH253838   5.705   3.594   2.744  0.0443  0.0462 -0.1765
10808TIP3    H153839   5.671   3.558   2.825  0.7702  3.0737  1.6217
10808TIP3    H253840   5.656   3.676   2.732  1.0942  0.4670 -1.9083
10809TIP3   OH253841   6.503   5.395  11.171  0.2209 -1.0920 -0.3711
10809TIP3    H153842   6.410   5.410  11.190  0.2732 -1.4955  0.2076
10809TIP3    H253843   6.520   5.450  11.094  0.1435  1.0005  1.0138
10810TIP3   OH253844   2.721   2.362  15.087 -0.0996 -0.7498  0.0216
10810TIP3    H153845   2.713   2.446  15.132 -0.0687 -0.0619 -1.2247
10810TIP3    H253846   2.713   2.383  14.994 -0.1957 -2.1429 -0.3103
10811TIP3   OH253847   4.679   0.849   6.005 -0.0091 -0.1087  0.5095
10811TIP3    H153848   4.763   0.882   5.973  0.2995 -1.5171 -0.1869
10811TIP3    H253849   4.697   0.819   6.094 -0.1219  0.8380  0.8730
10812TIP3   OH253850   1.918   3.390   2.302 -0.0504  0.2639  0.4399
10812TIP3    H153851   2.011   3.404   2.281 -0.0649  0.5590  0.5662
10812TIP3    H253852   1.914   3.298   2.329 -0.3114 -0.6343 -2.3596
10813TIP3   OH253853   4.781   6.550   0.319 -0.4292  0.9499  0.0269
10813TIP3    H153854   4.716   6.618   0.297 -1.4790  0.5008  1.5886
10813TIP3    H253855   4.747   6.471   0.278  0.0646  1.0657 -0.6184
10814TIP3   OH253856   5.823   1.908   0.612  0.0320 -0.1102 -0.2983
10814TIP3    H153857   5.765   1.945   0.545  1.0795 -0.6375 -1.5376
10814TIP3    H253858   5.815   1.813   0.601  1.4788 -0.1971 -0.8530
10815TIP3   OH253859   1.947   5.759   5.998 -0.1289  0.0432 -0.4667
10815TIP3    H153860   1.889   5.685   5.984 -0.1201  0.2838 -1.8519
10815TIP3    H253861   1.907   5.807   6.071 -0.8830 -0.5618 -0.4706
10816TIP3   OH253862   5.439   0.765   1.598 -0.1827  0.3458 -0.1242
10816TIP3    H153863   5.531   0.786   1.581 -0.3578  1.5411  0.3013
10816TIP3    H253864   5.428   0.783   1.692 -0.1796 -2.4307  0.4703
10817TIP3   OH253865   4.668   3.563   2.561  0.4347 -0.4250 -0.4056
10817TIP3    H153866   4.761   3.552   2.539  0.9343 -0.8704  1.6889
10817TIP3    H253867   4.667   3.572   2.656 -1.4400  2.4857 -0.5849
10818TIP3   OH253868   5.050   6.712   4.054  0.2089  0.2746  0.0646
10818TIP3    H153869   5.059   6.759   3.971  0.8632  0.5411  0.2785
10818TIP3    H253870   5.070   6.778   4.121 -3.8083  1.1480  0.7160
10819TIP3   OH253871   6.494   3.921  15.957  0.3172 -0.2069  0.2125
10819TIP3    H153872   6.465   3.960  16.040  1.0865  0.3451  0.2283
10819TIP3    H253873   6.555   3.852  15.983 -0.5668 -1.0413  0.1550
10820TIP3   OH253874   2.258   1.551  16.879  0.2239  0.1372  0.1759
10820TIP3    H153875   2.181   1.496  16.886  0.4053  0.0680  2.5552
10820TIP3    H253876   2.332   1.489  16.877  0.2797  0.2273 -1.0156
10821TIP3   OH253877   2.938   5.882  12.719 -0.5300  0.4390 -0.4765
10821TIP3    H153878   2.987   5.861  12.799  0.0854  0.1930 -0.9084
10821TIP3    H253879   2.997   5.939  12.669 -0.7274  0.2355 -0.9514
10822TIP3   OH253880   4.187   5.332   3.235  0.0276  0.6909  0.9186
10822TIP3    H153881   4.225   5.338   3.323  0.2645  0.8552  0.8070
10822TIP3    H253882   4.093   5.330   3.249  0.0009  2.2778  1.1001
10823TIP3   OH253883   4.824   4.134   3.251 -0.0999  0.3484 -0.4799
10823TIP3    H153884   4.811   4.206   3.312 -0.0134 -0.1951  0.1940
10823TIP3    H253885   4.827   4.056   3.306 -0.7891 -0.2377 -1.2569
10824TIP3   OH253886   0.036   6.187   1.489  0.0147  0.5818  0.6495
10824TIP3    H153887   0.031   6.280   1.511 -1.2696  0.5705  0.5001
10824TIP3    H253888  -0.049   6.152   1.516  0.7545 -0.7119  1.3909
10825TIP3   OH253889   5.141   3.464   4.576  0.1069  0.4821 -0.0072
10825TIP3    H153890   5.050   3.434   4.568  0.4469 -0.8407  0.7813
10825TIP3    H253891   5.193   3.393   4.539  0.9455 -0.0485  2.0289
10826TIP3   OH253892   4.888   6.481   4.169 -0.2833 -0.2741  0.2111
10826TIP3    H153893   4.936   6.551   4.125 -0.5702  0.0631  0.4338
10826TIP3    H253894   4.801   6.482   4.127  0.1591 -1.4483 -0.7996
10827TIP3   OH253895   3.383   4.517  13.454 -0.0360  0.4592  0.2110
10827TIP3    H153896   3.339   4.586  13.503 -0.2332 -0.8549  1.9805
10827TIP3    H253897   3.314   4.475  13.403 -0.6029 -0.5752  1.7583
10828TIP3   OH253898   1.711   4.096   3.994  0.1717  0.0327  0.4089
10828TIP3    H153899   1.725   4.017   3.941  0.8622  0.4666 -0.0688
10828TIP3    H253900   1.707   4.167   3.930 -2.6411  0.1835  0.6144
10829TIP3   OH253901   0.591   1.378  16.077  0.6054 -0.1573  0.1396
10829TIP3    H153902   0.566   1.309  16.016  0.4728 -0.1643  0.2005
10829TIP3    H253903   0.677   1.407  16.047  2.0868 -2.4250  1.8638
10830TIP3   OH253904   2.480   4.873   4.904 -0.4256  0.0925 -0.0718
10830TIP3    H153905   2.471   4.782   4.876 -1.8854  0.4092 -0.7578
10830TIP3    H253906   2.418   4.921   4.848 -0.9014  1.2606  1.3865
10831TIP3   OH253907   0.993   4.236   2.458 -0.6701 -0.4078  0.2070
10831TIP3    H153908   1.043   4.174   2.511 -0.4184  0.3095  0.8286
10831TIP3    H253909   1.051   4.312   2.451 -0.4377 -0.7071 -1.6187
10832TIP3   OH253910   3.748   6.519  11.417 -0.6047 -0.3055 -0.4590
10832TIP3    H153911   3.751   6.527  11.321  0.2848 -0.8680 -0.4829
10832TIP3    H253912   3.816   6.455  11.438  0.1603  0.8339  0.6611
10833TIP3   OH253913   1.798   4.690   0.212 -0.6932  0.0981 -0.0380
10833TIP3    H153914   1.752   4.638   0.278 -0.4148 -0.1628 -0.0478
10833TIP3    H253915   1.855   4.749   0.262  0.3141 -0.8336 -0.0575
10834TIP3   OH253916   2.714   5.380   0.697  0.0095  0.0485  0.3381
10834TIP3    H153917   2.625   5.376   0.663  0.5266  2.1075 -1.5570
10834TIP3    H253918   2.729   5.473   0.714  1.8716 -0.2112  0.3916
10835TIP3   OH253919   4.420   2.090   4.039  0.2945 -0.2230 -0.3713
10835TIP3    H153920   4.486   2.023   4.025 -0.0999 -0.3072 -1.9922
10835TIP3    H253921   4.460   2.151   4.101  0.6688 -1.9107  1.1065
10836TIP3   OH253922   5.683   2.925  11.119  0.2450 -0.3575 -0.3809
10836TIP3    H153923   5.729   2.844  11.098  0.3264 -0.9235  1.7890
10836TIP3    H253924   5.591   2.900  11.119  0.1038  0.0922 -1.8512
10837TIP3   OH253925   3.016   6.327  11.099  0.1874  0.5024 -0.3454
10837TIP3    H153926   3.101   6.303  11.063 -0.1044  0.3664 -0.9528
10837TIP3    H253927   3.026   6.419  11.126  0.0405  1.0215 -1.9597
10838TIP3   OH253928   0.606   5.142  12.893  0.2607 -0.1446 -0.2993
10838TIP3    H153929   0.578   5.067  12.945  1.8175 -0.0752  0.7038
10838TIP3    H253930   0.558   5.216  12.929  1.6179 -0.0258  1.3934
10839TIP3   OH253931   5.586   0.049   0.988  0.1514 -0.3118 -0.2224
10839TIP3    H153932   5.512   0.057   1.049 -0.4327 -0.6428 -0.8848
10839TIP3    H253933   5.582  -0.041   0.957  0.3546 -0.0991 -0.8674
10840TIP3   OH253934   5.937   5.147   5.539 -0.0975 -0.8594  0.4822
10840TIP3    H153935   5.908   5.238   5.540 -0.9171 -1.0417  3.4207
10840TIP3    H253936   6.032   5.151   5.538 -0.1354  0.0116  0.1008
10841TIP3   OH253937   3.243   3.781   4.090  0.1810  0.5661  0.3414
10841TIP3    H153938   3.298   3.776   4.012  0.1190  0.6035  0.2958
10841TIP3    H253939   3.305   3.772   4.163  0.2270  0.4318  0.2866
10842TIP3   OH253940   5.903   6.776  17.011  0.3240  0.2173  0.5460
10842TIP3    H153941   5.968   6.707  17.003  0.1856  0.2247 -0.7204
10842TIP3    H253942   5.953   6.853  17.037  0.6373 -0.0648  0.7986
10843TIP3   OH253943   4.652   2.960   4.475  0.2415  0.2063  0.0125
10843TIP3    H153944   4.712   3.028   4.446  0.6474 -0.6548 -1.2481
10843TIP3    H253945   4.707   2.883   4.489 -0.6299 -0.9455 -2.3076
10844TIP3   OH253946   5.014   3.818   2.013  0.1850 -0.2353 -0.5367
10844TIP3    H153947   5.093   3.871   2.001  0.0198 -0.4070 -2.8032
10844TIP3    H253948   4.951   3.854   1.949 -0.3573 -2.3250 -1.2485
10845TIP3   OH253949   5.164   0.109  14.317 -0.6265  0.0123  0.8874
10845TIP3    H153950   5.128   0.123  14.230 -1.1424  0.8353  1.2196
10845TIP3    H253951   5.113   0.036  14.353 -1.0042  0.2383  0.8195
10846TIP3   OH253952   2.391   3.361   1.581  0.1036  0.4522 -0.5352
10846TIP3    H153953   2.476   3.350   1.538  1.1739  2.7402  0.8319
10846TIP3    H253954   2.412   3.375   1.673 -1.9682 -1.5978  0.3415
10847TIP3   OH253955   2.467   0.208   3.993 -0.0318 -0.8364 -0.0917
10847TIP3    H153956   2.541   0.262   4.024 -0.9670  0.0470  0.6689
10847TIP3    H253957   2.472   0.129   4.046 -0.2006 -0.3598  0.6446
10848TIP3   OH253958   0.558   1.527  15.698 -0.2909  0.9852 -0.1049
10848TIP3    H153959   0.639   1.567  15.729  0.4223 -0.8851  0.5402
10848TIP3    H253960   0.492   1.553  15.763  0.1933  0.9485  0.4033
10849TIP3   OH253961   0.668   0.006  15.828 -0.2176 -0.1011 -0.5214
10849TIP3    H153962   0.735   0.072  15.848 -0.9241  0.2653  0.7218
10849TIP3    H253963   0.716  -0.077  15.827  0.3790  0.2329 -0.3381
10850TIP3   OH253964   3.930   3.030  12.228  0.0715 -0.1694  0.0671
10850TIP3    H153965   3.973   3.027  12.313 -1.9160 -1.4277  1.1324
10850TIP3    H253966   3.992   2.990  12.167  1.4417  0.5569  0.9493
10851TIP3   OH253967   5.421   0.493  15.755 -0.1494  0.3469 -0.0855
10851TIP3    H153968   5.415   0.409  15.708  0.9326 -0.4896  1.2231
10851TIP3    H253969   5.351   0.546  15.716 -0.4428 -0.9216 -1.3983
10852TIP3   OH253970   0.692   6.528  12.183  0.2820  0.0301  0.0012
10852TIP3    H153971   0.687   6.528  12.088 -1.3360  1.5893  0.0461
10852TIP3    H253972   0.633   6.458  12.211  0.1575  0.0895 -0.1174
10853TIP3   OH253973   1.136   0.099  15.209 -0.1542 -0.1382 -0.4111
10853TIP3    H153974   1.113   0.082  15.300 -1.0903 -0.1861 -0.6402
10853TIP3    H253975   1.114   0.191  15.195  0.2760 -0.0469 -0.5125
10854TIP3   OH253976   3.069   3.815  14.186  0.0310 -0.2028  0.2970
10854TIP3    H153977   3.065   3.849  14.276 -0.7718 -0.3278  0.3163
10854TIP3    H253978   3.161   3.794  14.173  0.0570 -0.8343  1.3444
10855TIP3   OH253979   1.888   5.381  16.699 -0.0342  0.2896 -0.0012
10855TIP3    H153980   1.940   5.458  16.679  1.6041 -0.7338  0.1126
10855TIP3    H253981   1.835   5.406  16.775 -0.8126  1.8133 -0.9991
10856TIP3   OH253982   2.988   2.100  15.421  0.4948 -0.3110 -0.0213
10856TIP3    H153983   2.974   2.195  15.418  0.2746 -0.2012  2.5594
10856TIP3    H253984   3.053   2.083  15.353  1.3118  1.8503  0.1502
10857TIP3   OH253985   4.771   0.043  10.898  0.2933 -0.1691 -0.2367
10857TIP3    H153986   4.800   0.033  10.989 -0.2556 -0.5000 -0.1004
10857TIP3    H253987   4.800   0.131  10.874  0.7479 -0.2106  0.1456
10858TIP3   OH253988   6.366   3.152  16.043 -0.2474 -0.1901  0.2072
10858TIP3    H153989   6.393   3.063  16.066 -1.9961 -0.5963  0.9034
10858TIP3    H253990   6.415   3.173  15.964  0.0272 -1.8710 -0.0986
10859TIP3   OH253991   0.475   6.280   4.580 -0.0651  0.2375  0.0366
10859TIP3    H153992   0.448   6.330   4.503  0.0955  0.5429  0.1798
10859TIP3    H253993   0.482   6.190   4.548 -2.9696 -0.2108  0.3657
10860TIP3   OH253994   5.833   5.596  11.893  0.3453 -0.0741 -0.0459
10860TIP3    H153995   5.781   5.526  11.853  1.5846 -1.8093  1.2397
10860TIP3    H253996   5.793   5.677  11.860  0.6812 -1.3059 -4.0188
10861TIP3   OH253997   2.632   4.909  16.116  0.1106 -0.1252 -0.5250
10861TIP3    H153998   2.632   4.969  16.042  1.6749 -0.8399 -1.1376
10861TIP3    H253999   2.602   4.826  16.080 -2.3916  0.2820  0.3944
10862TIP3   OH254000   1.251   3.340   0.958  0.9039  0.0576  0.3302
10862TIP3    H154001   1.287   3.378   1.038  1.3687  0.4621 -0.0637
10862TIP3    H254002   1.278   3.249   0.960 -0.7025 -0.4294  1.5680
10863TIP3   OH254003   0.683   0.858  13.607 -0.1889 -0.3545  0.1005
10863TIP3    H154004   0.767   0.838  13.566 -0.0215  1.6067 -0.6117
10863TIP3    H254005   0.628   0.781  13.589  0.5609 -0.4706 -1.9199
10864TIP3   OH254006   4.757   2.603  11.555 -0.2851 -0.1642 -0.6612
10864TIP3    H154007   4.678   2.651  11.529  1.1322  2.5573 -0.3688
10864TIP3    H254008   4.774   2.632  11.645  0.0325 -2.1903 -0.0178
10865TIP3   OH254009   4.021   5.153  13.357  0.1114  0.3840 -0.0057
10865TIP3    H154010   4.050   5.219  13.420 -1.5964  0.7312  0.4636
10865TIP3    H254011   4.074   5.171  13.279  0.5999  1.4623  0.5461
10866TIP3   OH254012   4.075   5.248   6.560  0.5212 -0.2138  0.5987
10866TIP3    H154013   4.095   5.330   6.515 -2.5589 -0.3235 -1.2661
10866TIP3    H254014   4.155   5.197   6.554  1.4552  1.3518 -1.3106
10867TIP3   OH254015   2.713   4.238  16.810  0.8121  0.1766  0.0754
10867TIP3    H154016   2.708   4.143  16.796  0.6931  0.1245  0.4629
10867TIP3    H254017   2.747   4.248  16.899 -0.0765  0.4816  0.3959
10868TIP3   OH254018   6.440   2.993  15.425 -0.1087  0.3392  0.0547
10868TIP3    H154019   6.440   3.018  15.333  1.2782  0.3933  0.0521
10868TIP3    H254020   6.530   2.967  15.443 -0.3682  0.2870  1.3880
10869TIP3   OH254021   1.893   1.385  15.202 -0.3264  0.7533  0.9312
10869TIP3    H154022   1.988   1.399  15.212 -0.3623  0.6178  1.4961
10869TIP3    H254023   1.886   1.312  15.141 -0.0651  0.8528  0.7820
10870TIP3   OH254024   4.188   5.799   0.150 -0.7178 -0.0660  0.1201
10870TIP3    H154025   4.132   5.848   0.211 -0.4816 -0.2971  0.5311
10870TIP3    H254026   4.198   5.856   0.074 -3.1654 -0.8106 -0.8555
10871TIP3   OH254027   1.464   0.439   5.800  0.2621  0.1421  0.6745
10871TIP3    H154028   1.384   0.398   5.833 -0.7106  1.1346 -0.3415
10871TIP3    H254029   1.433   0.521   5.760  1.8142  0.6070  0.3830
10872TIP3   OH254030   1.250   6.071  14.059  0.0901  0.5978  0.0011
10872TIP3    H154031   1.250   6.151  14.005 -1.2201  0.3884 -0.3678
10872TIP3    H254032   1.342   6.050  14.072  0.5500  3.1183  1.5432
10873TIP3   OH254033   2.489   2.548  16.470  0.2871  0.3419 -0.1136
10873TIP3    H154034   2.517   2.535  16.379  0.3750  1.6117 -0.2907
10873TIP3    H254035   2.566   2.583  16.514 -0.0560  0.7358  0.1876
10874TIP3   OH254036   0.470   5.821  16.220 -0.4686 -0.1023 -0.2199
10874TIP3    H154037   0.531   5.748  16.233  1.4994  1.3690 -0.5729
10874TIP3    H254038   0.462   5.828  16.125 -3.3478 -1.8689 -0.2184
10875TIP3   OH254039   4.400   4.346   4.469 -0.1969  0.2819  0.0440
10875TIP3    H154040   4.486   4.348   4.511  0.6597  0.6132 -1.6652
10875TIP3    H254041   4.339   4.370   4.540  1.2658  1.6298  0.9137
10876TIP3   OH254042   5.773   4.980   5.091 -0.0672 -0.0722 -0.1157
10876TIP3    H154043   5.850   5.038   5.091 -1.1631  1.4697 -1.1261
10876TIP3    H254044   5.727   5.001   5.172 -0.4809  0.5201 -0.4968
10877TIP3   OH254045   1.239   5.597  10.449 -0.3476 -0.5922  0.5418
10877TIP3    H154046   1.315   5.542  10.428 -0.0093 -0.6668  1.8569
10877TIP3    H254047   1.276   5.673  10.494 -0.8113  0.7720 -1.2591
10878TIP3   OH254048   5.323   3.044   4.721  0.0620  0.0403 -0.8105
10878TIP3    H154049   5.383   2.987   4.673  0.3508 -0.1602 -0.2156
10878TIP3    H254050   5.357   3.132   4.706  1.3985 -0.1651  0.7100
10879TIP3   OH254051   5.365   3.130  12.298 -0.5676  0.1700  0.1578
10879TIP3    H154052   5.401   3.123  12.210 -1.4479 -3.4358 -0.0674
10879TIP3    H254053   5.270   3.127  12.286 -0.6983 -0.3723  1.2193
10880TIP3   OH254054   2.826   4.504  14.993  0.4189  0.5248 -0.5665
10880TIP3    H154055   2.851   4.596  14.996  0.1209  0.6312 -1.2336
10880TIP3    H254056   2.886   4.461  15.054  1.3093  0.9910 -1.0963
10881TIP3   OH254057   3.023   1.656   4.335  0.5748 -0.1784  0.5577
10881TIP3    H154058   2.965   1.585   4.308  1.2851 -0.4297 -0.3425
10881TIP3    H254059   3.079   1.616   4.403  0.9095 -0.4657  0.1221
10882TIP3   OH254060   0.241   1.813  17.038 -0.4262  0.4074  0.2565
10882TIP3    H154061   0.310   1.867  17.000 -0.8656 -0.6238 -2.2509
10882TIP3    H254062   0.202   1.867  17.106  0.7355  2.2530 -0.4784
10883TIP3   OH254063   2.888   0.573   5.560  0.4092  0.5655  0.0393
10883TIP3    H154064   2.874   0.480   5.544  0.1154  0.6569 -0.2407
10883TIP3    H254065   2.841   0.590   5.641 -2.8286  1.2671 -1.8075
10884TIP3   OH254066   6.780   3.521   3.410  0.5828  0.4569 -0.3833
10884TIP3    H154067   6.873   3.501   3.423  0.6106 -0.4569 -1.8484
10884TIP3    H254068   6.771   3.537   3.316 -0.9299 -0.5840 -0.4561
10885TIP3   OH254069   5.887   6.708   4.440  0.2077  0.8176  0.7220
10885TIP3    H154070   5.967   6.713   4.493  0.0885  1.5313  0.8529
10885TIP3    H254071   5.892   6.784   4.381  0.6799 -0.3507 -0.8005
10886TIP3   OH254072   6.733   2.743  13.957 -0.4762 -0.4518 -0.3997
10886TIP3    H154073   6.663   2.788  14.005 -0.2217 -0.4508 -0.0232
10886TIP3    H254074   6.687   2.685  13.897 -0.8018 -0.6816  0.0631
10887TIP3   OH254075   3.111   2.762   4.413  0.3546  0.2970 -0.2714
10887TIP3    H154076   3.086   2.673   4.387  1.2074 -0.3150  0.8827
10887TIP3    H254077   3.180   2.749   4.479  0.4997  1.8191 -0.0847
10888TIP3   OH254078   0.590   4.771  13.127  0.1649 -0.0465  0.0624
10888TIP3    H154079   0.659   4.783  13.193  0.7193  0.0666 -0.5266
10888TIP3    H254080   0.530   4.845  13.142 -1.0001 -1.2985  1.9529
10889TIP3   OH254081   5.660   5.607   4.147 -0.0173  0.1307  0.2802
10889TIP3    H154082   5.725   5.557   4.097  0.2957  1.3368 -0.5756
10889TIP3    H254083   5.604   5.541   4.186 -0.6304 -0.9015 -2.1708
10890TIP3   OH254084   2.067   3.144   4.562 -0.3347 -0.1298 -0.2786
10890TIP3    H154085   1.981   3.129   4.522 -0.8967  1.9048  0.0576
10890TIP3    H254086   2.123   3.077   4.522 -1.9461 -1.2347 -0.8385
10891TIP3   OH254087   3.938   0.848   4.216  0.1350  0.0013  0.0592
10891TIP3    H154088   3.858   0.804   4.187 -0.2709  1.5584 -1.3404
10891TIP3    H254089   3.912   0.940   4.226  1.0184  0.0667  2.5957
10892TIP3   OH254090   1.281   0.650  15.161 -0.3052 -0.5890  0.2735
10892TIP3    H154091   1.239   0.699  15.091  0.4118 -0.4262 -0.0482
10892TIP3    H254092   1.370   0.683  15.164  0.3066 -2.0843 -0.1707
10893TIP3   OH254093   4.399   2.043   5.062 -0.0126  0.1847  0.2746
10893TIP3    H154094   4.376   1.971   5.120 -0.1354 -1.1150 -1.3272
10893TIP3    H254095   4.493   2.033   5.048  0.6037  2.1582  2.3668
10894TIP3   OH254096   4.861   4.071  15.518 -0.4660 -0.1404 -0.1795
10894TIP3    H154097   4.804   4.085  15.594 -0.0902 -1.3109  0.3499
10894TIP3    H254098   4.896   4.157  15.498 -2.4348  0.6314 -0.5449
10895TIP3   OH254099   5.952   0.198   2.069 -0.2854 -0.1256  0.2388
10895TIP3    H154100   6.040   0.220   2.099 -0.7056  0.4808  1.0743
10895TIP3    H254101   5.916   0.143   2.139 -0.7743  0.1161  0.1814
10896TIP3   OH254102   6.582   1.167   4.006 -0.1112 -0.2545  0.6121
10896TIP3    H154103   6.505   1.112   3.995 -1.0521  0.5366  2.6525
10896TIP3    H254104   6.580   1.192   4.098  1.5306  1.3443  0.2669
10897TIP3   OH254105   2.632   5.347   3.210 -0.1390 -0.7170  0.8050
10897TIP3    H154106   2.556   5.366   3.155 -0.2939  2.3398  1.9160
10897TIP3    H254107   2.687   5.290   3.156 -2.4581 -1.7769 -0.5994
10898TIP3   OH254108   0.114   1.018   4.916  0.3873 -0.0373  0.0148
10898TIP3    H154109   0.128   1.108   4.946 -0.6963 -0.4251  1.8709
10898TIP3    H254110   0.174   0.966   4.969 -0.4251 -0.5851  0.4253
10899TIP3   OH254111   0.331   4.261  12.027  0.0997  0.0062  0.5111
10899TIP3    H154112   0.371   4.300  11.948 -0.3691 -0.6781 -0.0725
10899TIP3    H254113   0.246   4.305  12.035  0.1408  0.0648  0.6323
10900TIP3   OH254114   2.995   6.307   2.915 -0.3012  0.4351  0.1187
10900TIP3    H154115   2.921   6.335   2.969  0.4331  1.2448  0.7223
10900TIP3    H254116   3.045   6.247   2.971  0.7043  1.6194  0.5343
10901TIP3   OH254117   4.103   4.811  13.265  0.0056  0.3933 -0.4214
10901TIP3    H154118   4.145   4.742  13.213 -0.9434 -0.1844 -0.4523
10901TIP3    H254119   4.012   4.809  13.237 -0.6663 -0.3112  1.6535
10902TIP3   OH254120   5.534   6.326  12.473 -0.3176  0.2962  0.1502
10902TIP3    H154121   5.573   6.406  12.436 -0.8184 -0.5578 -2.4373
10902TIP3    H254122   5.443   6.327  12.443 -0.3974 -1.1114  0.2813
10903TIP3   OH254123   5.748   5.993   5.151  0.0415 -1.0648  0.2668
10903TIP3    H154124   5.732   5.957   5.238  0.5546 -0.7102  0.5126
10903TIP3    H254125   5.661   6.016   5.118 -0.1517 -1.1684  0.6977
10904TIP3   OH254126   4.650   0.651  13.466  0.1060  0.0312 -0.0478
10904TIP3    H154127   4.723   0.693  13.512 -0.3041 -1.3281  1.9485
10904TIP3    H254128   4.675   0.654  13.373  2.4888 -0.0443  0.5440
10905TIP3   OH254129   2.389   0.383  10.461  0.4306  0.6731 -0.1649
10905TIP3    H154130   2.309   0.410  10.507  1.0678  1.2808  0.6109
10905TIP3    H254131   2.460   0.409  10.519  1.1653 -0.8646 -0.3284
10906TIP3   OH254132   5.016   0.400   4.392  0.4169  0.2041  0.5020
10906TIP3    H154133   4.954   0.466   4.424 -0.4077  0.6629 -1.8437
10906TIP3    H254134   5.101   0.431   4.423 -0.2000  1.2036  1.2661
10907TIP3   OH254135   2.385   2.724   4.843  0.2462 -0.3756  0.0872
10907TIP3    H154136   2.342   2.738   4.927  2.0919  0.9330  0.8927
10907TIP3    H254137   2.372   2.806   4.795  0.5794 -0.5112 -0.2439
10908TIP3   OH254138   2.182   1.954  10.990  0.1101 -0.4680 -0.2176
10908TIP3    H154139   2.246   1.920  10.928 -1.9158 -4.6375 -0.3158
10908TIP3    H254140   2.217   1.931  11.076 -0.0001 -0.2333 -0.1065
10909TIP3   OH254141   2.751   3.165  11.512  0.0058 -0.0121  0.1862
10909TIP3    H154142   2.700   3.238  11.476 -0.5627  0.0563  1.1026
10909TIP3    H254143   2.796   3.202  11.588 -0.8714 -0.7937  1.1026
10910TIP3   OH254144   3.961   1.798   5.083 -0.5700  0.5924  0.0273
10910TIP3    H154145   3.898   1.797   5.011 -0.0852 -0.3836 -0.4081
10910TIP3    H254146   3.923   1.740   5.149 -0.4331  0.4945  0.0224
10911TIP3   OH254147   0.328   6.240   2.913  0.1991  1.0293  0.0489
10911TIP3    H154148   0.332   6.334   2.900 -0.2612  1.1307  0.5856
10911TIP3    H254149   0.333   6.228   3.008  0.3266  0.5120 -0.0171
10912TIP3   OH254150   3.405   4.960   0.114 -0.6029  0.3415 -0.1102
10912TIP3    H154151   3.464   5.035   0.117 -0.7742  0.5361 -1.1963
10912TIP3    H254152   3.419   4.915   0.197  0.4989  0.8193 -0.0208
10913TIP3   OH254153   0.714   2.631  14.111  0.4067  0.3036  0.4126
10913TIP3    H154154   0.738   2.603  14.022  2.3196  0.1388  0.9307
10913TIP3    H254155   0.647   2.698  14.098  1.5839  1.2331 -1.2502
10914TIP3   OH254156   1.902   2.217  15.322  0.0616 -0.0308  0.1238
10914TIP3    H154157   1.908   2.127  15.289 -2.3417  0.1716 -1.1545
10914TIP3    H254158   1.965   2.266  15.268 -1.4943 -0.3005 -2.0903
10915TIP3   OH254159   1.075   2.925  14.132 -0.4967 -0.1754  0.3709
10915TIP3    H154160   1.004   2.989  14.142 -0.0250  0.3031  0.7086
10915TIP3    H254161   1.155   2.977  14.140 -0.1057 -0.6209 -0.6157
10916TIP3   OH254162   6.457   4.896  13.404 -0.1782 -0.2069  0.6576
10916TIP3    H154163   6.533   4.908  13.461 -0.1482 -1.4759  0.9202
10916TIP3    H254164   6.484   4.931  13.319  0.1795  0.6558  1.1118
10917TIP3   OH254165   2.532   2.370  13.214  0.7156 -0.8611 -0.1731
10917TIP3    H154166   2.506   2.283  13.247  1.9950 -0.0467  3.5432
10917TIP3    H254167   2.627   2.364  13.206  0.9907  0.4822  1.4766
10918TIP3   OH254168   0.858   3.258  15.426 -0.1274  0.4065 -0.0974
10918TIP3    H154169   0.777   3.280  15.473 -1.0262 -1.2172 -0.7912
10918TIP3    H254170   0.908   3.206  15.489 -1.1510 -1.4224 -0.7118
10919TIP3   OH254171   1.309   0.242  12.956 -0.6953 -0.0918  0.4425
10919TIP3    H154172   1.299   0.242  13.051 -0.7667 -2.3308  0.4789
10919TIP3    H254173   1.238   0.185  12.925 -0.8909  0.8817 -0.9986
10920TIP3   OH254174   0.895   5.335   5.054 -0.1417 -0.5861  0.3412
10920TIP3    H154175   0.847   5.331   4.972 -1.8309 -1.1670  1.2911
10920TIP3    H254176   0.913   5.428   5.067  1.7863 -0.6467 -1.5343
10921TIP3   OH254177   1.873   4.787  14.345  1.1670  0.2485  0.1648
10921TIP3    H154178   1.796   4.843  14.353 -0.0277 -1.0405 -1.5390
10921TIP3    H254179   1.890   4.783  14.251  1.1047 -2.3065  0.1846
10922TIP3   OH254180   1.458   1.155  10.270  0.0910 -0.5620  0.2260
10922TIP3    H154181   1.462   1.108  10.187  0.7143 -2.1171  1.1108
10922TIP3    H254182   1.365   1.154  10.293 -0.1951  0.5171 -0.7769
10923TIP3   OH254183   1.122   6.114  15.255 -0.1260  0.4347 -0.3801
10923TIP3    H154184   1.043   6.077  15.215  0.1252 -1.1415  0.4825
10923TIP3    H254185   1.173   6.037  15.281  0.7726  1.4187  0.8714
10924TIP3   OH254186   4.020   2.044  15.739 -0.2458  0.3966  0.1450
10924TIP3    H154187   3.961   2.119  15.733 -4.3517 -2.5408 -0.3235
10924TIP3    H254188   4.066   2.043  15.655  0.5311  2.7153  0.4725
10925TIP3   OH254189   4.557   4.396  16.830 -0.1533 -0.0927 -0.4219
10925TIP3    H154190   4.499   4.472  16.828  0.3361  0.2776 -1.3298
10925TIP3    H254191   4.517   4.334  16.769 -0.5261 -0.5633  0.2815
10926TIP3   OH254192   4.081   4.596   3.490  0.5766  0.2640 -0.1296
10926TIP3    H154193   4.133   4.517   3.480  0.2034  0.3343 -3.6575
10926TIP3    H254194   3.990   4.565   3.489  0.4421  0.5492  1.2910
10927TIP3   OH254195   5.791   1.661  15.203 -0.5469 -0.3169  0.2268
10927TIP3    H154196   5.768   1.648  15.295 -1.8842  0.2553  0.0045
10927TIP3    H254197   5.820   1.753  15.198  0.0184 -0.4960  0.1662
10928TIP3   OH254198   4.737   3.895   3.698  0.2744 -0.4353  0.3102
10928TIP3    H154199   4.767   3.984   3.683  0.4747 -0.1596  2.1794
10928TIP3    H254200   4.817   3.845   3.715 -0.0347 -0.0726  3.4359
10929TIP3   OH254201   2.437   3.550  13.890 -0.2815 -0.0814  0.6863
10929TIP3    H154202   2.398   3.548  13.978 -0.8105  0.4711  0.4697
10929TIP3    H254203   2.531   3.537  13.906 -0.6286 -2.3860  1.1365
10930TIP3   OH254204   3.461   1.079  16.334  0.1108  0.0046 -0.4362
10930TIP3    H154205   3.451   0.984  16.334  1.2624 -0.1410  0.4945
10930TIP3    H254206   3.371   1.112  16.342 -0.3628 -0.9730 -1.4372
10931TIP3   OH254207   3.735   5.211  15.319  0.7888  0.2915  0.3306
10931TIP3    H154208   3.655   5.262  15.312  0.6146  0.4555  2.6401
10931TIP3    H254209   3.785   5.255  15.388  0.9299 -2.2145  1.9342
10932TIP3   OH254210   4.734   0.593  13.816 -0.3285 -0.2841 -0.1264
10932TIP3    H154211   4.738   0.519  13.756  0.2798 -0.0913 -0.3369
10932TIP3    H254212   4.772   0.560  13.898 -0.9347 -0.4762  0.0837
10933TIP3   OH254213   3.683   5.730   3.436 -0.4298  0.3730 -0.3589
10933TIP3    H154214   3.629   5.728   3.515  0.9922 -1.1648  0.6422
10933TIP3    H254215   3.649   5.658   3.382  0.5699 -0.6170  0.2863
10934TIP3   OH254216   6.276   4.407   4.271 -0.8256  0.3670  0.2267
10934TIP3    H154217   6.251   4.462   4.196  1.6481  0.3318 -0.6981
10934TIP3    H254218   6.370   4.394   4.261 -0.7813 -1.3374  2.2600
10935TIP3   OH254219   6.471   5.668  14.423  0.1435 -0.1057  0.5492
10935TIP3    H154220   6.522   5.676  14.342 -1.4952  0.7950 -0.4471
10935TIP3    H254221   6.533   5.691  14.493  1.0662  1.1426 -0.6311
10936TIP3   OH254222   6.754   1.125   5.779  0.5178 -0.1774 -0.1558
10936TIP3    H154223   6.771   1.065   5.851  0.0795  0.9251  0.9095
10936TIP3    H254224   6.810   1.201   5.798 -2.0514  1.5874  0.9527
10937TIP3   OH254225   0.849   3.108  12.234  0.0113  0.1978  0.5955
10937TIP3    H154226   0.831   3.134  12.324  0.6793 -0.6268  0.9871
10937TIP3    H254227   0.906   3.031  12.242 -1.5095 -1.1113 -0.5063
10938TIP3   OH254228   3.350   5.487  11.402 -0.0747 -0.2212  0.2781
10938TIP3    H154229   3.328   5.575  11.373 -1.3957 -0.3262  0.8923
10938TIP3    H254230   3.314   5.480  11.490 -1.0988 -1.7623 -0.2151
10939TIP3   OH254231   0.760   2.081   6.113  0.3146 -0.0637  0.5408
10939TIP3    H154232   0.745   2.060   6.205  0.6324 -0.9889  0.3918
10939TIP3    H254233   0.702   2.155   6.095  0.2127  0.0851  1.4674
10940TIP3   OH254234   5.029   2.614   1.372 -0.0100  0.3345  0.0878
10940TIP3    H154235   5.029   2.696   1.323  0.4308  0.9282  1.0483
10940TIP3    H254236   5.111   2.616   1.422  0.3036 -0.9756 -0.3324
10941TIP3   OH254237   0.914   3.822   5.879 -0.2289 -0.5043 -0.1244
10941TIP3    H154238   0.906   3.741   5.930 -0.0801  1.0776  2.5671
10941TIP3    H254239   0.959   3.883   5.937 -0.8654  1.7297 -1.8393
10942TIP3   OH254240   1.541   4.796  14.630  0.1119 -0.1021  0.2905
10942TIP3    H154241   1.620   4.784  14.683  1.4851  2.8596 -0.8185
10942TIP3    H254242   1.532   4.891  14.623 -3.2497 -0.3267 -0.1819
10943TIP3   OH254243   0.597   0.538   6.022 -0.2220 -0.0562 -0.0783
10943TIP3    H154244   0.623   0.614   6.075  1.4556 -0.2349 -0.5717
10943TIP3    H254245   0.666   0.473   6.038 -0.7559 -0.8574 -0.9302
10944TIP3   OH254246   4.149   5.909   0.866 -0.1749 -0.4199  0.0570
10944TIP3    H154247   4.097   5.848   0.815  0.4200 -2.5696  1.8475
10944TIP3    H254248   4.230   5.919   0.816 -1.3093  1.1375 -1.5912
10945TIP3   OH254249   3.641   0.097   0.754  0.3922 -0.3563 -0.7881
10945TIP3    H154250   3.664   0.055   0.672  0.0921  0.2930 -1.2123
10945TIP3    H254251   3.638   0.026   0.818  0.1924 -0.9272 -1.4309
10946TIP3   OH254252   3.510   4.778  14.576  0.7234 -0.0284 -0.0564
10946TIP3    H154253   3.440   4.798  14.514 -0.1238 -1.9626  0.2084
10946TIP3    H254254   3.471   4.715  14.637  1.9258  0.8198  1.6739
10947TIP3   OH254255   5.641   6.603   3.467  0.3671 -0.4851  0.2088
10947TIP3    H154256   5.553   6.608   3.504  0.7032 -1.0267  1.1283
10947TIP3    H254257   5.698   6.629   3.539  1.0010 -0.8507 -0.1592
10948TIP3   OH254258   6.308   6.414  12.504 -0.6966 -0.3798 -0.4690
10948TIP3    H154259   6.351   6.455  12.429 -0.0808 -2.3442 -1.2460
10948TIP3    H254260   6.327   6.473  12.577  0.5735  0.4631 -1.4233
10949TIP3   OH254261   4.262   5.754  10.489  0.1067  0.2413  0.1447
10949TIP3    H154262   4.258   5.849  10.502  1.3507  0.9436 -3.2953
10949TIP3    H254263   4.352   5.730  10.510  0.3181  0.2172 -0.7349
10950TIP3   OH254264   4.882   2.204   2.482  0.2936 -0.2071  0.1312
10950TIP3    H154265   4.837   2.271   2.534 -0.6363 -1.2081  0.6676
10950TIP3    H254266   4.815   2.170   2.424  0.1213 -2.2289  1.4384
10951TIP3   OH254267   2.866   0.004  13.207 -0.0239 -0.0724 -1.0054
10951TIP3    H154268   2.918  -0.068  13.243  1.7897  1.8398  0.3960
10951TIP3    H254269   2.868  -0.011  13.112  0.1175 -1.9464 -0.7435
10952TIP3   OH254270   3.913   2.317   5.418  0.4859  0.1800 -0.4748
10952TIP3    H154271   3.850   2.315   5.346 -0.6527 -0.8341  0.5049
10952TIP3    H254272   3.904   2.405   5.455 -2.1203 -0.6464  1.0970
10953TIP3   OH254273   1.084   4.276  15.344 -0.4425 -0.1416  0.4015
10953TIP3    H154274   1.013   4.306  15.400 -0.9614 -0.3484 -0.1385
10953TIP3    H254275   1.050   4.284  15.255  0.3623  0.1651  0.1045
10954TIP3   OH254276   5.636   4.046  15.583 -0.2906 -0.0279 -0.0637
10954TIP3    H154277   5.595   4.079  15.663  0.6163 -0.4911  0.6085
10954TIP3    H254278   5.713   4.100  15.571  0.2694 -0.7722  0.0956
10955TIP3   OH254279   3.436   5.313   1.809  0.0712 -0.3187 -0.5104
10955TIP3    H154280   3.508   5.308   1.873 -0.5162 -1.4256  0.1025
10955TIP3    H254281   3.359   5.336   1.861  0.2535  2.8419 -1.4389
10956TIP3   OH254282   4.239   3.155  16.453 -0.1879  0.7490 -0.2346
10956TIP3    H154283   4.258   3.246  16.428  1.1308  0.3323 -0.8813
10956TIP3    H254284   4.244   3.155  16.548 -0.1848  1.3556 -0.2274
10957TIP3   OH254285   1.289   1.547   2.034  0.1031  0.0694 -0.3717
10957TIP3    H154286   1.340   1.477   2.077  0.0864 -0.2759 -0.9020
10957TIP3    H254287   1.328   1.554   1.946  0.4184  1.0661 -0.1639
10958TIP3   OH254288   4.420   4.910  14.556  0.3397 -0.0913  0.0664
10958TIP3    H154289   4.510   4.907  14.523  0.5921  1.7098  0.4662
10958TIP3    H254290   4.410   5.000  14.589 -1.5038 -0.3559  0.3241
10959TIP3   OH254291   0.623   5.597   1.890  0.2347  0.6333 -0.5175
10959TIP3    H154292   0.684   5.568   1.822  3.9377 -0.0371  2.6834
10959TIP3    H254293   0.566   5.522   1.905  2.0080 -0.7334 -0.2629
10960TIP3   OH254294   6.627   3.925  12.033 -0.6598 -0.0507  0.0212
10960TIP3    H154295   6.550   3.931  11.977  1.3747  1.9379 -2.8472
10960TIP3    H254296   6.627   4.008  12.082 -0.2504  0.0390 -0.1273
10961TIP3   OH254297   2.706   0.964  10.925  0.3496  0.4025 -0.4592
10961TIP3    H154298   2.684   1.054  10.949  2.2178  0.3428  1.9160
10961TIP3    H254299   2.633   0.912  10.958  1.0961  0.7414  1.9161
10962TIP3   OH254300   3.232   4.280   2.766  0.0363  0.2035  0.7880
10962TIP3    H154301   3.324   4.263   2.747  1.0277  1.7798  3.6045
10962TIP3    H254302   3.201   4.201   2.811 -0.4136 -0.7725 -1.0845
10963TIP3   OH254303   4.823   6.753  14.113  0.5885  0.7104 -0.4288
10963TIP3    H154304   4.753   6.818  14.113  0.4599  0.5844 -0.9288
10963TIP3    H254305   4.901   6.800  14.139  0.5554  1.1385 -1.0799
10964TIP3   OH254306   6.773   5.534   3.268 -0.9895  0.0730 -0.1942
10964TIP3    H154307   6.757   5.440   3.260 -0.2433 -0.2529  1.6038
10964TIP3    H254308   6.866   5.543   3.247 -0.4871  0.0272  1.7678
10965TIP3   OH254309   2.348   1.970  12.601  0.7606  0.2052 -0.0460
10965TIP3    H154310   2.261   1.931  12.598  0.3643  1.0527  0.1512
10965TIP3    H254311   2.339   2.052  12.552  1.3648  0.4354  0.2198
10966TIP3   OH254312   3.159   6.569   6.413 -0.4573 -0.5058  0.5842
10966TIP3    H154313   3.137   6.488   6.366  0.0141  0.4607 -1.4329
10966TIP3    H254314   3.254   6.577   6.404 -0.2594 -0.5644  2.2688
10967TIP3   OH254315   4.428   1.874   5.358 -0.4363 -0.5658  0.4817
10967TIP3    H154316   4.383   1.894   5.440 -0.0139  1.4502  0.2639
10967TIP3    H254317   4.506   1.928   5.360 -0.3795 -0.5560 -1.2207
10968TIP3   OH254318   3.183   6.598  12.530  0.4588 -0.5013 -0.0571
10968TIP3    H154319   3.270   6.614  12.494  0.0568 -0.9534 -1.2834
10968TIP3    H254320   3.155   6.515  12.490 -0.0194 -1.0451  1.3203
10969TIP3   OH254321   3.257   4.509   4.290 -0.1232 -1.0081 -0.2870
10969TIP3    H154322   3.219   4.457   4.219 -0.8266 -2.1274  0.8574
10969TIP3    H254323   3.343   4.534   4.258 -0.9269 -0.3374 -2.0521
10970TIP3   OH254324   4.934   2.335  14.287 -1.0461  0.1926  1.1972
10970TIP3    H154325   4.950   2.315  14.379 -0.7896 -0.1580  1.0816
10970TIP3    H254326   4.943   2.250  14.243 -1.0471  0.3781  0.8357
10971TIP3   OH254327   1.583   1.358  12.373 -0.5137  0.0438  0.4161
10971TIP3    H154328   1.612   1.434  12.423  0.3715 -0.5716  0.8625
10971TIP3    H254329   1.607   1.283  12.426 -0.2357 -0.5993 -0.5794
10972TIP3   OH254330   4.198   0.678   3.868  0.2130 -0.1223  0.3444
10972TIP3    H154331   4.125   0.616   3.866 -0.6960  0.9234 -0.0919
10972TIP3    H254332   4.276   0.623   3.873 -0.6330 -1.2954  3.9730
10973TIP3   OH254333   3.011   5.029   1.755  0.3276 -0.1675  0.0430
10973TIP3    H154334   3.081   4.967   1.776  0.1524 -0.1039  0.8474
10973TIP3    H254335   2.942   5.011   1.819 -0.0422  0.3433 -0.1986
10974TIP3   OH254336   5.567   0.933   0.893  0.5817 -0.2797  0.3933
10974TIP3    H154337   5.631   1.003   0.904  1.1915 -0.7787  0.1022
10974TIP3    H254338   5.603   0.859   0.942 -0.4455 -0.1687  1.3748
10975TIP3   OH254339   2.734   5.881  13.054 -0.0440 -0.6233  0.0198
10975TIP3    H154340   2.715   5.943  12.984 -2.2082 -1.2292  0.0119
10975TIP3    H254341   2.739   5.935  13.133  3.6915  0.2605 -0.6044
10976TIP3   OH254342   3.218   1.331   3.054 -0.0898 -0.4544 -0.2927
10976TIP3    H154343   3.252   1.354   2.968 -0.1927  0.5265 -0.0791
10976TIP3    H254344   3.160   1.256   3.038  0.1097 -0.4583 -1.0255
10977TIP3   OH254345   4.963   1.141   3.764 -0.2325  0.5998 -0.0584
10977TIP3    H154346   4.937   1.215   3.709 -0.0881 -0.3523 -1.4469
10977TIP3    H254347   4.894   1.076   3.753  0.9578 -0.5701 -1.0534
10978TIP3   OH254348   3.630   3.855   0.760  0.0382 -0.2043 -0.2901
10978TIP3    H154349   3.604   3.774   0.716 -2.1110 -1.7398  3.3445
10978TIP3    H254350   3.547   3.895   0.788  1.1871  1.4913  0.8958
10979TIP3   OH254351   5.924   3.840   5.104  0.5616 -0.1059  0.0991
10979TIP3    H154352   5.894   3.819   5.016  0.0728  1.9504 -0.2786
10979TIP3    H254353   6.019   3.834   5.099  0.5601  0.3672 -0.6972
10980TIP3   OH254354   0.010   0.816  10.822 -0.3521 -0.1905  0.2912
10980TIP3    H154355  -0.072   0.852  10.857 -0.6194  1.0603 -1.4855
10980TIP3    H254356   0.074   0.886  10.834 -0.2434 -0.0737 -0.8926
10981TIP3   OH254357   2.543   4.156  11.820 -0.4523  0.3217 -0.0994
10981TIP3    H154358   2.470   4.106  11.856  0.6899 -1.4324 -0.0313
10981TIP3    H254359   2.608   4.089  11.799  1.3874  1.8468  0.4389
10982TIP3   OH254360   4.044   3.911  14.583  0.6600  0.7520 -0.1814
10982TIP3    H154361   4.027   3.951  14.668 -1.1361 -1.0387  0.3817
10982TIP3    H254362   4.133   3.939  14.561  1.7224  0.2082  2.9205
10983TIP3   OH254363   4.210   6.328   3.747  0.4428 -0.0874  0.2323
10983TIP3    H154364   4.165   6.347   3.829  0.8006 -1.5967  0.8092
10983TIP3    H254365   4.300   6.358   3.760  0.4998 -0.3290  0.3972
10984TIP3   OH254366   0.570   4.198  15.470 -0.1512  0.2083  0.0400
10984TIP3    H154367   0.510   4.127  15.492 -0.4068  0.2045 -0.6302
10984TIP3    H254368   0.552   4.267  15.534  0.4015 -0.4873  0.9669
10985TIP3   OH254369   2.721   3.527   2.903  0.4451  0.0085 -0.5630
10985TIP3    H154370   2.744   3.490   2.818  4.1639 -0.2997  0.4060
10985TIP3    H254371   2.722   3.452   2.963  0.1776  0.5517  0.1427
10986TIP3   OH254372   6.590   0.707   2.392 -0.3285  0.0786  0.2553
10986TIP3    H154373   6.530   0.663   2.452  0.0284 -1.9153 -0.7752
10986TIP3    H254374   6.674   0.707   2.438 -0.4067 -0.0449  0.3974
10987TIP3   OH254375   6.504   2.987  12.511  0.2602 -0.8557  0.6027
10987TIP3    H154376   6.410   3.007  12.504  0.4855  0.3624  0.7989
10987TIP3    H254377   6.509   2.892  12.501 -0.6201 -0.6515 -3.2078
10988TIP3   OH254378   6.581   6.425   1.644  0.8877  0.1226 -0.0321
10988TIP3    H154379   6.623   6.444   1.728  1.3387 -1.4310  0.1300
10988TIP3    H254380   6.530   6.346   1.660  0.8553 -0.1073 -1.1802
10989TIP3   OH254381   1.418   4.338   0.715  0.1713 -0.1128  0.3402
10989TIP3    H154382   1.340   4.376   0.675  0.1484  1.2101  1.5906
10989TIP3    H254383   1.477   4.322   0.641 -0.5226  0.6855 -0.4108
10990TIP3   OH254384   5.881   0.527   0.864 -0.2387  0.0599 -0.1050
10990TIP3    H154385   5.857   0.481   0.783  0.2867 -2.5091  1.0777
10990TIP3    H254386   5.805   0.581   0.885 -0.6561  0.2479 -1.9311
10991TIP3   OH254387   0.833   2.634  11.911 -0.1127  0.6604  0.2747
10991TIP3    H154388   0.905   2.573  11.893 -1.5191 -1.2510  0.9139
10991TIP3    H254389   0.759   2.579  11.935 -2.2933  2.4674 -1.7710
10992TIP3   OH254390   6.009   0.144   0.250  0.1909  0.5840 -0.5888
10992TIP3    H154391   5.929   0.127   0.300  0.0994  1.0818 -0.5597
10992TIP3    H254392   6.075   0.166   0.316  1.0979 -2.4057 -0.3603
10993TIP3   OH254393   6.522   4.724  12.103  0.1772  0.6735  0.0438
10993TIP3    H154394   6.430   4.716  12.079 -0.2415  0.4475  1.6089
10993TIP3    H254395   6.566   4.654  12.055 -0.4584  0.8016 -0.7335
10994TIP3   OH254396   4.778   4.264  13.823  0.6008  0.7651 -0.5476
10994TIP3    H154397   4.701   4.206  13.817  2.8872 -2.3601 -2.7283
10994TIP3    H254398   4.776   4.296  13.914 -1.9287 -1.1073  0.1935
10995TIP3   OH254399   0.477   2.812   2.859  0.4650  0.0548  0.3126
10995TIP3    H154400   0.414   2.744   2.836 -1.0191  1.3397  0.4592
10995TIP3    H254401   0.526   2.827   2.778  1.0614 -1.3890  0.3650
10996TIP3   OH254402   0.952   0.455   5.540  1.1344 -0.1654 -0.4493
10996TIP3    H154403   0.856   0.454   5.539  1.1437 -1.2056 -1.2044
10996TIP3    H254404   0.974   0.494   5.625  0.0535  0.9251 -0.6383
10997TIP3   OH254405   5.983   1.291   1.051  0.1319 -0.6171 -0.2719
10997TIP3    H154406   5.951   1.359   0.991 -1.1360 -1.9113 -1.1288
10997TIP3    H254407   6.078   1.298   1.046  0.0346  0.9772 -0.4606
10998TIP3   OH254408   0.061   5.078  11.173  0.0484 -0.5860 -0.3663
10998TIP3    H154409   0.027   5.163  11.201  1.0611 -0.6587  1.1815
10998TIP3    H254410   0.051   5.079  11.077 -0.1757  1.1651 -0.3586
10999TIP3   OH254411   4.499   0.945   3.672 -0.4834  0.2030 -0.1236
10999TIP3    H154412   4.557   0.988   3.610  3.0123 -1.3533  1.7953
10999TIP3    H254413   4.497   1.003   3.748  0.6836 -0.8447  0.7622
11000TIP3   OH254414   5.935   3.068  13.624  0.2449 -0.3578  0.2939
11000TIP3    H154415   5.862   3.128  13.641  1.5283  1.5354 -0.5408
11000TIP3    H254416   5.903   2.983  13.653 -1.7330  0.6772  1.3621
11001TIP3   OH254417   3.316   6.400  15.302  0.8522  0.4874 -0.1328
11001TIP3    H154418   3.338   6.323  15.356  2.9388  2.2476  1.7600
11001TIP3    H254419   3.331   6.371  15.212  1.0950 -1.4678  0.4765
11002TIP3   OH254420   1.361   2.654  13.496 -0.3854 -0.0760 -0.6373
11002TIP3    H154421   1.435   2.660  13.557 -2.2329 -0.6978  1.8238
11002TIP3    H254422   1.310   2.733  13.511 -2.0262 -1.2661  0.2844
11003TIP3   OH254423   2.286   0.574  15.113 -0.3398 -0.2934  0.4252
11003TIP3    H154424   2.235   0.513  15.059 -1.0264  1.2803 -0.8151
11003TIP3    H254425   2.220   0.629  15.154  0.2523 -0.6325  1.8720
11004TIP3   OH254426   4.204   6.398  11.304 -0.4067  0.0051 -0.3625
11004TIP3    H154427   4.237   6.310  11.321  1.3918  0.7876  0.4187
11004TIP3    H254428   4.166   6.426  11.388 -0.2895  0.2596 -0.3948
11005TIP3   OH254429   0.950   0.307  11.695 -0.2734 -0.1436  0.1959
11005TIP3    H154430   1.033   0.354  11.691 -0.6215  0.7350  2.0877
11005TIP3    H254431   0.926   0.292  11.604  1.0565  1.2079 -0.4170
11006TIP3   OH254432   2.744   1.254   0.714 -0.2545 -0.4398  0.3343
11006TIP3    H154433   2.724   1.200   0.789 -0.4605 -0.3460  0.3477
11006TIP3    H254434   2.681   1.227   0.647 -0.6534  0.0926  0.4893
11007TIP3   OH254435   1.491   0.657   3.995  0.3424 -0.3084 -0.3148
11007TIP3    H154436   1.507   0.669   3.901  1.1400 -0.4954 -0.2073
11007TIP3    H254437   1.576   0.671   4.036  0.2178 -1.2114  0.2919
11008TIP3   OH254438   5.374   4.579   1.580 -0.0034 -0.2897  0.1995
11008TIP3    H154439   5.312   4.653   1.581  1.8807  1.3508  1.3578
11008TIP3    H254440   5.322   4.504   1.610 -1.5670  0.8980  0.5973
11009TIP3   OH254441   4.990   0.724   6.309  0.1669 -0.0777  0.4260
11009TIP3    H154442   5.021   0.648   6.358  1.3118 -0.9646 -1.5660
11009TIP3    H254443   5.068   0.779   6.298 -0.5272  1.1307  1.3505
11010TIP3   OH254444   4.108   2.970  14.663 -0.1639 -0.1257  0.1523
11010TIP3    H154445   4.061   2.910  14.605  0.9695 -1.1938  0.2955
11010TIP3    H254446   4.144   3.037  14.605  2.2218 -1.9911 -0.6877
11011TIP3   OH254447   2.403   1.787  16.676  0.1696 -0.7692  0.3083
11011TIP3    H154448   2.456   1.861  16.707  0.4317 -0.9906  0.3959
11011TIP3    H254449   2.318   1.798  16.719  0.3656 -0.7896  0.7035
11012TIP3   OH254450   5.714   5.981  14.630  0.3414  0.0366 -0.5782
11012TIP3    H154451   5.622   5.958  14.641  0.5055  0.4636  2.4898
11012TIP3    H254452   5.761   5.921  14.688  1.7678  1.1606 -0.5231
11013TIP3   OH254453   2.152   5.477   6.011  0.2264 -0.1283  0.6613
11013TIP3    H154454   2.138   5.383   6.024 -0.6693 -0.0715  0.2410
11013TIP3    H254455   2.121   5.493   5.921  2.1466  0.2365  0.0283
11014TIP3   OH254456   3.348   1.322  15.574 -0.4508 -0.8137  0.1869
11014TIP3    H154457   3.434   1.354  15.603  0.2839 -3.4620  1.2895
11014TIP3    H254458   3.287   1.390  15.601  1.2132  0.9204 -0.1605
11015TIP3   OH254459   3.430   4.860  15.038 -0.0112  0.0910  0.1658
11015TIP3    H154460   3.429   4.953  15.016 -0.1963  0.0060 -0.2007
11015TIP3    H254461   3.353   4.847  15.094 -0.2927  0.0548 -0.2289
11016TIP3   OH254462   0.318   4.705  13.323 -0.3772  0.0988  0.4632
11016TIP3    H154463   0.300   4.729  13.233  2.1071  0.6350  0.0246
11016TIP3    H254464   0.353   4.784  13.363  0.8887 -0.7596  1.1431
11017TIP3   OH254465   5.554   3.749   6.182 -0.4472 -0.2975  0.0307
11017TIP3    H154466   5.577   3.734   6.273  1.5026  0.3685 -0.3163
11017TIP3    H254467   5.520   3.839   6.181 -1.0467 -0.5172  0.1841
11018TIP3   OH254468   4.402   3.573  14.463 -0.0558  0.1830 -0.5937
11018TIP3    H154469   4.392   3.559  14.369 -0.2999  0.9560 -0.6879
11018TIP3    H254470   4.490   3.610  14.472  1.1421 -2.4950 -0.2099
11019TIP3   OH254471   1.797   2.691  16.098 -0.5239 -0.0036 -0.3719
11019TIP3    H154472   1.778   2.649  16.014  1.9435  0.4915 -1.2447
11019TIP3    H254473   1.763   2.780  16.089 -0.8059 -0.1318 -0.5888
11020TIP3   OH254474   4.622   0.605  16.100  0.0456  0.3638 -0.4509
11020TIP3    H154475   4.712   0.573  16.088  0.3314  1.2532 -0.7829
11020TIP3    H254476   4.628   0.700  16.084 -0.7444  0.6174  0.6148
11021TIP3   OH254477   0.416   0.194  15.385  0.7322  0.3927 -0.3486
11021TIP3    H154478   0.487   0.238  15.338  1.1445  1.2329  1.0292
11021TIP3    H254479   0.445   0.191  15.476 -0.6237 -0.0444  0.0909
11022TIP3   OH254480   4.899   5.462  11.193 -0.3485  0.1000  0.1523
11022TIP3    H154481   4.990   5.479  11.216 -0.6633 -0.2353  1.8017
11022TIP3    H254482   4.856   5.547  11.202  0.1993  0.8088 -3.0152
11023TIP3   OH254483   1.855   0.647   0.859 -0.1312 -0.1393  0.1241
11023TIP3    H154484   1.917   0.712   0.825  2.8046 -1.7692  1.9494
11023TIP3    H254485   1.835   0.678   0.948 -2.3766  0.5609 -0.5580
11024TIP3   OH254486   2.022   1.752   4.421  0.2394  0.2251 -0.1012
11024TIP3    H154487   2.034   1.716   4.333 -0.5539 -2.0147  0.6490
11024TIP3    H254488   2.101   1.728   4.468  0.7042  1.5047 -0.1895
11025TIP3   OH254489   2.094   6.321   2.002 -0.3029  0.0519  0.0065
11025TIP3    H154490   2.006   6.317   2.038 -0.1965 -0.7295  0.2131
11025TIP3    H254491   2.110   6.232   1.969 -0.1000  0.5324 -1.2599
11026TIP3   OH254492   2.843   1.054  13.260 -0.5280 -0.0107  0.8598
11026TIP3    H154493   2.896   1.128  13.232  0.4094 -0.5445  1.1885
11026TIP3    H254494   2.764   1.058  13.206  0.5706 -0.1680 -0.8126
11027TIP3   OH254495   5.680   0.454   0.174 -0.2198 -0.8326  0.2089
11027TIP3    H154496   5.681   0.362   0.198  0.3892 -0.4031  2.0082
11027TIP3    H254497   5.761   0.467   0.124 -0.9099 -1.4983 -1.1272
11028TIP3   OH254498   5.634   1.983   0.414 -0.0510  0.1617  0.1207
11028TIP3    H154499   5.630   1.902   0.362  0.3190  0.5444 -0.5053
11028TIP3    H254500   5.542   2.004   0.432 -0.2748  0.8699 -1.7076
11029TIP3   OH254501   5.050   3.689  12.396 -0.2057 -0.1858 -0.0658
11029TIP3    H154502   5.031   3.777  12.430 -2.3860 -0.2691 -0.8937
11029TIP3    H254503   5.015   3.630  12.463  3.1484 -0.5930  1.5564
11030TIP3   OH254504   0.006   1.069   2.658 -0.0562  0.0909  0.1737
11030TIP3    H154505   0.050   1.008   2.717  1.3838 -0.0371 -0.9830
11030TIP3    H254506   0.020   1.033   2.571  1.4696  2.3945 -0.6216
11031TIP3   OH254507   5.412   1.280  15.806 -0.1466 -0.2871  0.2362
11031TIP3    H154508   5.429   1.200  15.856  2.5648  1.0722  1.6527
11031TIP3    H254509   5.410   1.350  15.872 -2.0956  0.9193 -1.0052
11032TIP3   OH254510   4.913   4.834   1.320 -0.7108 -0.1575  0.7220
11032TIP3    H154511   4.838   4.791   1.360  0.1150 -1.5025  0.9170
11032TIP3    H254512   4.988   4.800   1.369  0.3623 -1.9545 -1.9605
11033TIP3   OH254513   1.341   4.614   4.534  0.1024  0.6579  0.1797
11033TIP3    H154514   1.302   4.644   4.616 -0.2933  0.3224  0.1156
11033TIP3    H254515   1.297   4.664   4.466 -1.3175 -0.7872 -0.0122
11034TIP3   OH254516   2.356   4.989   2.728 -0.1988 -0.4999  0.6998
11034TIP3    H154517   2.366   4.944   2.812 -1.1762  1.2478  1.8325
11034TIP3    H254518   2.443   5.024   2.709 -0.3590  0.6720  1.9863
11035TIP3   OH254519   0.503   6.304  14.330  0.5411 -0.4021 -0.1720
11035TIP3    H154520   0.486   6.391  14.366  0.5209 -0.5035  0.0665
11035TIP3    H254521   0.420   6.257  14.341 -0.5057  0.5019 -3.1494
11036TIP3   OH254522   0.974   3.714  13.958  0.2778  0.8414  0.0159
11036TIP3    H154523   1.030   3.646  13.996 -0.0693  0.6336  0.1654
11036TIP3    H254524   0.888   3.698  13.997  0.1467  1.2413 -0.1087
11037TIP3   OH254525   2.464   0.276   6.402 -0.1422  0.3431 -0.1669
11037TIP3    H154526   2.456   0.341   6.472 -0.7858  0.5318 -0.4102
11037TIP3    H254527   2.554   0.243   6.410 -0.4766 -0.3097  1.3410
11038TIP3   OH254528   1.451   4.227   3.414  0.5414  0.3369  0.0443
11038TIP3    H154529   1.428   4.159   3.351 -0.1806  1.6439 -1.1604
11038TIP3    H254530   1.520   4.278   3.371  1.2679  0.2342  1.0406
11039TIP3   OH254531   0.529   0.658   1.201 -0.1594 -0.1025  0.5609
11039TIP3    H154532   0.558   0.596   1.268  2.1248  1.0509  0.7304
11039TIP3    H254533   0.607   0.708   1.179 -1.2646  0.7933 -1.6684
11040TIP3   OH254534   2.925   1.590  15.810 -0.3283  0.3675 -0.7195
11040TIP3    H154535   2.973   1.508  15.801  0.3860  0.7837 -0.7343
11040TIP3    H254536   2.940   1.617  15.901  0.3183  1.0116 -1.0026
11041TIP3   OH254537   3.935   2.391   0.966  0.0323  0.2754 -0.1504
11041TIP3    H154538   3.889   2.335   0.903  1.6356 -3.1185  1.4093
11041TIP3    H254539   3.928   2.343   1.049  0.0645  3.3507  1.7728
11042TIP3   OH254540   2.345   0.566   0.349  0.8498  0.1421 -0.1409
11042TIP3    H154541   2.412   0.520   0.298  1.2452  1.4242 -0.8399
11042TIP3    H254542   2.361   0.539   0.440  1.5824 -0.4497 -0.4372
11043TIP3   OH254543   2.213   6.768  15.104 -0.4681 -0.3635  0.1060
11043TIP3    H154544   2.269   6.768  15.027 -0.7025  0.1539 -0.0713
11043TIP3    H254545   2.246   6.697  15.159  1.6138  1.1472  0.9195
11044TIP3   OH254546   0.956   1.611   5.229  0.2092  0.8251 -0.3908
11044TIP3    H154547   0.915   1.697   5.220 -2.2210 -0.2436 -0.2958
11044TIP3    H254548   0.972   1.602   5.323  2.1782  1.8422 -0.5733
11045TIP3   OH254549   3.436   5.420   4.441  0.6492  0.2563 -0.5402
11045TIP3    H154550   3.478   5.463   4.515  1.0004 -1.7233  0.4763
11045TIP3    H254551   3.507   5.401   4.380  0.8354 -0.6665 -0.0542
11046TIP3   OH254552   2.499   1.733   3.728  0.1124 -0.8395 -0.3791
11046TIP3    H154553   2.544   1.758   3.647  0.0614 -1.1995 -0.5231
11046TIP3    H254554   2.421   1.686   3.698 -1.2053  1.1290 -0.1804
11047TIP3   OH254555   3.895   1.698   5.366 -0.0380  0.1831  0.1899
11047TIP3    H154556   3.930   1.780   5.399 -0.8617  1.2658 -1.4633
11047TIP3    H254557   3.892   1.640   5.442  0.6650  1.6391  1.3679
11048TIP3   OH254558   6.142   3.563   0.716  0.2834 -0.1076 -0.0369
11048TIP3    H154559   6.064   3.601   0.677  0.5546 -1.1979 -1.7599
11048TIP3    H254560   6.195   3.638   0.743 -0.7772  0.6520 -0.0285
11049TIP3   OH254561   1.602   3.969  10.527 -0.4561  0.1444 -0.7495
11049TIP3    H154562   1.674   3.993  10.586 -1.7647 -1.3755  1.6447
11049TIP3    H254563   1.563   4.053  10.502  0.6453  0.8759 -0.1324
11050TIP3   OH254564   3.678   6.798   1.795  0.4072  0.4253  0.1190
11050TIP3    H154565   3.617   6.797   1.722  2.7950  0.6558 -2.0266
11050TIP3    H254566   3.724   6.882   1.786  0.6956  0.5164  1.9958
11051TIP3   OH254567   3.068   6.411   3.198  0.1594  0.6418 -0.0257
11051TIP3    H154568   3.006   6.339   3.182  1.1829 -0.8068  1.9871
11051TIP3    H254569   3.119   6.381   3.273  1.8972  2.7072 -0.3065
11052TIP3   OH254570   4.025   4.444  15.399  0.2017  0.2746 -0.5237
11052TIP3    H154571   4.009   4.398  15.316  1.3329  1.4678 -1.4371
11052TIP3    H254572   3.941   4.440  15.444  0.2580 -2.7553 -0.4884
11053TIP3   OH254573   4.634   0.980  11.850 -0.4208  0.1903  0.2109
11053TIP3    H154574   4.595   1.067  11.853 -1.4267 -0.2390  0.2140
11053TIP3    H254575   4.727   0.995  11.836 -0.7402  1.2394 -0.9387
11054TIP3   OH254576   4.224   0.994  10.715  0.1749 -0.0110 -0.2743
11054TIP3    H154577   4.292   1.051  10.679 -0.1417  0.2561 -0.4582
11054TIP3    H254578   4.160   0.985  10.644  0.8232 -1.6273 -0.7020
11055TIP3   OH254579   6.579   4.714   2.612 -0.3517  0.1868 -0.3104
11055TIP3    H154580   6.522   4.646   2.649  1.7132 -2.5224 -1.7509
11055TIP3    H254581   6.619   4.756   2.688 -3.0404  1.1346  0.6738
11056TIP3   OH254582   1.346   4.813  15.376 -0.3481 -0.2120 -0.5765
11056TIP3    H154583   1.365   4.720  15.389  2.2964  0.1915 -0.9793
11056TIP3    H254584   1.283   4.834  15.444  0.1188 -1.9611  0.4737
11057TIP3   OH254585   5.459   0.893  10.780 -0.2069 -0.4014 -0.3318
11057TIP3    H154586   5.389   0.946  10.741 -0.0499  0.2179  0.2027
11057TIP3    H254587   5.530   0.896  10.717 -0.1569  0.1342 -0.2553
11058TIP3   OH254588   5.109   3.813   0.350  0.1930 -0.1002  0.1362
11058TIP3    H154589   5.151   3.898   0.359  0.9326 -0.1436 -2.2978
11058TIP3    H254590   5.120   3.772   0.436  1.3273  1.5787  0.8457
11059TIP3   OH254591   5.307   0.592   5.985  0.0514  0.0882  0.1664
11059TIP3    H154592   5.265   0.658   5.930  3.4360  2.0113 -0.4014
11059TIP3    H254593   5.264   0.601   6.070 -1.5733  0.9213 -0.7074
11060TIP3   OH254594   6.655   1.975  11.958  0.0201 -0.4841 -0.2456
11060TIP3    H154595   6.640   1.884  11.982 -0.7513 -0.5697 -0.9878
11060TIP3    H254596   6.722   1.971  11.890 -2.1086 -0.8289 -2.4927
11061TIP3   OH254597   0.605   1.172  14.032  0.2136  0.1154 -0.3487
11061TIP3    H154598   0.623   1.112  14.104 -1.0541  1.0545  0.8122
11061TIP3    H254599   0.558   1.120  13.968  0.6071 -0.5294 -0.1183
11062TIP3   OH254600   0.249   3.724   5.839 -0.7271  0.4442  0.0082
11062TIP3    H154601   0.180   3.756   5.782  0.0813  2.0371 -0.1430
11062TIP3    H254602   0.246   3.782   5.915  1.6359  1.8594 -0.8593
11063TIP3   OH254603   0.174   2.422  13.665  0.2450  0.3325 -0.2633
11063TIP3    H154604   0.260   2.417  13.624  1.2057 -0.6808  1.7644
11063TIP3    H254605   0.136   2.335  13.652 -0.7123  0.8865 -1.5039
11064TIP3   OH254606   1.168   0.604   1.864 -0.1280  0.0968 -0.0020
11064TIP3    H154607   1.228   0.657   1.811  0.1305 -0.4644 -0.2767
11064TIP3    H254608   1.149   0.528   1.810 -0.2475 -0.2461  0.5151
11065TIP3   OH254609   1.043   3.255   0.094  0.3417 -0.2251 -0.8773
11065TIP3    H154610   1.000   3.318   0.037  0.0135 -2.4555 -3.3198
11065TIP3    H254611   1.133   3.250   0.062  1.8262  2.3509  2.3932
11066TIP3   OH254612   2.329   6.760   4.115 -0.3560  0.2356  0.4595
11066TIP3    H154613   2.378   6.778   4.035 -0.1549  0.7596  0.6936
11066TIP3    H254614   2.269   6.689   4.091  1.1330 -1.0527  0.4294
11067TIP3   OH254615   0.807   6.499   4.137 -0.1816 -0.4404  0.1562
11067TIP3    H154616   0.740   6.443   4.176 -0.2775  0.2558  1.0189
11067TIP3    H254617   0.876   6.439   4.109 -0.8303 -1.0939 -0.0634
11068TIP3   OH254618   6.303   4.046   0.052  0.0962 -0.1171 -0.1797
11068TIP3    H154619   6.378   4.022  -0.002  0.0682  1.0916 -0.7939
11068TIP3    H254620   6.257   3.963   0.067  0.2767 -0.5290 -1.7505
11069TIP3   OH254621   3.714   3.863   1.995 -0.4993  0.1071 -0.2910
11069TIP3    H154622   3.802   3.886   1.967 -0.7051  0.4487 -0.6626
11069TIP3    H254623   3.667   3.842   1.914 -1.1976  1.4568 -0.2771
11070TIP3   OH254624   2.942   4.438  12.974  0.6220 -0.1384  0.3612
11070TIP3    H154625   2.951   4.344  12.987 -0.5210 -0.2563  0.3896
11070TIP3    H254626   2.903   4.448  12.887  0.0359  0.2670  0.6614
11071TIP3   OH254627   4.960   6.196   6.579 -0.3980 -0.6035 -0.1042
11071TIP3    H154628   4.870   6.172   6.599 -0.6493  0.1057 -0.3341
11071TIP3    H254629   5.013   6.122   6.608 -0.9892 -0.7082  0.7160
11072TIP3   OH254630   2.261   2.843  16.383  0.7950  0.3301 -0.5089
11072TIP3    H154631   2.188   2.786  16.409 -0.4309  0.7567 -2.7266
11072TIP3    H254632   2.315   2.787  16.326  1.3674  0.4541 -0.0875
11073TIP3   OH254633   2.451   1.876   3.209 -0.7402 -0.1111  0.0712
11073TIP3    H154634   2.484   1.788   3.228 -1.6252 -0.6316 -0.7467
11073TIP3    H254635   2.529   1.930   3.200 -0.1847 -0.8532  0.3988
11074TIP3   OH254636   6.250   3.876  16.800  0.1188 -0.1432  0.1561
11074TIP3    H154637   6.296   3.948  16.757  0.7499  0.1806  1.3200
11074TIP3    H254638   6.320   3.814  16.822 -0.5117 -1.5040 -1.5377
11075TIP3   OH254639   6.725   2.794   2.688 -0.1964  0.1644 -0.0146
11075TIP3    H154640   6.695   2.880   2.658  1.6997  0.8227 -0.1531
11075TIP3    H254641   6.768   2.755   2.612  1.0242  0.1154  0.6696
11076TIP3   OH254642   4.068   0.688  15.862 -0.0786 -0.1050  0.1243
11076TIP3    H154643   4.139   0.733  15.816  1.0381 -2.4498 -0.6239
11076TIP3    H254644   4.104   0.665  15.947 -0.1480 -0.7518 -0.0156
11077TIP3   OH254645   6.076   0.302   4.699 -0.3773  0.6521 -0.1056
11077TIP3    H154646   5.988   0.269   4.718 -0.5118  1.6075  1.0846
11077TIP3    H254647   6.105   0.250   4.624 -0.5249 -2.1595  1.6405
11078TIP3   OH254648   5.478   2.102   5.332  0.5269  0.3954  0.3261
11078TIP3    H154649   5.546   2.165   5.307  0.4954  0.7055  1.0007
11078TIP3    H254650   5.429   2.146   5.402  0.1857 -0.1815  0.4575
11079TIP3   OH254651   4.356   4.230   1.111 -0.6910  0.3090 -0.4493
11079TIP3    H154652   4.367   4.230   1.206 -1.3789  1.9387 -0.3296
11079TIP3    H254653   4.409   4.303   1.081 -2.5636  1.5409 -0.9746
11080TIP3   OH254654   1.313   2.885   3.919  0.4157  0.5428  0.6701
11080TIP3    H154655   1.297   2.882   3.825 -1.5180 -0.2680  0.9697
11080TIP3    H254656   1.351   2.800   3.940  0.9936  0.7839  0.5919
11081TIP3   OH254657   4.873   2.071  14.255 -0.0018 -0.2213  0.0324
11081TIP3    H154658   4.940   2.052  14.320 -1.1661  0.4984  1.4925
11081TIP3    H254659   4.828   1.987  14.242  2.3449 -1.2780 -2.5109
11082TIP3   OH254660   6.391   3.269   5.532  0.4769  0.8588  0.3960
11082TIP3    H154661   6.467   3.211   5.526  1.1423  1.6605  0.8866
11082TIP3    H254662   6.349   3.246   5.615 -0.7395 -0.6462 -0.5712
11083TIP3   OH254663   2.905   0.081   3.539 -0.1898 -0.5583  0.0185
11083TIP3    H154664   2.878   0.005   3.488 -0.1909 -1.4643  1.3018
11083TIP3    H254665   2.853   0.153   3.505 -0.6237 -1.2620 -0.8404
11084TIP3   OH254666   1.482   3.911  13.074  0.2329  0.0271  0.3706
11084TIP3    H154667   1.476   3.971  12.999 -0.8440  0.5952  0.8953
11084TIP3    H254668   1.391   3.886  13.092  0.6204 -1.3594  0.4990
11085TIP3   OH254669   1.756   3.282  15.641 -0.3213 -0.7150 -0.6112
11085TIP3    H154670   1.683   3.343  15.626 -0.4514 -0.9310 -0.8508
11085TIP3    H254671   1.819   3.333  15.693 -0.4144 -0.3614 -0.8390
11086TIP3   OH254672   1.878   0.877  14.269 -0.3176  0.1663 -0.2156
11086TIP3    H154673   1.963   0.873  14.225  1.4695 -0.2166  2.9766
11086TIP3    H254674   1.859   0.971  14.276  0.2998  0.2921 -0.1630
11087TIP3   OH254675   5.518   3.084  12.810 -0.0578  0.5819 -0.1445
11087TIP3    H154676   5.580   3.115  12.876 -0.3984 -2.1997  1.6776
11087TIP3    H254677   5.433   3.120  12.838  0.1188  1.2016 -0.3835
11088TIP3   OH254678   0.226   1.966  11.710  0.6547 -0.1540  0.2664
11088TIP3    H154679   0.264   1.882  11.736  0.1627 -1.4247 -2.6714
11088TIP3    H254680   0.133   1.957  11.729  0.0814 -1.5739 -2.7340
11089TIP3   OH254681   2.740   3.706  13.460  0.1324  0.0155 -0.4301
11089TIP3    H154682   2.719   3.708  13.367 -0.0751 -3.0265 -0.5566
11089TIP3    H254683   2.825   3.662  13.465  0.3811  0.5824  0.8023
11090TIP3   OH254684   4.926   4.524   1.670 -0.0092 -0.1394  0.1614
11090TIP3    H154685   4.991   4.565   1.728 -0.3700  1.0036 -0.2031
11090TIP3    H254686   4.942   4.430   1.677  2.6552  0.1386 -0.9859
11091TIP3   OH254687   1.103   5.511   0.703  0.3648  0.0173  0.0958
11091TIP3    H154688   1.158   5.445   0.661  0.2823  0.8956 -1.4938
11091TIP3    H254689   1.165   5.569   0.748  0.5002 -0.6224  0.7471
11092TIP3   OH254690   6.100   3.730  15.603  0.0801  0.4313  0.1824
11092TIP3    H154691   6.021   3.784  15.604  0.1469  0.5879 -1.1576
11092TIP3    H254692   6.099   3.684  15.687 -0.2011  2.1791  1.1678
11093TIP3   OH254693   1.829   5.146   5.655  0.1370 -0.0706 -0.1081
11093TIP3    H154694   1.848   5.176   5.744  0.0040 -1.8452  0.5630
11093TIP3    H254695   1.735   5.126   5.657  0.3365 -1.0740 -0.3330
11094TIP3   OH254696   4.528   0.478   3.835 -0.0871 -0.8648  0.5118
11094TIP3    H154697   4.601   0.429   3.797 -0.4593 -0.7418 -0.3805
11094TIP3    H254698   4.533   0.460   3.929  1.6836 -0.0809  0.6079
11095TIP3   OH254699   3.966   1.661  13.999  0.5668  0.1309  0.1919
11095TIP3    H154700   3.920   1.629  13.921 -1.0075 -3.7582  2.4209
11095TIP3    H254701   4.059   1.657  13.975  0.1444 -1.0671 -1.4448
11096TIP3   OH254702   0.268   5.927  16.760  0.0401 -0.1334 -0.5540
11096TIP3    H154703   0.358   5.947  16.785 -0.2960  1.0117 -0.1964
11096TIP3    H254704   0.263   5.832  16.761  0.8273 -0.1775  0.9381
11097TIP3   OH254705   5.018   4.355   6.020  0.2176  0.8870 -0.4093
11097TIP3    H154706   5.084   4.401   6.071  2.3778 -2.0900 -0.3252
11097TIP3    H254707   4.960   4.316   6.085  2.2867 -1.9235 -0.1150
11098TIP3   OH254708   6.633   0.919  13.401  1.1404  0.3701 -0.4819
11098TIP3    H154709   6.608   0.849  13.340  0.6435  1.0552 -1.0903
11098TIP3    H254710   6.634   0.877  13.487 -1.7006  0.1506 -0.4651
11099TIP3   OH254711   3.143   2.919   5.196 -0.0423  0.0767 -0.2231
11099TIP3    H154712   3.137   2.825   5.213 -0.1572  0.1141 -0.0532
11099TIP3    H254713   3.230   2.944   5.227 -1.1320  0.6128  2.6481
11100TIP3   OH254714   6.171   5.689  13.819 -0.4937  0.0418  0.0610
11100TIP3    H154715   6.122   5.625  13.869 -0.4051 -0.0151  0.0748
11100TIP3    H254716   6.249   5.642  13.789 -0.7242 -0.0244 -0.4352
11101TIP3   OH254717   1.998   4.570  11.093  0.8320  0.7684  0.1809
11101TIP3    H154718   2.063   4.605  11.031 -0.7589  2.1432 -0.8061
11101TIP3    H254719   1.957   4.497  11.046  0.2201  1.2641 -0.0770
11102TIP3   OH254720   1.185   5.291  16.432 -0.3853 -0.3048  0.0231
11102TIP3    H154721   1.263   5.296  16.376 -1.3313  2.3190 -1.2390
11102TIP3    H254722   1.112   5.310  16.373 -1.9779 -2.1123  1.2808
11103TIP3   OH254723   6.559   1.603  13.095 -0.5660 -0.0742 -0.2399
11103TIP3    H154724   6.600   1.529  13.050  0.8705 -0.1517  1.0924
11103TIP3    H254725   6.621   1.675  13.084 -1.0094  0.3672  0.1331
11104TIP3   OH254726   1.794   6.554  16.679 -0.0527  0.7117  0.5475
11104TIP3    H154727   1.840   6.585  16.601  0.7137 -0.1903  0.6177
11104TIP3    H254728   1.850   6.485  16.714 -1.0863  0.1221  1.0993
11105TIP3   OH254729   4.135   1.238   3.483 -0.2560 -0.2737 -0.6344
11105TIP3    H154730   4.134   1.146   3.509 -0.4068  0.1760  1.1158
11105TIP3    H254731   4.089   1.240   3.399 -0.4934 -1.7566 -0.5678
11106TIP3   OH254732   0.035   0.078   3.360 -0.1379  0.1850 -0.1801
11106TIP3    H154733   0.097   0.041   3.423  1.9331  3.5383 -0.0240
11106TIP3    H254734  -0.048   0.084   3.408  0.4762 -0.5581  1.0053
11107TIP3   OH254735   6.049   0.459  10.897  0.2894 -0.2311 -0.0365
11107TIP3    H154736   6.022   0.450  10.806 -0.6977  1.0987  0.0938
11107TIP3    H254737   5.973   0.431  10.948  0.7757 -0.8047  0.3919
11108TIP3   OH254738   3.141   2.217  14.159 -0.4443  0.4537  0.2010
11108TIP3    H154739   3.118   2.230  14.067  0.3843  0.8784  0.0463
11108TIP3    H254740   3.153   2.122  14.167 -1.5002  0.3029  0.1205
11109TIP3   OH254741   2.707   1.705   1.196 -0.2847  0.6992 -0.2559
11109TIP3    H154742   2.756   1.776   1.237  1.3870 -1.1826  1.2109
11109TIP3    H254743   2.773   1.654   1.149 -0.9595 -1.3079  0.8727
11110TIP3   OH254744   6.098   3.600  11.173 -0.0598 -0.1586 -0.3133
11110TIP3    H154745   6.183   3.572  11.139  0.3478  0.0567  0.4996
11110TIP3    H254746   6.062   3.655  11.104  0.5109 -0.1594 -0.6247
11111TIP3   OH254747   5.066   0.222  12.472  0.0451  0.2846 -0.1216
11111TIP3    H154748   5.043   0.132  12.494 -0.5125  0.4744  0.1017
11111TIP3    H254749   5.138   0.244  12.532  0.2387 -0.0380 -0.2360
11112TIP3   OH254750   0.743   4.605   2.163  0.3446 -0.1525  0.0087
11112TIP3    H154751   0.767   4.661   2.089 -0.9572  1.0295  0.4428
11112TIP3    H254752   0.780   4.648   2.240 -1.3864  0.6226  0.4453
11113TIP3   OH254753   3.883   1.263   4.871  0.1077  0.1606  0.6350
11113TIP3    H154754   3.859   1.355   4.885  2.5352  0.7633  1.5418
11113TIP3    H254755   3.853   1.243   4.783 -1.7743  1.3474  0.9643
11114TIP3   OH254756   2.268   4.064   3.112 -0.2335 -0.5326  0.3633
11114TIP3    H154757   2.227   3.994   3.062 -0.4749  0.4072 -0.7956
11114TIP3    H254758   2.294   4.023   3.195 -1.1478 -1.7663  0.0601
11115TIP3   OH254759   6.500   1.823  15.698  0.6639  0.0607 -0.4957
11115TIP3    H154760   6.500   1.822  15.602  0.8293 -1.7023 -0.5204
11115TIP3    H254761   6.593   1.820  15.722  0.6561  1.2925 -0.2501
11116TIP3   OH254762   6.632   6.603  17.038  0.1236  0.2446 -0.2346
11116TIP3    H154763   6.649   6.579  16.947  1.4789  0.3707 -0.0290
11116TIP3    H254764   6.695   6.551  17.089 -0.6449  0.1453  0.6407
11117TIP3   OH254765   4.204   1.499   5.369 -0.0625 -0.1021  0.1943
11117TIP3    H154766   4.177   1.529   5.283 -0.7923  1.1787  0.8405
11117TIP3    H254767   4.216   1.405   5.359  1.4368  0.2351 -1.6903
11118TIP3   OH254768   5.368   4.988  15.240 -0.4820  0.7371  0.0778
11118TIP3    H154769   5.386   5.067  15.290  0.1819  1.7339 -1.6367
11118TIP3    H254770   5.453   4.962  15.204 -1.0900  0.7476 -1.4597
11119TIP3   OH254771   6.103   6.095  12.748  0.2909  0.0193  0.4616
11119TIP3    H154772   6.009   6.079  12.760  0.0204  1.5483  0.5332
11119TIP3    H254773   6.119   6.073  12.656 -0.0960 -0.3752  0.4820
11120TIP3   OH254774   4.922   5.148   6.254 -0.2806  0.1271  0.2041
11120TIP3    H154775   4.987   5.078   6.245  0.1715  0.6989 -1.2824
11120TIP3    H254776   4.844   5.114   6.209 -0.0962  0.5019 -0.4224
11121TIP3   OH254777   6.552   3.788  13.009  0.4415  0.0226 -0.1228
11121TIP3    H154778   6.561   3.791  13.104 -2.8545  2.4094  0.2466
11121TIP3    H254779   6.459   3.771  12.993  0.7184  0.5947 -2.9140
11122TIP3   OH254780   6.016   4.399   3.254 -0.5171  0.0383 -0.9313
11122TIP3    H154781   5.996   4.339   3.326  1.3959  0.7829  0.3151
11122TIP3    H254782   5.962   4.476   3.271 -1.5744 -0.5626 -1.4733
11123TIP3   OH254783   3.065   5.113   5.886 -0.3856  0.0617  0.4057
11123TIP3    H154784   3.104   5.026   5.899  1.4745  0.9905  1.3846
11123TIP3    H254785   2.978   5.106   5.927 -0.8391 -1.7157 -0.7668
11124TIP3   OH254786   0.558   3.962  12.374 -0.1479  0.2754 -0.2707
11124TIP3    H154787   0.494   4.024  12.339 -0.6638 -0.3178 -0.4006
11124TIP3    H254788   0.516   3.877  12.364  0.6356 -0.1157 -0.2865
11125TIP3   OH254789   4.947   0.782   2.840  0.1000  0.1732  0.5307
11125TIP3    H154790   4.882   0.758   2.775 -0.3097  2.4658 -0.0016
11125TIP3    H254791   5.005   0.706   2.846 -1.4156 -1.1179 -0.4909
11126TIP3   OH254792   1.743   3.152   2.118 -0.6676 -0.2760  0.2031
11126TIP3    H154793   1.816   3.125   2.174 -0.6839 -0.6246  0.0590
11126TIP3    H254794   1.747   3.092   2.044  0.0528  0.8841 -0.7410
11127TIP3   OH254795   6.752   4.025   4.140  0.1530 -0.3374 -0.6301
11127TIP3    H154796   6.660   4.007   4.161  0.4472  0.2634  1.3361
11127TIP3    H254797   6.749   4.102   4.083 -0.4981  1.9215  2.2081
11128TIP3   OH254798   3.582   1.193   2.897  0.0839 -0.7166  0.3715
11128TIP3    H154799   3.546   1.105   2.911  1.1804 -0.9321  2.1514
11128TIP3    H254800   3.506   1.250   2.896 -0.6417 -1.6485 -0.7037
11129TIP3   OH254801   1.039   3.121  15.281 -0.3801 -0.0947 -0.2854
11129TIP3    H154802   0.983   3.185  15.324  0.2852  0.1231  0.2683
11129TIP3    H254803   1.128   3.145  15.306  0.1672  0.7904 -2.7603
11130TIP3   OH254804   0.188   5.017  16.890 -0.1074 -0.3071  1.1081
11130TIP3    H154805   0.148   5.091  16.843  0.1189 -0.3532  0.8388
11130TIP3    H254806   0.230   4.965  16.821 -1.0943 -1.2239  1.1728
11131TIP3   OH254807   2.310   6.068  15.522  0.7021  0.1987  0.3064
11131TIP3    H154808   2.346   6.060  15.610 -1.5301  0.6368  1.3424
11131TIP3    H254809   2.225   6.024  15.527  1.5606 -2.0496 -2.3807
11132TIP3   OH254810   2.297   2.011  13.190 -0.0616  0.1116 -0.4348
11132TIP3    H154811   2.273   1.980  13.103  0.8066  0.6743 -0.8895
11132TIP3    H254812   2.247   1.956  13.250  0.7084 -1.5387 -1.2321
11133TIP3   OH254813   1.882   6.646   2.570  0.2162 -0.1742  0.8995
11133TIP3    H154814   1.934   6.710   2.521 -0.7391 -1.0223 -1.3347
11133TIP3    H254815   1.821   6.699   2.621  0.1482  0.7503 -0.0972
11134TIP3   OH254816   6.328   4.390   4.940  0.3492  0.2708 -0.2725
11134TIP3    H154817   6.330   4.325   5.010  1.7892  0.5189 -0.0518
11134TIP3    H254818   6.309   4.472   4.984 -0.4961  0.1631 -0.4215
11135TIP3   OH254819   1.513   0.172  12.191 -0.0673 -0.2150 -0.2067
11135TIP3    H154820   1.473   0.219  12.118  0.7998  3.1991  1.3231
11135TIP3    H254821   1.443   0.168  12.257  0.2093 -0.0805  0.0933
11136TIP3   OH254822   4.912   3.175   3.066  0.0712  0.0409 -0.0434
11136TIP3    H154823   4.908   3.236   2.992  2.9371  0.9993  0.4508
11136TIP3    H254824   4.903   3.230   3.143 -0.0968 -0.5708  0.3777
11137TIP3   OH254825   1.670   6.482   6.028 -0.2810 -0.2420  0.1947
11137TIP3    H154826   1.633   6.476   6.117  0.9537 -0.6338  0.7014
11137TIP3    H254827   1.668   6.393   5.995 -1.0730 -0.0397 -0.3304
11138TIP3   OH254828   2.025   5.291  11.431 -0.7748 -0.5604 -0.2856
11138TIP3    H154829   1.983   5.375  11.452 -3.9051 -1.5733 -1.8536
11138TIP3    H254830   2.069   5.306  11.347 -1.1412 -0.4141 -0.4537
11139TIP3   OH254831   3.244   3.219   0.261  0.6360  0.6922  0.0620
11139TIP3    H154832   3.296   3.179   0.191  0.8622  1.5350 -0.2570
11139TIP3    H254833   3.261   3.164   0.338  0.6762 -0.0212 -0.4479
11140TIP3   OH254834   6.099   0.821  16.505  0.2971 -0.2843 -0.6319
11140TIP3    H154835   6.101   0.726  16.516 -1.2383 -0.2685  0.0088
11140TIP3    H254836   6.043   0.852  16.575  0.1061  1.0287 -1.3357
11141TIP3   OH254837   2.880   0.813  16.531 -0.4864  0.6033  0.0062
11141TIP3    H154838   2.929   0.828  16.451  0.5177  1.4389  0.7462
11141TIP3    H254839   2.867   0.719  16.534  0.8277  0.3883 -0.3733
11142TIP3   OH254840   3.736   1.056  12.477 -0.2703 -0.2967  0.4954
11142TIP3    H154841   3.689   1.065  12.393 -0.5900  0.9417  0.7783
11142TIP3    H254842   3.727   1.142  12.518  0.3009 -0.7449  1.5937
11143TIP3   OH254843   2.935   2.064  13.711 -0.0689  0.3918 -0.3813
11143TIP3    H154844   2.887   2.055  13.629  0.5645  1.3603 -0.8882
11143TIP3    H254845   2.873   2.038  13.778 -0.6805 -0.1884 -1.1501
11144TIP3   OH254846   6.730   4.030  14.511  0.0731 -0.3566  0.1893
11144TIP3    H154847   6.741   4.103  14.571 -1.2248 -0.1753  0.2320
11144TIP3    H254848   6.802   3.970  14.532  1.7600  1.3369 -0.5301
11145TIP3   OH254849   1.076   4.565   3.861  0.8615 -0.1846  0.4143
11145TIP3    H154850   1.008   4.615   3.906  0.1744 -0.3791 -0.3622
11145TIP3    H254851   1.053   4.572   3.768  1.4152 -0.9635  0.2043
11146TIP3   OH254852   4.573   3.033  13.755  0.9692  0.9578 -0.0048
11146TIP3    H154853   4.613   3.104  13.705  0.7927  1.0058 -0.0786
11146TIP3    H254854   4.643   2.968  13.765  0.8979  0.7815 -0.6347
11147TIP3   OH254855   1.125   3.647   3.657  0.6363  0.1782  0.0327
11147TIP3    H154856   1.145   3.566   3.705  1.4502  0.0978 -0.4232
11147TIP3    H254857   1.144   3.625   3.566  0.3875  0.7398 -0.1563
11148TIP3   OH254858   2.799   5.132   2.665  0.5462  0.2364 -0.6349
11148TIP3    H154859   2.779   5.225   2.663  1.9770  0.6062  0.2988
11148TIP3    H254860   2.786   5.107   2.757  2.7134  0.1637 -0.2983
11149TIP3   OH254861   3.792   1.715  11.675  0.0500 -0.2257 -0.3607
11149TIP3    H154862   3.868   1.660  11.657  0.6158 -0.7362  2.9510
11149TIP3    H254863   3.828   1.804  11.682  0.4683 -0.5001  1.4571
11150TIP3   OH254864   6.363   2.500  12.206 -0.0294 -0.0387 -0.1796
11150TIP3    H154865   6.280   2.538  12.179 -1.0091 -2.7139 -1.3244
11150TIP3    H254866   6.359   2.409  12.176  2.6731 -0.7147  1.1237
11151TIP3   OH254867   3.602   1.875   0.169 -0.4566  0.2446  0.0475
11151TIP3    H154868   3.562   1.814   0.231  1.5848 -2.0328 -0.7496
11151TIP3    H254869   3.565   1.850   0.084 -1.8616  2.1731  0.0113
11152TIP3   OH254870   4.904   0.350  16.853 -0.1682  0.7608 -0.4466
11152TIP3    H154871   4.899   0.418  16.786 -0.6244  0.3646 -0.8216
11152TIP3    H254872   4.971   0.381  16.914  1.3299  0.4302 -1.8699
11153TIP3   OH254873   6.810   2.587  11.748  0.1169  0.1279  0.1550
11153TIP3    H154874   6.760   2.658  11.708  1.7939  0.9219 -0.6499
11153TIP3    H254875   6.748   2.544  11.806 -1.4574  1.0923 -0.7331
11154TIP3   OH254876   0.225   5.982   1.608 -0.8551  0.0809 -0.8561
11154TIP3    H154877   0.306   6.023   1.638  0.2156 -1.4298 -1.4970
11154TIP3    H254878   0.174   6.053   1.569  0.9059  0.8143 -1.9401
11155TIP3   OH254879   6.703   5.564   3.798 -1.2810  0.2518 -0.5191
11155TIP3    H154880   6.639   5.494   3.811  0.1209 -1.2994 -1.6474
11155TIP3    H254881   6.706   5.576   3.703  0.4500 -0.0613 -0.5250
11156TIP3   OH254882   3.468   6.588   5.194 -0.2416  0.7086 -0.0844
11156TIP3    H154883   3.531   6.658   5.180 -1.2630  1.8092  0.6129
11156TIP3    H254884   3.480   6.529   5.119  1.2132  1.1705 -0.2393
11157TIP3   OH254885   1.584   3.653  12.947  0.7269  0.7859 -0.4161
11157TIP3    H154886   1.639   3.594  12.896 -1.1831 -1.1595 -0.3877
11157TIP3    H254887   1.519   3.685  12.884  0.1884  0.7978  0.1417
11158TIP3   OH254888   5.087   1.267   0.388 -0.0624  0.1086  0.1945
11158TIP3    H154889   5.072   1.297   0.298  2.2598 -0.9290 -0.6163
11158TIP3    H254890   5.027   1.194   0.399  1.0531 -1.1111 -1.3249
11159TIP3   OH254891   0.116   0.985  16.640  0.3580 -0.3693  0.5829
11159TIP3    H154892   0.114   0.903  16.590 -0.4856 -0.7112  1.1466
11159TIP3    H254893   0.199   0.983  16.686 -0.0356 -1.3604  1.2955
11160TIP3   OH254894   2.649   4.556   2.868 -0.5760 -0.9041  0.4093
11160TIP3    H154895   2.704   4.479   2.855  2.5808  1.2027  0.3593
11160TIP3    H254896   2.605   4.568   2.783  0.0651 -1.7864 -0.0626
11161TIP3   OH254897   0.529   5.981  12.317  0.1701 -0.0961  0.2502
11161TIP3    H154898   0.446   6.015  12.283 -0.0914 -0.2865  0.6969
11161TIP3    H254899   0.592   6.000  12.247 -0.4265 -0.7752 -0.4900
11162TIP3   OH254900   2.438   2.677  10.721  0.0284  0.3451  0.2066
11162TIP3    H154901   2.393   2.660  10.638  0.7518 -0.6744  0.0025
11162TIP3    H254902   2.530   2.660  10.703  0.7161  3.3274  0.3628
11163TIP3   OH254903   0.204   2.627  16.738 -0.5092  0.1630 -0.3065
11163TIP3    H154904   0.163   2.615  16.824  1.6624 -0.5153  0.7164
11163TIP3    H254905   0.213   2.539  16.702 -1.4382  0.4450 -1.2811
11164TIP3   OH254906   4.452   3.436  16.085 -0.0909 -0.5990  0.3931
11164TIP3    H154907   4.475   3.469  15.998 -0.2173 -0.7553  0.2998
11164TIP3    H254908   4.466   3.342  16.080 -2.1378 -0.9143 -0.1290
11165TIP3   OH254909   2.176   5.648  11.361 -0.7250  0.2156  0.1651
11165TIP3    H154910   2.139   5.571  11.320  2.3152 -0.2762 -1.9854
11165TIP3    H254911   2.137   5.722  11.315 -1.7073 -0.1015  0.4716
11166TIP3   OH254912   0.401   6.818   2.516  0.7247 -0.2168  1.1731
11166TIP3    H154913   0.466   6.855   2.455  0.3252 -0.7951  0.3784
11166TIP3    H254914   0.439   6.735   2.544  0.0803 -0.8361  0.2489
11167TIP3   OH254915   5.488   4.447  15.885  0.4092  0.4950  0.1096
11167TIP3    H154916   5.561   4.490  15.841  0.4428  1.5880  1.1866
11167TIP3    H254917   5.510   4.451  15.978 -0.8774  0.5979  0.4299
11168TIP3   OH254918   3.514   2.571  13.706  0.0001 -0.2798 -0.2132
11168TIP3    H154919   3.593   2.567  13.760  0.5274 -0.6851 -0.9852
11168TIP3    H254920   3.446   2.531  13.760  0.3286  0.0328  0.4462
11169TIP3   OH254921   1.859   2.908  12.945 -0.2625 -0.2527  0.2498
11169TIP3    H154922   1.913   2.894  13.023  0.2982 -1.2311 -0.2954
11169TIP3    H254923   1.901   2.981  12.899 -0.4577  0.1683  0.7233
11170TIP3   OH254924   1.273   5.301   3.131  0.3253  0.3472 -0.1452
11170TIP3    H154925   1.343   5.239   3.112  0.4734  0.3873  0.2428
11170TIP3    H254926   1.279   5.314   3.226 -0.9091 -0.4858  0.0670
11171TIP3   OH254927   2.574   4.623   3.409  0.1733  0.6606 -0.6287
11171TIP3    H154928   2.562   4.602   3.316 -0.4523 -1.5160 -0.1313
11171TIP3    H254929   2.574   4.537   3.453  0.3672  1.6311  1.3899
11172TIP3   OH254930   6.524   0.051   2.308  0.0778 -0.3142 -0.0608
11172TIP3    H154931   6.577   0.086   2.380 -0.2571 -0.5677  0.3103
11172TIP3    H254932   6.442   0.100   2.313 -0.3451 -1.0493  0.3833
11173TIP3   OH254933   1.210   1.272  15.943 -0.8633 -0.1314  0.1239
11173TIP3    H154934   1.180   1.317  15.864 -0.4583  0.8467  0.5105
11173TIP3    H254935   1.292   1.228  15.917 -1.7244 -1.4420 -0.4923
11174TIP3   OH254936   4.293   4.762  16.986  0.0852 -0.3763 -0.3543
11174TIP3    H154937   4.358   4.751  17.056  0.4448 -0.7138 -0.7331
11174TIP3    H254938   4.297   4.681  16.936  0.0599 -0.0148 -0.9543
11175TIP3   OH254939   6.386   0.862  15.981  0.5625 -0.4263 -0.3282
11175TIP3    H154940   6.469   0.888  15.940 -1.4163  0.3399 -4.3315
11175TIP3    H254941   6.341   0.946  15.998 -0.2035 -0.8780 -0.0766
11176TIP3   OH254942   1.950   2.545  13.112  0.6251 -0.0003  0.1666
11176TIP3    H154943   2.042   2.565  13.130  1.1526 -1.0560 -1.2083
11176TIP3    H254944   1.934   2.463  13.158  0.1981  0.4602  0.8531
11177TIP3   OH254945   6.271   1.251  15.663  0.3656 -0.0756 -0.0503
11177TIP3    H154946   6.225   1.333  15.646  1.3524  0.6265  0.5177
11177TIP3    H254947   6.204   1.193  15.699 -0.3341  0.4989 -0.3936
11178TIP3   OH254948   5.897   5.897   5.718  0.4704  0.7827  0.7652
11178TIP3    H154949   5.872   5.832   5.783  0.3053 -2.1306 -1.9200
11178TIP3    H254950   5.992   5.903   5.725  0.4792  0.2722  1.0907
11179TIP3   OH254951   4.383   3.457  12.395  0.3617  0.3895  0.2422
11179TIP3    H154952   4.385   3.476  12.488 -0.7071  2.5511 -0.1138
11179TIP3    H254953   4.354   3.539  12.354 -2.0491 -1.2884 -1.7307
11180TIP3   OH254954   1.993   2.116  16.301  0.0103  0.3534 -0.3224
11180TIP3    H154955   1.937   2.187  16.331 -0.5261  0.1168 -0.7288
11180TIP3    H254956   1.931   2.051  16.265  0.6219  0.7546 -2.1892
11181TIP3   OH254957   1.757   1.846  11.666  0.2903 -0.2317 -0.4518
11181TIP3    H154958   1.702   1.797  11.728  0.5639  0.0711  0.0416
11181TIP3    H254959   1.722   1.823  11.580  0.5979 -1.5210 -0.2556
11182TIP3   OH254960   4.278   1.706   1.087 -0.1060  0.2017 -0.1417
11182TIP3    H154961   4.359   1.748   1.057 -0.2582  0.1626 -0.6216
11182TIP3    H254962   4.208   1.754   1.042 -0.4058  0.7701  0.8955
11183TIP3   OH254963   1.888   3.752   4.620  0.5257 -0.5393  0.0025
11183TIP3    H154964   1.819   3.775   4.681  0.2040  1.7002 -1.1320
11183TIP3    H254965   1.907   3.660   4.640 -0.6242 -0.3417  2.3800
11184TIP3   OH254966   2.196   5.887  14.549  0.0352  0.0321 -0.4361
11184TIP3    H154967   2.281   5.931  14.558 -0.0498 -0.0095  0.8040
11184TIP3    H254968   2.171   5.901  14.458  0.7268  1.2596 -0.4623
11185TIP3   OH254969   3.681   1.314  14.555  0.5345  0.4764 -0.4482
11185TIP3    H154970   3.731   1.361  14.488  0.8869  0.7353 -0.0102
11185TIP3    H254971   3.731   1.328  14.636 -0.1938  0.6636 -0.0201
11186TIP3   OH254972   4.361   6.755  14.766 -0.6845 -0.1104 -0.6196
11186TIP3    H154973   4.428   6.704  14.811 -1.4846 -3.0742 -2.5166
11186TIP3    H254974   4.408   6.833  14.736  1.1379 -0.6381  0.6573
11187TIP3   OH254975   3.273   2.459  11.724 -0.5525  0.8775  0.1565
11187TIP3    H154976   3.328   2.502  11.658 -0.0852  0.7571  0.4608
11187TIP3    H254977   3.252   2.529  11.786  1.1118  0.4683  1.2451
11188TIP3   OH254978   6.149   5.953   2.068  0.3322  0.6376 -0.4769
11188TIP3    H154979   6.190   5.869   2.089 -2.6742 -1.0860 -0.8820
11188TIP3    H254980   6.134   5.995   2.153 -1.2703 -0.9260  0.0787
11189TIP3   OH254981   0.146   3.341  13.919 -0.5285  1.0347 -0.0508
11189TIP3    H154982   0.094   3.394  13.858 -1.1224  1.3628  0.7206
11189TIP3    H254983   0.080   3.291  13.968  0.0130 -0.5698 -0.8713
11190TIP3   OH254984   5.638   4.114  12.051 -0.1475 -0.2962 -0.3128
11190TIP3    H154985   5.678   4.028  12.045  1.7495  0.2328  2.7131
11190TIP3    H254986   5.679   4.165  11.981  1.1873 -0.9779 -0.0477
11191TIP3   OH254987   5.506   5.959  12.900  0.0658 -0.1047  0.1235
11191TIP3    H154988   5.525   6.006  12.819 -0.0013 -2.2007 -1.1863
11191TIP3    H254989   5.415   5.932  12.892  0.3241 -1.1374  0.4376
11192TIP3   OH254990   6.396   5.076   2.153 -0.3873  0.0202 -0.0996
11192TIP3    H154991   6.456   5.021   2.104  0.8472  1.5505 -0.3723
11192TIP3    H254992   6.329   5.016   2.186  1.4094 -1.7783  0.4156
11193TIP3   OH254993   6.155   1.696  14.096  0.2480 -0.0054 -0.0444
11193TIP3    H154994   6.099   1.751  14.040  1.6418  2.1028  0.4956
11193TIP3    H254995   6.244   1.717  14.068  0.8543 -1.9916  0.2644
11194TIP3   OH254996   0.319   5.006  13.593 -0.1755  0.1847  0.7097
11194TIP3    H154997   0.270   5.070  13.645 -1.1828 -0.5246  0.6536
11194TIP3    H254998   0.259   4.983  13.522 -0.0553 -1.2246  1.0333
11195TIP3   OH254999   3.401   5.381  14.234 -0.4912 -0.2832  0.6708
11195TIP3    H155000   3.437   5.460  14.196 -2.3281  0.8696  1.1838
11195TIP3    H255001   3.340   5.348  14.168  1.0128 -1.9058  0.0193
11196TIP3   OH255002   5.482   3.378  15.092 -0.7977 -0.0187  0.4836
11196TIP3    H155003   5.490   3.286  15.118  2.5113 -0.1180 -0.4178
11196TIP3    H255004   5.546   3.423  15.147 -1.2017  1.4790 -0.2365
11197TIP3   OH255005   0.952   6.531  13.464 -0.5110  0.5093 -0.1382
11197TIP3    H155006   0.873   6.495  13.423  0.5764 -1.0489 -0.9780
11197TIP3    H255007   0.966   6.475  13.541 -1.5913  2.3608  1.4957
11198TIP3   OH255008   6.708   0.813  15.021  0.3698 -0.4300  0.5466
11198TIP3    H155009   6.623   0.822  14.979 -0.0224 -2.3842  0.8326
11198TIP3    H255010   6.763   0.879  14.978 -1.1644  0.5749  0.0749
11199TIP3   OH255011   5.305   1.636   0.696 -0.1548 -0.0217 -0.0681
11199TIP3    H155012   5.274   1.635   0.605  1.2348  0.3947 -0.5784
11199TIP3    H255013   5.230   1.665   0.747 -1.9343 -3.1639 -0.6579
11200TIP3   OH255014   1.503   5.174   4.131 -0.4052  0.1047  0.1795
11200TIP3    H155015   1.425   5.224   4.153 -0.6673 -0.6780  1.1112
11200TIP3    H255016   1.473   5.084   4.121  0.4211 -0.2765  0.9283
11201TIP3   OH255017   6.676   2.018   2.383  0.1708 -0.7097  0.3290
11201TIP3    H155018   6.646   2.083   2.447 -0.6748 -1.1855  0.4252
11201TIP3    H255019   6.771   2.024   2.386  0.1233 -0.2297  1.1134
11202TIP3   OH255020   2.638   6.249  13.496  0.2136  0.0141 -0.0045
11202TIP3    H155021   2.573   6.178  13.497 -0.0846  0.1710 -2.4255
11202TIP3    H255022   2.721   6.205  13.512 -0.1517 -0.6603  0.0846
11203TIP3   OH255023   4.515   2.904  15.184 -0.1198  0.1924 -0.0444
11203TIP3    H155024   4.483   2.870  15.267  2.4469 -0.2939  0.8343
11203TIP3    H255025   4.526   2.826  15.129 -0.1855  0.3237 -0.2455
11204TIP3   OH255026   0.000   0.500  15.885  0.1093  1.0100 -0.5481
11204TIP3    H155027  -0.057   0.575  15.869  1.6643  2.2557 -0.4293
11204TIP3    H255028  -0.013   0.444  15.808 -1.5521  1.0421 -0.3349
11205TIP3   OH255029   1.552   3.685  11.369  0.5167 -0.7378  0.1502
11205TIP3    H155030   1.464   3.657  11.394  0.2562 -0.2528 -0.2083
11205TIP3    H255031   1.596   3.702  11.452 -0.3104  0.7759  0.3042
11206TIP3   OH255032   4.263   1.613  10.486  0.1139  0.5084  0.2926
11206TIP3    H155033   4.204   1.670  10.536 -0.4754 -2.5588  3.5123
11206TIP3    H255034   4.337   1.598  10.545 -0.2891 -2.7993  0.1617
11207TIP3   OH255035   1.683   1.465   4.485 -0.1614  0.3709 -0.5822
11207TIP3    H155036   1.679   1.539   4.425 -1.8836  1.0291  0.2800
11207TIP3    H255037   1.715   1.501   4.567  1.8760 -0.4654 -0.9477
11208TIP3   OH255038   6.371   4.221   0.753 -0.1029 -0.1951  0.2104
11208TIP3    H155039   6.288   4.223   0.705 -0.8579  1.2663  1.5019
11208TIP3    H255040   6.347   4.206   0.844  0.9548  1.0765  0.7362
11209TIP3   OH255041   4.502   1.080  15.086 -0.3457 -0.0714  0.5643
11209TIP3    H155042   4.502   1.172  15.112  0.3538  0.5667 -1.5476
11209TIP3    H255043   4.588   1.066  15.047  0.6592 -2.4203  3.2969
11210TIP3   OH255044   1.555   4.689   0.740 -0.3719 -0.3366 -0.0587
11210TIP3    H155045   1.597   4.708   0.824  1.1493 -0.6757 -0.7097
11210TIP3    H255046   1.585   4.758   0.681  0.7603 -1.5457 -0.9873
11211TIP3   OH255047   6.374   4.273   4.592  0.0683  0.8127 -0.2039
11211TIP3    H155048   6.356   4.204   4.656 -0.9069  1.4847  0.2803
11211TIP3    H255049   6.376   4.229   4.508  0.4554  0.0498  0.1952
11212TIP3   OH255050   1.007   3.913   3.657  0.0160  0.4355 -0.4610
11212TIP3    H155051   1.036   3.822   3.653 -0.9189  0.1611 -1.4278
11212TIP3    H255052   0.930   3.911   3.714 -0.4609  0.4896 -1.1006
11213TIP3   OH255053   5.760   2.537   4.249 -0.2053  0.1949  0.3225
11213TIP3    H155054   5.733   2.627   4.233  3.2485  1.2231 -0.5303
11213TIP3    H255055   5.854   2.537   4.234 -0.2448 -3.9362 -1.2510
11214TIP3   OH255056   5.667   5.706   1.290  0.0475 -0.4694  0.4461
11214TIP3    H155057   5.742   5.747   1.334 -0.3858 -1.1681  1.9090
11214TIP3    H255058   5.594   5.764   1.310  0.2404  0.5038 -1.4330
11215TIP3   OH255059   0.841   2.208  12.451 -0.7640 -0.2642  0.4839
11215TIP3    H155060   0.814   2.283  12.399  0.4606 -0.4660 -0.4758
11215TIP3    H255061   0.934   2.221  12.467 -0.6850 -1.2251  0.9124
11216TIP3   OH255062   3.538   5.312  13.116 -0.3049 -0.4814  0.2472
11216TIP3    H155063   3.604   5.284  13.052  0.0636  0.6178  0.1201
11216TIP3    H255064   3.531   5.407  13.103 -1.3209 -0.4628  0.8230
11217TIP3   OH255065   2.930   3.054   0.625 -0.7695  0.1486 -0.1165
11217TIP3    H155066   2.880   3.108   0.687  1.1435 -1.6982  3.3892
11217TIP3    H255067   3.020   3.085   0.634 -0.5422  0.4632 -2.8645
11218TIP3   OH255068   5.866   0.352  12.653  0.4154  0.4669  0.1696
11218TIP3    H155069   5.790   0.350  12.711  0.1000  1.5517 -0.1858
11218TIP3    H255070   5.873   0.262  12.620 -1.3253  0.5460 -0.5513
11219TIP3   OH255071   6.517   3.892   3.733  0.1384 -0.3198  0.3811
11219TIP3    H155072   6.582   3.951   3.769  0.8245 -1.1589  0.5634
11219TIP3    H255073   6.567   3.835   3.674 -0.3514 -1.2414  0.8331
11220TIP3   OH255074   1.033   1.033  14.362  0.3419  0.5569  0.2584
11220TIP3    H155075   0.951   0.983  14.368  0.3874  0.5353  0.7735
11220TIP3    H255076   1.097   0.980  14.410  0.9950 -0.0810 -1.2473
11221TIP3   OH255077   6.288   1.077  15.403 -0.1062 -0.2487  0.1819
11221TIP3    H155078   6.317   1.164  15.432 -0.2970 -0.0642 -0.1646
11221TIP3    H255079   6.192   1.081  15.408 -0.1507 -0.1512 -0.6263
11222TIP3   OH255080   4.608   6.223   1.125 -0.2615  0.1753  0.1885
11222TIP3    H155081   4.645   6.297   1.077  0.9579 -0.1606  0.5859
11222TIP3    H255082   4.591   6.157   1.057 -0.4092  0.4396 -0.0352
11223TIP3   OH255083   4.942   6.022   2.537 -0.0045 -0.2503 -0.7332
11223TIP3    H155084   4.937   5.927   2.528 -0.1126 -0.3024 -0.2073
11223TIP3    H255085   4.963   6.054   2.450 -1.3446 -0.6492 -1.2245
11224TIP3   OH255086   4.457   0.720  16.664  0.1816  0.6599 -0.2110
11224TIP3    H155087   4.406   0.781  16.612  0.9343  0.2524 -1.4850
11224TIP3    H255088   4.400   0.644  16.675  0.0263  0.7383 -0.4692
11225TIP3   OH255089   2.415   6.277  11.610  0.1243 -0.3084 -0.6037
11225TIP3    H155090   2.401   6.351  11.670 -0.5303  0.1215 -1.2680
11225TIP3    H255091   2.426   6.318  11.524 -0.3493 -0.9866 -0.9939
11226TIP3   OH255092   5.907   1.301   3.102 -0.5377  0.2206  0.1754
11226TIP3    H155093   5.938   1.341   3.183 -1.1381 -1.7058  1.4211
11226TIP3    H255094   5.841   1.362   3.069 -0.1006  1.1639  0.9935
11227TIP3   OH255095   6.557   2.043  14.247 -0.5735  0.1024  0.0821
11227TIP3    H155096   6.532   1.966  14.195 -1.9125 -0.6051  1.6687
11227TIP3    H255097   6.630   2.013  14.301  0.0408  0.4832 -0.5230
11228TIP3   OH255098   6.611   4.965   1.645 -0.4713 -0.3768 -0.0996
11228TIP3    H155099   6.522   4.939   1.622 -0.0622 -0.1448 -2.2304
11228TIP3    H255100   6.639   5.021   1.572  1.3567 -0.3259  0.5799
11229TIP3   OH255101   5.147   1.650   3.234  0.3689 -0.1935 -0.4617
11229TIP3    H155102   5.192   1.568   3.256 -3.1703 -1.6348  2.4640
11229TIP3    H255103   5.189   1.716   3.290  1.0917 -0.6870 -0.3960
11230TIP3   OH255104   2.167   2.767   0.645  0.1435 -0.6203  0.2382
11230TIP3    H155105   2.239   2.764   0.708  1.0810  1.1516 -0.6742
11230TIP3    H255106   2.209   2.784   0.560 -1.3151  0.5723 -0.3123
11231TIP3   OH255107   5.551   2.136  10.654  0.0324 -0.3037  0.4419
11231TIP3    H155108   5.553   2.231  10.660 -2.8132 -0.0729 -0.6094
11231TIP3    H255109   5.588   2.117  10.568  0.6771 -0.1734  0.6855
11232TIP3   OH255110   2.168   4.970  11.520 -0.3893  0.1061 -0.2927
11232TIP3    H155111   2.127   4.966  11.433  2.7922  0.0159 -1.9235
11232TIP3    H255112   2.130   4.896  11.567  0.4486 -2.1939 -2.9565
11233TIP3   OH255113   1.531   4.936  15.840 -0.2517  0.0208  0.1291
11233TIP3    H155114   1.576   5.009  15.882  0.3724 -0.3519  0.1308
11233TIP3    H255115   1.597   4.897  15.783 -0.8998  0.1168 -0.6958
11234TIP3   OH255116   1.362   2.198  13.822  0.0508 -0.0807 -0.0895
11234TIP3    H155117   1.440   2.157  13.860 -0.2283 -1.6247 -1.0988
11234TIP3    H255118   1.394   2.248  13.747  0.0940 -0.6589 -0.4620
11235TIP3   OH255119   0.269   0.291   3.986  0.0973 -0.1804  0.3089
11235TIP3    H155120   0.200   0.336   4.035  0.6148  1.4284 -0.3880
11235TIP3    H255121   0.224   0.255   3.910 -0.2462 -0.4972  0.6554
11236TIP3   OH255122   3.627   4.516  14.679 -0.3933  0.1212 -0.2844
11236TIP3    H155123   3.684   4.549  14.610 -0.4124 -0.7183 -0.7127
11236TIP3    H255124   3.674   4.538  14.760  0.6250 -0.6657 -0.6299
11237TIP3   OH255125   4.624   4.090  14.967  0.7632 -0.4743 -0.0825
11237TIP3    H155126   4.533   4.111  14.944 -0.2018  0.3746  3.7734
11237TIP3    H255127   4.640   4.138  15.048  3.8377 -2.5643  0.7239
11238TIP3   OH255128   0.021   6.602  11.664 -0.0158  0.0245  0.3058
11238TIP3    H155129   0.018   6.575  11.572  0.7276  1.2784 -0.1121
11238TIP3    H255130  -0.070   6.594  11.694 -0.0550 -1.5839 -0.1552
11239TIP3   OH255131   6.060   6.354  13.179 -0.1181  0.9005  0.0524
11239TIP3    H155132   6.018   6.397  13.253  0.3390  2.2134 -0.4092
11239TIP3    H255133   6.118   6.289  13.219 -1.5331  0.0301  0.7374
11240TIP3   OH255134   4.344   1.036   2.044 -0.0255  0.3783  0.1781
11240TIP3    H155135   4.302   0.956   2.075 -0.0801 -0.4678 -1.9257
11240TIP3    H255136   4.270   1.093   2.019  0.0309  0.6848  0.6983
11241TIP3   OH255137   1.331   4.331   4.592  0.1881 -0.5622  0.2517
11241TIP3    H155138   1.367   4.246   4.567  2.5176  0.3014  0.4497
11241TIP3    H255139   1.349   4.388   4.517 -1.4659 -0.2314  0.0643
11242TIP3   OH255140   5.506   1.728   4.802  0.0142 -0.2088  0.2856
11242TIP3    H155141   5.480   1.637   4.813 -0.0601 -0.1380  0.6999
11242TIP3    H255142   5.554   1.729   4.719 -0.5137 -0.5074 -0.0285
11243TIP3   OH255143   3.939   6.505  12.411 -0.9717 -0.5534  0.2118
11243TIP3    H155144   3.869   6.493  12.476 -0.8406  1.7669  0.8545
11243TIP3    H255145   4.013   6.538  12.462 -0.5917  0.5010 -0.9792
11244TIP3   OH255146   6.123   5.295  16.721 -0.4520 -0.5407  0.4574
11244TIP3    H155147   6.180   5.269  16.793  1.0890 -0.2348 -0.6005
11244TIP3    H255148   6.163   5.255  16.643 -1.6001 -0.1805 -0.3530
11245TIP3   OH255149   4.352   5.067  11.124  0.5883 -0.1243 -0.1079
11245TIP3    H155150   4.446   5.082  11.112  0.7637 -1.3744 -0.4793
11245TIP3    H255151   4.311   5.148  11.094  1.4043 -0.5384 -2.6056
11246TIP3   OH255152   3.033   0.189   5.484 -0.2313 -0.3142 -0.3235
11246TIP3    H155153   3.049   0.124   5.415  0.6101 -1.2166  0.6792
11246TIP3    H255154   3.094   0.260   5.465 -1.3905  0.3698 -1.6245
11247TIP3   OH255155   0.329   3.724  14.021 -0.4781 -0.4263  0.1977
11247TIP3    H155156   0.371   3.785  14.081  0.2963 -1.0872  0.3442
11247TIP3    H255157   0.365   3.745  13.935  1.9949 -2.4349  0.6005
11248TIP3   OH255158   2.218   2.733   3.186  0.0434 -0.2550 -0.0850
11248TIP3    H155159   2.131   2.742   3.146  0.9863  2.7466 -1.7971
11248TIP3    H255160   2.227   2.811   3.242  1.2688 -1.0139  0.8245
11249TIP3   OH255161   6.636   2.903   1.997  0.0044 -0.0689  0.1126
11249TIP3    H155162   6.714   2.906   2.052 -0.0219 -1.5939  0.2680
11249TIP3    H255163   6.669   2.914   1.908  0.7433 -2.9475 -0.0638
11250TIP3   OH255164   0.761   4.181   6.081 -0.5137  0.1168  0.3197
11250TIP3    H155165   0.737   4.153   6.170 -0.1337  0.5556  0.5675
11250TIP3    H255166   0.708   4.260   6.067  0.2248  0.6749  0.5889
11251TIP3   OH255167   1.581   2.402  14.456 -0.1195 -1.0200  0.1838
11251TIP3    H155168   1.508   2.410  14.396 -0.1995 -1.1399  0.2648
11251TIP3    H255169   1.635   2.332  14.419 -1.2826 -2.6483  1.3863
11252TIP3   OH255170   5.922   5.384  16.945 -0.2451  0.3295 -0.2206
11252TIP3    H155171   5.974   5.400  16.867 -1.7009  0.2550 -1.2454
11252TIP3    H255172   5.847   5.333  16.914 -1.6029  1.5245  0.9571
11253TIP3   OH255173   5.560   4.431   4.610 -0.5381 -0.0782 -0.5101
11253TIP3    H155174   5.652   4.459   4.612 -0.2602 -0.6371 -2.6720
11253TIP3    H255175   5.523   4.462   4.693  1.2021  1.5011 -0.2667
11254TIP3   OH255176   3.148   5.159   3.878  0.0876  0.2300  0.3267
11254TIP3    H155177   3.172   5.131   3.790  0.6606  0.6125  0.3603
11254TIP3    H255178   3.052   5.164   3.876 -0.1193 -2.1826  0.4548
11255TIP3   OH255179   0.976   1.604  14.366  0.2060  0.2032 -0.0015
11255TIP3    H155180   0.899   1.552  14.343  0.4317  0.1711 -0.7043
11255TIP3    H255181   0.941   1.675  14.421 -0.2664 -0.0342  0.0063
11256TIP3   OH255182   0.270   1.008  13.173 -0.1555 -0.1874  0.0341
11256TIP3    H155183   0.322   0.956  13.112 -0.8518 -0.4571 -0.3437
11256TIP3    H255184   0.201   0.949  13.203 -0.7756  0.4203 -0.1665
11257TIP3   OH255185   0.759   3.857  11.316  0.6508 -0.0631 -0.2240
11257TIP3    H155186   0.683   3.808  11.285 -1.3636  1.5551  1.8149
11257TIP3    H255187   0.743   3.947  11.288  0.3770  0.8212  2.4689
11258TIP3   OH255188   6.168   0.740   2.147  0.2077  0.3863 -0.0967
11258TIP3    H155189   6.087   0.789   2.141 -1.0456 -1.6673 -1.8536
11258TIP3    H255190   6.152   0.674   2.214  1.7390  2.0326  1.9953
11259TIP3   OH255191   0.474   4.524  13.162 -0.0151 -0.5090  0.2874
11259TIP3    H155192   0.401   4.554  13.217  0.8696  0.1444  1.1406
11259TIP3    H255193   0.515   4.604  13.129  1.0387 -0.8031  0.8157
11260TIP3   OH255194   6.451   3.687  16.879  0.1015 -0.1078 -0.1117
11260TIP3    H155195   6.513   3.656  16.813 -0.0115 -1.2408  0.2900
11260TIP3    H255196   6.500   3.683  16.962 -0.1556  0.0759  0.0519
11261TIP3   OH255197   1.000   6.429   5.608 -0.6986 -0.3070  0.1776
11261TIP3    H155198   1.069   6.496   5.604  0.1854 -1.2427 -0.5957
11261TIP3    H255199   1.046   6.348   5.629 -1.8878 -0.5330  2.0908
11262TIP3   OH255200   5.521   5.120  14.181  0.1090  0.4770 -0.6399
11262TIP3    H155201   5.599   5.101  14.128  0.6292  0.8595 -0.0228
11262TIP3    H255202   5.531   5.211  14.207 -0.2671  0.3682 -0.0930
11263TIP3   OH255203   3.369   3.040   1.149  0.7786  0.1075 -0.3130
11263TIP3    H155204   3.411   3.125   1.135  1.6269 -0.3340 -0.5596
11263TIP3    H255205   3.442   2.978   1.153  0.2479 -0.4583  1.0422
11264TIP3   OH255206   1.711   6.091   3.523  0.2389 -0.4628  0.0206
11264TIP3    H155207   1.623   6.088   3.485  0.6211 -1.2162 -0.8099
11264TIP3    H255208   1.696   6.085   3.618 -0.5602 -1.3452 -0.1536
11265TIP3   OH255209   1.108   4.581   2.607  0.7395  0.3822 -0.1745
11265TIP3    H155210   1.147   4.499   2.640 -0.4315  0.1202  0.6160
11265TIP3    H255211   1.127   4.580   2.513 -0.0616 -1.2707 -0.3534
11266TIP3   OH255212   6.072   4.282  13.638  0.5645  0.2585 -0.0210
11266TIP3    H155213   6.069   4.188  13.622 -0.2682  0.4318 -0.9396
11266TIP3    H255214   6.116   4.290  13.723  0.2644 -0.9744  0.2656
11267TIP3   OH255215   0.657   2.496   1.482  0.1436  0.6733 -0.0446
11267TIP3    H155216   0.631   2.573   1.533  1.3548  1.5268 -0.6522
11267TIP3    H255217   0.575   2.462   1.447 -0.5069  1.1530  0.9781
11268TIP3   OH255218   5.867   5.789   4.198 -0.3998  0.1058 -0.5516
11268TIP3    H155219   5.832   5.809   4.285  1.2256 -0.8256  0.3692
11268TIP3    H255220   5.801   5.733   4.157  0.0258 -1.7971  1.2181
11269TIP3   OH255221   2.204   6.331  13.747 -0.1868 -0.6068 -0.2710
11269TIP3    H155222   2.137   6.282  13.795 -2.5620  1.7321 -0.9482
11269TIP3    H255223   2.279   6.334  13.806 -1.9784 -0.2669  2.1183
11270TIP3   OH255224   2.143   2.247   6.327 -0.3721 -0.6205  0.6371
11270TIP3    H155225   2.080   2.296   6.274  0.7292 -0.5444 -0.6612
11270TIP3    H255226   2.221   2.302   6.329 -0.1135 -1.0024  1.6635
11271TIP3   OH255227   1.490   1.060   4.111 -0.0955  0.3609  0.8081
11271TIP3    H155228   1.425   1.121   4.077 -0.4821 -0.4458  0.0751
11271TIP3    H255229   1.558   1.057   4.045  0.1317  0.3143  1.0411
11272TIP3   OH255230   6.215   2.697  14.595  0.0603  0.5456 -0.4874
11272TIP3    H155231   6.190   2.786  14.571  0.4931  0.6416 -0.5983
11272TIP3    H255232   6.133   2.648  14.595 -0.0399  0.6834 -1.5735
11273TIP3   OH255233   3.846   1.412   5.504 -0.0755 -0.0481 -0.0513
11273TIP3    H155234   3.910   1.362   5.453 -1.2819 -0.0179 -1.6618
11273TIP3    H255235   3.900   1.465   5.564  1.3692 -0.5608 -0.8484
11274TIP3   OH255236   2.240   6.525  14.680 -0.1819 -0.5651  0.6433
11274TIP3    H155237   2.275   6.526  14.591  0.8968 -1.1900  1.0431
11274TIP3    H255238   2.156   6.481  14.672 -1.4506  1.9044 -0.5162
11275TIP3   OH255239   0.406   0.818  13.050  0.6168  0.0857 -0.2979
11275TIP3    H155240   0.407   0.775  13.135  0.1054 -0.2975 -0.4826
11275TIP3    H255241   0.485   0.787  13.006  1.0030  0.4644  0.1200
11276TIP3   OH255242   1.827   4.451   1.962 -0.2679  0.2258  0.3704
11276TIP3    H155243   1.813   4.457   1.868 -0.1709  0.1100  0.3476
11276TIP3    H255244   1.858   4.361   1.976 -0.4659  0.1818  0.5353
11277TIP3   OH255245   5.261   5.733   1.172 -0.2403 -0.0343  0.2276
11277TIP3    H155246   5.200   5.806   1.181 -1.2065 -0.8056  0.0905
11277TIP3    H255247   5.347   5.775   1.161 -0.3921  1.0625  2.5577
11278TIP3   OH255248   3.699   2.773   3.128 -0.0085 -0.4489 -0.0554
11278TIP3    H155249   3.708   2.850   3.184 -3.1889 -1.2152  1.8021
11278TIP3    H255250   3.687   2.808   3.040  0.7276  1.0560  0.4207
11279TIP3   OH255251   4.538   6.446   1.650  0.4878 -0.4952 -0.2851
11279TIP3    H155252   4.582   6.362   1.661  0.0544 -0.5013  1.8109
11279TIP3    H255253   4.562   6.474   1.561  1.8250 -2.1221 -0.4938
11280TIP3   OH255254   4.977   1.794  11.551 -0.1783 -0.0540 -0.2673
11280TIP3    H155255   5.071   1.776  11.551  0.8034  4.0415  0.4616
11280TIP3    H255256   4.963   1.848  11.472 -1.8576 -0.3362 -0.1947
11281TIP3   OH255257   1.600   1.831  15.070  0.5291  0.3816 -0.1265
11281TIP3    H155258   1.561   1.918  15.077  1.5119  0.7958  0.5244
11281TIP3    H255259   1.550   1.787  15.001 -0.6171  1.1136  0.2030
11282TIP3   OH255260   0.095   5.142  13.722  1.0917 -0.0277  0.1829
11282TIP3    H155261   0.069   5.209  13.657  1.7359 -0.7187 -0.8146
11282TIP3    H255262   0.013   5.097  13.744  1.0497 -0.7054 -1.2313
11283TIP3   OH255263   0.318   0.488   3.780  0.6342 -0.4738  0.2384
11283TIP3    H155264   0.245   0.549   3.789 -1.3659 -2.0751 -3.2036
11283TIP3    H255265   0.293   0.411   3.830  1.2680 -0.0387  1.2512
11284TIP3   OH255266   3.614   1.516   1.536 -0.5805  0.0066  0.3039
11284TIP3    H155267   3.694   1.549   1.495 -0.8009 -0.5285 -0.5915
11284TIP3    H255268   3.544   1.555   1.484 -0.9462  1.3084  1.7237
11285TIP3   OH255269   1.051   6.583  16.235 -0.2283 -0.2908 -0.0118
11285TIP3    H155270   1.077   6.519  16.302 -0.1154  0.6331  0.8456
11285TIP3    H255271   1.134   6.618  16.203 -0.3053  1.3954  1.4883
11286TIP3   OH255272   6.533   5.212  12.982 -1.1303 -0.3458 -0.1570
11286TIP3    H155273   6.499   5.227  12.894  0.2777  1.8392 -0.3977
11286TIP3    H255274   6.558   5.299  13.014  1.3825 -1.4155  1.1286
11287TIP3   OH255275   0.418   6.427  12.736 -0.1564 -0.1284  0.1447
11287TIP3    H155276   0.392   6.462  12.650 -0.1065  1.8142  0.8654
11287TIP3    H255277   0.369   6.480  12.799 -0.8751 -2.1040  1.3449
11288TIP3   OH255278   5.174   1.333  12.833  0.0732  0.3218 -0.3959
11288TIP3    H155279   5.255   1.290  12.860  1.1154  1.7595 -1.0754
11288TIP3    H255280   5.165   1.311  12.740 -0.8590 -0.6225 -0.0967
11289TIP3   OH255281   5.245   0.640  13.046 -0.6763 -0.4805 -0.3953
11289TIP3    H155282   5.250   0.696  12.968  0.2296  0.8352  0.5624
11289TIP3    H255283   5.156   0.606  13.046 -2.5048  3.6657  0.7105
11290TIP3   OH255284   0.866   6.782  16.231  0.2741 -0.0734  0.0727
11290TIP3    H155285   0.922   6.849  16.191  0.5348 -1.0715 -1.3547
11290TIP3    H255286   0.925   6.707  16.243  0.3013  0.2879  2.8117
11291TIP3   OH255287   3.159   4.113   6.265  0.3545 -0.4125 -0.0856
11291TIP3    H155288   3.141   4.022   6.289  0.4418 -0.1016  1.2122
11291TIP3    H255289   3.246   4.110   6.224 -0.3589 -1.1440 -1.6273
11292TIP3   OH255290   1.808   1.425   3.825 -0.0607 -0.6157 -0.3341
11292TIP3    H155291   1.731   1.417   3.769 -0.1893 -0.8795 -0.1230
11292TIP3    H255292   1.865   1.485   3.778 -0.1027 -0.9467 -0.8188
11293TIP3   OH255293   3.633   6.764  16.008 -0.4333 -0.1458  0.4243
11293TIP3    H155294   3.579   6.713  16.069 -0.4415  1.0834  1.4702
11293TIP3    H255295   3.573   6.785  15.936 -0.4383 -1.5592 -0.0191
11294TIP3   OH255296   6.363   6.387   5.703  0.0217 -0.3648 -0.3806
11294TIP3    H155297   6.325   6.473   5.720  0.5188  0.1093 -1.5917
11294TIP3    H255298   6.454   6.395   5.734 -0.4953 -1.1532  1.4938
11295TIP3   OH255299   4.185   6.700  16.953 -0.0547 -0.1606 -0.6526
11295TIP3    H155300   4.219   6.753  16.882 -1.4213 -0.4115 -1.5444
11295TIP3    H255301   4.226   6.736  17.032 -0.6691  2.0195 -1.2464
11296TIP3   OH255302   6.107   6.276   5.693 -0.0364 -0.2810 -0.5052
11296TIP3    H155303   6.061   6.260   5.775 -0.7381  0.1795 -0.8037
11296TIP3    H255304   6.179   6.334   5.717 -0.1149 -0.3186 -0.1776
11297TIP3   OH255305   3.923   2.940   0.837  0.3089 -0.3904  0.0415
11297TIP3    H155306   3.970   3.008   0.791  1.1864 -1.3505 -0.5212
11297TIP3    H255307   3.991   2.888   0.879 -0.4693  1.9847  4.8688
11298TIP3   OH255308   2.608   5.392  16.795  0.5284 -0.5289 -0.1285
11298TIP3    H155309   2.553   5.416  16.869  3.4464 -0.4890  2.1741
11298TIP3    H255310   2.612   5.471  16.741 -1.2787 -0.4285 -0.1833
11299TIP3   OH255311   1.882   4.069   5.024 -0.2061 -0.3012  0.5077
11299TIP3    H155312   1.840   4.152   5.046 -0.5486 -0.7756  1.7810
11299TIP3    H255313   1.822   4.027   4.962 -1.2764 -0.6265  1.7066
11300TIP3   OH255314   5.845   1.219  11.202  0.3839 -0.2994  0.0042
11300TIP3    H155315   5.762   1.245  11.242 -1.5316 -3.7093 -1.3360
11300TIP3    H255316   5.833   1.235  11.109  1.3007 -0.6809 -0.1881
11301TIP3   OH255317   6.522   6.784  12.787  0.1695 -0.7578 -0.1913
11301TIP3    H155318   6.579   6.707  12.787 -0.6822 -1.4220  0.9919
11301TIP3    H255319   6.441   6.754  12.746 -0.0635 -0.3972  0.0056
11302TIP3   OH255320   2.409   3.037   1.984  0.2308 -0.4765  0.1656
11302TIP3    H155321   2.333   3.095   1.984  0.5137  0.0695  3.1746
11302TIP3    H255322   2.387   2.968   2.046  1.0578 -2.0502 -1.1967
11303TIP3   OH255323   3.866   1.979   1.865  0.1663  0.1044 -0.0388
11303TIP3    H155324   3.905   1.955   1.948  1.3494  2.1579  0.0419
11303TIP3    H255325   3.825   2.064   1.880  0.9096  0.7996 -1.6750
11304TIP3   OH255326   4.353   2.127   2.052 -0.2796  0.2742  0.3879
11304TIP3    H155327   4.333   2.142   2.145  0.0353 -0.0722  0.5144
11304TIP3    H255328   4.434   2.076   2.053 -0.3276  0.1853 -0.0778
11305TIP3   OH255329   1.292   0.845   4.090  0.5352  0.2032 -0.0620
11305TIP3    H155330   1.341   0.771   4.054 -0.4500 -2.1838  3.0484
11305TIP3    H255331   1.358   0.911   4.109  1.9424 -1.1185 -0.1680
11306TIP3   OH255332   5.548   4.129   3.598 -0.1535 -0.0001 -0.1353
11306TIP3    H155333   5.506   4.118   3.513 -0.1007  1.3700 -0.3623
11306TIP3    H255334   5.635   4.090   3.588 -1.1385 -2.4406  0.1985
11307TIP3   OH255335   2.520   4.110   3.825 -0.4926  0.1465  0.4387
11307TIP3    H155336   2.553   4.020   3.823  0.6415  0.5572 -1.2276
11307TIP3    H255337   2.549   4.144   3.910  1.8135 -0.1233 -0.1667
11308TIP3   OH255338   0.086   2.713  12.044  0.0472  0.2055 -0.3924
11308TIP3    H155339   0.048   2.800  12.057 -3.1525 -1.0173 -0.5056
11308TIP3    H255340   0.011   2.659  12.018  1.9663 -2.5401 -0.5808
11309TIP3   OH255341   6.755   2.985  10.696 -0.4922 -0.2739 -0.6911
11309TIP3    H155342   6.772   3.022  10.609  0.0325  0.8467 -0.1269
11309TIP3    H255343   6.817   2.912  10.704  0.7770  0.7885 -0.5355
11310TIP3   OH255344   3.120   5.973   4.224 -0.1929 -0.1286  0.0153
11310TIP3    H155345   3.161   5.895   4.262  2.1453  1.3973  0.8560
11310TIP3    H255346   3.027   5.951   4.217  0.5838 -3.5759 -1.3564
11311TIP3   OH255347   3.899   0.807   5.302  0.0012 -1.1075 -0.3094
11311TIP3    H155348   3.976   0.853   5.269 -0.5682 -0.3468 -0.6242
11311TIP3    H255349   3.845   0.876   5.341 -0.8954 -1.5066 -0.8173
11312TIP3   OH255350   4.490   2.813   4.991  0.1191  0.3173  0.5982
11312TIP3    H155351   4.560   2.875   4.972 -1.7551  2.2277 -0.3354
11312TIP3    H255352   4.498   2.797   5.085  1.5621  0.7793  0.5787
11313TIP3   OH255353   6.276   4.905   1.241  0.0388 -0.6765  0.6764
11313TIP3    H155354   6.307   4.827   1.286  0.1847  0.4910  2.7403
11313TIP3    H255355   6.210   4.942   1.301  1.0236  1.5485  0.4770
11314TIP3   OH255356   5.011   4.052  14.611 -0.2110 -0.0689 -0.7333
11314TIP3    H155357   4.925   4.087  14.635 -0.2199 -1.3372  1.3848
11314TIP3    H255358   5.067   4.129  14.607 -0.8537  0.5373  0.8525
11315TIP3   OH255359   2.756   3.896   1.854 -0.0519  0.4967 -0.3809
11315TIP3    H155360   2.690   3.843   1.811  1.2339 -1.1363 -0.4716
11315TIP3    H255361   2.777   3.847   1.934  1.4844  0.6073 -0.6821
11316TIP3   OH255362   4.439   4.057  15.757  1.3006  0.5365 -0.1263
11316TIP3    H155363   4.464   3.999  15.829 -2.2603 -1.1499 -0.0703
11316TIP3    H255364   4.406   3.998  15.689 -2.3202  2.3658 -0.1566
11317TIP3   OH255365   6.732   6.069   4.427 -0.1201 -0.0823 -0.7436
11317TIP3    H155366   6.750   6.056   4.334 -0.5214 -1.6669 -0.6215
11317TIP3    H255367   6.796   6.135   4.455 -0.3935  0.8684 -2.2621
11318TIP3   OH255368   4.084   5.532   2.979 -1.0254 -0.5170 -0.0853
11318TIP3    H155369   4.092   5.485   2.896  1.2024  0.3921 -0.4532
11318TIP3    H255370   4.117   5.471   3.045  0.1313 -0.1752 -0.3199
11319TIP3   OH255371   0.175   3.196   0.179 -0.2654 -0.1738 -0.0014
11319TIP3    H155372   0.218   3.154   0.254 -0.6285 -0.1534  0.2203
11319TIP3    H255373   0.083   3.174   0.188 -0.2693 -0.4295 -0.6211
11320TIP3   OH255374   0.198   6.482  10.428 -0.1614 -0.6956  0.2261
11320TIP3    H155375   0.262   6.474  10.498  1.4086  1.5292 -0.7989
11320TIP3    H255376   0.248   6.465  10.348 -1.1999 -0.4150 -0.5044
11321TIP3   OH255377   3.070   3.574  10.485 -0.1004 -0.2879 -0.6721
11321TIP3    H155378   3.027   3.490  10.503 -0.8610 -0.0749 -1.4608
11321TIP3    H255379   3.129   3.587  10.560  0.8518 -2.0515 -1.0638
11322TIP3   OH255380   1.681   0.624   2.592 -0.2654 -0.4660  0.3511
11322TIP3    H155381   1.639   0.709   2.584 -0.4383 -0.5689  0.1507
11322TIP3    H255382   1.613   0.567   2.629  0.9380  0.3442  4.1583
11323TIP3   OH255383   5.154   6.495  13.418 -1.0127 -0.6300 -0.7111
11323TIP3    H155384   5.166   6.475  13.511 -0.7078 -0.5700 -0.7362
11323TIP3    H255385   5.077   6.552  13.416 -0.8009 -0.3265 -0.4515
11324TIP3   OH255386   4.940   4.983  11.554 -0.3590 -0.0766 -0.2716
11324TIP3    H155387   5.008   5.012  11.493  1.2497 -1.3922  0.8139
11324TIP3    H255388   4.917   5.061  11.604 -0.8636  0.7480 -1.7266
11325TIP3   OH255389   5.500   2.496  13.609  0.1359  0.5611  0.4892
11325TIP3    H155390   5.503   2.435  13.536 -0.6179  0.2370  0.7168
11325TIP3    H255391   5.437   2.563  13.582 -1.4893 -0.4753  1.4929
11326TIP3   OH255392   4.517   1.507  16.880 -0.5831  0.3540  0.4278
11326TIP3    H155393   4.526   1.413  16.888 -0.0564  0.2880 -0.7928
11326TIP3    H255394   4.463   1.532  16.956 -1.6725 -1.0563  0.1631
11327TIP3   OH255395   5.252   4.126  12.662  0.1635  0.5308  0.5020
11327TIP3    H155396   5.255   4.202  12.721 -0.1345  1.5316 -0.7237
11327TIP3    H255397   5.289   4.159  12.580 -0.1059 -0.6234 -0.0943
11328TIP3   OH255398   1.967   3.980  15.974 -0.2589  0.7369  0.1475
11328TIP3    H155399   1.921   4.023  16.046  0.6550  1.4606  0.3114
11328TIP3    H255400   1.925   4.015  15.895 -1.7287 -0.5720  0.2950
11329TIP3   OH255401   0.260   0.905  12.605  0.5184 -0.8170  0.0922
11329TIP3    H155402   0.286   0.885  12.694  0.1226 -1.1194  0.1461
11329TIP3    H255403   0.267   1.000  12.597  0.4998 -0.7863  0.4632
11330TIP3   OH255404   3.579   1.844   1.473 -0.3307  0.0444  0.1648
11330TIP3    H155405   3.628   1.805   1.401  0.9082 -0.2337  1.1362
11330TIP3    H255406   3.619   1.810   1.552 -1.8227  0.1577  1.0168
11331TIP3   OH255407   5.178   5.899   0.535 -0.2908 -0.0532  0.3651
11331TIP3    H155408   5.112   5.832   0.550  1.2119 -1.5975  0.4951
11331TIP3    H255409   5.228   5.902   0.616 -0.1912  1.0888  0.2787
11332TIP3   OH255410   5.391   5.248  17.085 -0.4999 -0.4715  0.3220
11332TIP3    H155411   5.433   5.268  17.168  0.6887 -1.2610 -0.0679
11332TIP3    H255412   5.380   5.152  17.086  0.5694 -0.6268 -0.8930
11333TIP3   OH255413   6.053   2.265   5.519  0.1459  0.4176 -0.0620
11333TIP3    H155414   6.007   2.181   5.529  0.8877  0.0453  0.2829
11333TIP3    H255415   6.141   2.241   5.489  0.4754  1.0577  0.3708
11334TIP3   OH255416   4.773   5.716   4.554 -0.3390  0.5029 -0.5995
11334TIP3    H155417   4.830   5.782   4.595 -2.0425  1.5877  0.1187
11334TIP3    H255418   4.721   5.766   4.492 -0.8584 -0.3885 -0.8898
11335TIP3   OH255419   5.880   5.787  16.480  0.1908 -0.3941  0.2767
11335TIP3    H155420   5.829   5.750  16.552 -0.1475  1.6524  1.1452
11335TIP3    H255421   5.970   5.787  16.512  0.4955 -2.1525 -0.4775
11336TIP3   OH255422   4.853   4.999   5.836 -0.2073  0.5462 -0.0600
11336TIP3    H155423   4.839   5.093   5.836 -0.1977  0.5622  0.8440
11336TIP3    H255424   4.767   4.961   5.820  0.0209  0.7067 -1.8523
11337TIP3   OH255425   5.385   0.768   4.872 -0.2434 -0.7178  0.2223
11337TIP3    H155426   5.390   0.810   4.958 -0.0967 -0.0036 -0.1262
11337TIP3    H255427   5.467   0.720   4.862 -0.3267 -0.9261  0.5412
11338TIP3   OH255428   2.476   4.005  10.601  0.6993  0.5203  0.0278
11338TIP3    H155429   2.522   4.081  10.565  0.1234  0.3480 -1.1144
11338TIP3    H255430   2.546   3.941  10.619  1.0996  1.0058  0.2177
11339TIP3   OH255431   3.347   4.350   0.740 -0.0904 -0.1103 -0.4705
11339TIP3    H155432   3.277   4.286   0.739 -1.3706  1.2507 -0.6180
11339TIP3    H255433   3.418   4.307   0.787 -0.1585 -2.3604 -2.2557
11340TIP3   OH255434   6.366   3.908  10.656 -0.0502 -0.6176 -0.0562
11340TIP3    H155435   6.292   3.966  10.637  0.4962  0.0956 -0.0362
11340TIP3    H255436   6.335   3.852  10.728 -0.4149 -0.0150  0.2640
11341TIP3   OH255437   2.466   2.240   3.165 -0.7926 -0.1235  0.1700
11341TIP3    H155438   2.437   2.328   3.190 -0.3376  0.2933 -0.7243
11341TIP3    H255439   2.395   2.207   3.109 -0.8847 -0.2608  0.3671
11342TIP3   OH255440   3.805   1.605  13.212 -0.2063 -0.0610 -0.2852
11342TIP3    H155441   3.724   1.653  13.227  0.5934  0.8978  1.3736
11342TIP3    H255442   3.863   1.634  13.283  1.1607 -1.6536 -0.6724
11343TIP3   OH255443   2.494   4.319   5.802  0.1853  0.4627  0.2436
11343TIP3    H155444   2.489   4.264   5.881  1.6192  0.1075  0.1003
11343TIP3    H255445   2.541   4.397   5.830 -4.3956  3.2290  1.2796
11344TIP3   OH255446   2.850   0.256  11.063 -0.4287 -0.2290 -0.1762
11344TIP3    H155447   2.862   0.230  10.972 -1.2770  2.1872 -1.0438
11344TIP3    H255448   2.936   0.288  11.090 -0.2266 -0.7626 -0.1716
11345TIP3   OH255449   6.688   0.737  15.780 -0.9547  0.2825  0.0484
11345TIP3    H155450   6.626   0.723  15.709 -0.5973 -1.6104  0.0567
11345TIP3    H255451   6.677   0.829  15.804 -3.6641  0.0437 -0.0088
11346TIP3   OH255452   3.267   2.774  11.003 -0.3823  0.5105 -0.7904
11346TIP3    H155453   3.216   2.700  11.036  0.3861  0.1990 -0.2902
11346TIP3    H255454   3.300   2.745  10.918 -3.0232  1.6013 -2.3066
11347TIP3   OH255455   4.897   2.946   5.397  0.0232  0.1345 -0.2193
11347TIP3    H155456   4.931   3.018   5.450 -2.2008  1.2406 -0.1514
11347TIP3    H255457   4.861   2.989   5.319 -1.3038 -0.8632 -0.2026
11348TIP3   OH255458   5.436   2.795  11.889 -0.1751 -0.1840 -0.0899
11348TIP3    H155459   5.463   2.845  11.812 -0.0622  1.4471  0.9542
11348TIP3    H255460   5.426   2.706  11.858  0.1399  0.3884 -1.9261
11349TIP3   OH255461   1.501   5.799  11.434  0.2507 -0.6187  0.0970
11349TIP3    H155462   1.589   5.815  11.467  1.0901  1.2144 -2.6762
11349TIP3    H255463   1.513   5.745  11.356 -0.8197  0.9444 -1.2421
11350TIP3   OH255464   1.255   4.631  13.316 -0.2082  0.0360 -0.2110
11350TIP3    H155465   1.229   4.619  13.224 -0.8215 -0.7363  0.0483
11350TIP3    H255466   1.208   4.562  13.363 -0.5809  0.9679  0.8140
11351TIP3   OH255467   3.122   4.638   0.364 -0.4755 -0.1695  0.1615
11351TIP3    H155468   3.198   4.583   0.385 -0.1441  0.3325  0.2741
11351TIP3    H255469   3.094   4.607   0.278  2.1891  2.1525 -1.7028
11352TIP3   OH255470   0.763   2.088  10.790  0.4516 -0.5914  0.3781
11352TIP3    H155471   0.701   2.160  10.794  1.4619  0.2573  1.5348
11352TIP3    H255472   0.747   2.047  10.704 -0.0039  1.1295 -0.3986
11353TIP3   OH255473   1.838   6.678  13.853 -0.4792 -0.0245  0.3084
11353TIP3    H155474   1.873   6.652  13.768 -0.5332  0.1032  0.2476
11353TIP3    H255475   1.916   6.701  13.905 -0.5345  1.3002 -0.1680
11354TIP3   OH255476   2.074   4.611   2.901 -0.1667  0.2469 -0.2184
11354TIP3    H155477   2.163   4.585   2.927 -0.9988 -1.5376  0.9840
11354TIP3    H255478   2.073   4.706   2.917  1.9802  0.6164 -1.7649
11355TIP3   OH255479   2.305   1.426  12.047 -0.1011  0.0281 -0.1833
11355TIP3    H155480   2.273   1.369  11.977  1.4921  0.2990 -1.1747
11355TIP3    H255481   2.334   1.366  12.115 -0.6344 -0.2650 -0.2051
11356TIP3   OH255482   1.951   3.373   5.663  0.2290 -0.8456  0.2089
11356TIP3    H155483   1.941   3.283   5.632 -2.4440 -1.3234  2.0597
11356TIP3    H255484   1.864   3.396   5.697  1.4728  1.5238  2.0930
11357TIP3   OH255485   3.218   5.651   1.592 -0.0421  0.2265 -0.3780
11357TIP3    H155486   3.222   5.733   1.543 -1.9515 -0.1964 -1.3377
11357TIP3    H255487   3.310   5.630   1.611  0.5346  2.1105 -0.8695
11358TIP3   OH255488   5.529   2.693  14.455 -0.7813 -0.1744 -0.0950
11358TIP3    H155489   5.603   2.752  14.471 -1.2371  0.8562 -1.5109
11358TIP3    H255490   5.454   2.739  14.494 -0.8535 -0.6947  0.3813
11359TIP3   OH255491   1.157   3.431   5.867 -0.5160  0.2774 -0.4255
11359TIP3    H155492   1.242   3.389   5.880 -0.2617  0.8742 -0.0973
11359TIP3    H255493   1.094   3.359   5.863 -0.2500 -0.0941  1.3409
11360TIP3   OH255494   4.334   6.213   1.285  0.1434 -0.6648 -0.0665
11360TIP3    H155495   4.418   6.236   1.246 -0.2655  1.1098  0.0227
11360TIP3    H255496   4.280   6.292   1.275 -1.2128 -1.4507  0.7031
11361TIP3   OH255497   2.618   2.508   2.740  0.3354 -0.0789  0.1709
11361TIP3    H155498   2.579   2.529   2.825 -1.8082  0.8585 -0.9705
11361TIP3    H255499   2.556   2.448   2.699  0.6808  0.4743 -1.2212
11362TIP3   OH255500   0.982   3.712   4.027 -0.0156  0.9035  0.0024
11362TIP3    H155501   0.959   3.673   4.111  0.7316 -0.8807 -0.5602
11362TIP3    H255502   0.983   3.806   4.043  0.8784  0.5832  2.1978
11363TIP3   OH255503   2.209   1.711   2.756 -0.5417 -0.2257  0.6643
11363TIP3    H155504   2.227   1.742   2.844 -0.7039 -1.8550  1.3029
11363TIP3    H255505   2.287   1.734   2.706  0.0039 -0.2495  1.4929
11364TIP3   OH255506   1.380   6.773  15.249 -0.2313  0.2571  0.4497
11364TIP3    H155507   1.291   6.800  15.225 -0.9754 -0.6101  2.1025
11364TIP3    H255508   1.423   6.855  15.272  0.0829  0.9522 -2.2363
11365TIP3   OH255509   1.137   4.514  15.721  0.4229 -0.3130  0.0264
11365TIP3    H155510   1.084   4.463  15.783  1.3002 -1.3296 -0.0369
11365TIP3    H255511   1.199   4.562  15.777 -0.7338  1.1314  0.1243
11366TIP3   OH255512   6.593   2.374   3.971 -0.1458 -0.0106  0.1555
11366TIP3    H155513   6.528   2.313   4.005  0.5974 -0.6049  0.5575
11366TIP3    H255514   6.602   2.442   4.038  0.5128 -0.5842  0.6677
11367TIP3   OH255515   4.403   3.563  10.708 -0.7820 -0.4904  0.0455
11367TIP3    H155516   4.481   3.533  10.661  0.2439  1.0980  0.6225
11367TIP3    H255517   4.368   3.634  10.654 -1.6595 -0.9839 -0.0486
11368TIP3   OH255518   4.347   2.002  16.195 -0.3953 -0.2612  0.7303
11368TIP3    H155519   4.381   2.074  16.141 -0.2916 -0.8981 -0.0841
11368TIP3    H255520   4.254   2.021  16.205 -0.2494  0.3038  1.0427
11369TIP3   OH255521   1.104   5.150   5.060  0.3017  0.9130 -0.1605
11369TIP3    H155522   1.082   5.103   5.141  1.3051  0.1608 -0.3079
11369TIP3    H255523   1.023   5.195   5.036 -0.2769  0.3965  0.7600
11370TIP3   OH255524   1.459   2.939   2.801  0.1004 -0.2294 -0.2076
11370TIP3    H155525   1.488   3.028   2.820  2.4468 -1.0087  0.2498
11370TIP3    H255526   1.476   2.928   2.707  1.7910 -0.8013  0.1293
11371TIP3   OH255527   5.545   6.378   0.938 -0.0617 -0.4380  0.5078
11371TIP3    H155528   5.501   6.458   0.967  0.2981  1.0291 -2.5747
11371TIP3    H255529   5.638   6.398   0.945  0.0654 -1.2040  1.1668
11372TIP3   OH255530   0.095   2.745   1.554 -0.1808  0.6750 -0.2036
11372TIP3    H155531   0.008   2.784   1.549  0.2688  1.6864 -0.3585
11372TIP3    H255532   0.148   2.809   1.601  0.8795  0.8416 -1.5274
11373TIP3   OH255533   2.299   0.515   5.780  0.3009 -0.5408  0.1921
11373TIP3    H155534   2.307   0.569   5.859 -0.8230 -0.3764  0.2225
11373TIP3    H255535   2.350   0.437   5.799  0.5048 -0.2583  0.8628
11374TIP3   OH255536   1.991   1.434  13.348 -0.6871  0.1497  0.0252
11374TIP3    H155537   2.031   1.409  13.431  0.3247 -0.8411 -0.7275
11374TIP3    H255538   2.065   1.449  13.289 -1.3923  0.5851 -0.7788
11375TIP3   OH255539   2.829   5.504   0.218 -0.4864  0.1135  0.2099
11375TIP3    H155540   2.910   5.516   0.267  0.2333  0.2818 -0.9793
11375TIP3    H255541   2.855   5.513   0.127 -1.4870 -1.7256 -0.3143
11376TIP3   OH255542   4.220   4.363   5.629 -0.4648 -0.2875  0.1313
11376TIP3    H155543   4.307   4.355   5.670 -0.2874  1.0600  0.0818
11376TIP3    H255544   4.170   4.417   5.690 -0.2356  1.6531 -1.2788
11377TIP3   OH255545   2.393   1.334   5.752  0.5718 -0.9243 -0.4957
11377TIP3    H155546   2.400   1.372   5.664  0.6671 -0.9628 -0.5046
11377TIP3    H255547   2.436   1.249   5.745  2.3590 -0.1101  0.0778
11378TIP3   OH255548   3.794   6.247  11.111 -0.5088  0.3235 -0.4183
11378TIP3    H155549   3.706   6.218  11.135 -2.1232  2.5252 -3.0610
11378TIP3    H255550   3.831   6.172  11.063 -1.4242 -0.1949 -0.3412
11379TIP3   OH255551   0.863   0.539   5.179 -0.7596  0.7672  0.1476
11379TIP3    H155552   0.949   0.516   5.146 -0.5676 -1.3124  1.9195
11379TIP3    H255553   0.863   0.635   5.180  0.3987  0.8796 -2.5793
11380TIP3   OH255554   1.756   6.215  16.561  0.0238  0.2952 -0.2522
11380TIP3    H155555   1.695   6.289  16.560 -0.6227 -0.1677  1.8010
11380TIP3    H255556   1.828   6.242  16.617  0.2588 -0.2888 -0.2570
11381TIP3   OH255557   4.432   1.197   2.563  0.8326 -0.0031 -1.1797
11381TIP3    H155558   4.495   1.202   2.491  2.9899 -1.2304  0.4870
11381TIP3    H255559   4.447   1.276   2.614  2.0287 -0.8961 -0.0755
11382TIP3   OH255560   4.043   2.185   2.055  0.1620  1.1910 -0.0493
11382TIP3    H155561   4.090   2.102   2.048  1.2206  1.8148 -0.5445
11382TIP3    H255562   4.091   2.234   2.121 -0.9521  1.1123  0.8483
11383TIP3   OH255563   2.528   4.881  17.073 -0.2124 -0.3655 -0.1120
11383TIP3    H155564   2.493   4.906  17.158 -0.9770  0.4793 -0.6570
11383TIP3    H255565   2.608   4.934  17.064 -0.6003  0.1958 -0.2863
11384TIP3   OH255566   1.820   5.804   2.927 -0.2801  0.1891 -0.1592
11384TIP3    H155567   1.908   5.828   2.898 -0.8546  0.6249 -1.6458
11384TIP3    H255568   1.768   5.802   2.846 -1.2703 -1.7079  0.4739
11385TIP3   OH255569   3.440   6.485  12.619  0.1876  0.2656  0.0410
11385TIP3    H155570   3.366   6.429  12.645  0.6080 -0.6590 -0.6827
11385TIP3    H255571   3.461   6.535  12.697  0.3848 -1.2549  1.0111
11386TIP3   OH255572   6.765   6.711  13.048  0.1634 -0.3750  0.3401
11386TIP3    H155573   6.860   6.712  13.037  0.1471 -0.4176  0.1819
11386TIP3    H255574   6.734   6.784  12.994  0.0166 -1.0826 -0.5554
11387TIP3   OH255575   1.178   3.087  16.964 -0.2678  0.6304 -0.1166
11387TIP3    H155576   1.123   3.137  16.903 -0.2121  1.6674  0.6536
11387TIP3    H255577   1.248   3.148  16.988 -0.1324  0.1444  0.7635
11388TIP3   OH255578   0.113   0.507  17.059 -0.4721  0.2969  0.0391
11388TIP3    H155579   0.104   0.444  16.988  1.4873  0.1535 -0.1471
11388TIP3    H255580   0.097   0.592  17.019 -1.3512  0.0607 -0.1168
11389TIP3   OH255581   5.474   1.200   5.095 -0.3120  0.1113 -0.4763
11389TIP3    H155582   5.534   1.185   5.022 -0.3795  1.5373 -0.8578
11389TIP3    H255583   5.528   1.191   5.174 -0.0004 -0.3719 -0.7455
11390TIP3   OH255584   0.608   0.216   2.016 -0.0954 -0.1588 -0.4504
11390TIP3    H155585   0.567   0.129   2.018 -2.7361  0.9985  1.0118
11390TIP3    H255586   0.600   0.244   1.925 -0.6082 -0.8309 -0.6243
11391TIP3   OH255587   5.607   3.432   2.457  0.1163 -0.0051  0.1595
11391TIP3    H155588   5.622   3.519   2.495  0.6431  0.2659 -0.6473
11391TIP3    H255589   5.520   3.438   2.418  0.1813  0.1841  0.0417
11392TIP3   OH255590   2.203   0.660  16.319 -0.2064  0.2920  0.5556
11392TIP3    H155591   2.236   0.735  16.369  0.5526  0.6451 -0.4351
11392TIP3    H255592   2.168   0.600  16.385  2.0350  0.0936  1.6476
11393TIP3   OH255593   5.821   1.644  10.376  0.6321  0.0666 -0.3628
11393TIP3    H155594   5.899   1.696  10.397  0.4771  0.5433 -0.9123
11393TIP3    H255595   5.783   1.623  10.461  0.2165  1.6301 -0.1311
11394TIP3   OH255596   6.630   6.392   5.787 -0.1901  0.8078  0.8795
11394TIP3    H155597   6.652   6.484   5.806  0.3357  1.3705 -2.0060
11394TIP3    H255598   6.693   6.342   5.839  0.1076  2.0986  1.8334
11395TIP3   OH255599   5.805   2.408   2.265 -0.3667 -0.5558  0.1974
11395TIP3    H155600   5.839   2.450   2.345 -0.7967 -0.3197  0.2586
11395TIP3    H255601   5.729   2.358   2.295 -1.0999  0.2848 -0.2026
11396TIP3   OH255602   1.299   3.037   3.432 -0.1428  0.0909 -0.5642
11396TIP3    H155603   1.288   2.983   3.354  0.7385 -0.1566 -0.5345
11396TIP3    H255604   1.296   3.127   3.401 -2.7723  0.1071 -0.4655
11397TIP3   OH255605   1.927   2.601   2.324 -0.4601 -0.4530 -0.2435
11397TIP3    H155606   1.942   2.509   2.301  1.5642 -0.1094 -0.4211
11397TIP3    H255607   1.868   2.633   2.255 -1.1771 -1.5965 -0.1876
11398TIP3   OH255608   1.279   4.454   2.893  0.1671 -0.2558 -0.5463
11398TIP3    H155609   1.313   4.384   2.949 -0.2616 -1.4655 -1.7518
11398TIP3    H255610   1.357   4.502   2.865  0.5339 -0.6971 -0.2921
11399TIP3   OH255611   6.558   6.103   2.695 -0.3846  0.2013 -0.8438
11399TIP3    H155612   6.588   6.018   2.663  0.2417  0.9527 -2.3980
11399TIP3    H255613   6.629   6.136   2.749 -0.2196  0.1300 -1.0157
11400TIP3   OH255614   4.914   1.907   1.740  0.0745  0.6600  0.0069
11400TIP3    H155615   4.945   1.937   1.654 -0.1627 -0.2330 -0.3909
11400TIP3    H255616   4.850   1.839   1.721  2.3458 -1.9267  0.8655
11401TIP3   OH255617   4.941   6.143   5.612 -0.4393  0.5651 -0.2467
11401TIP3    H155618   4.893   6.197   5.549 -1.6778  0.0101  0.1986
11401TIP3    H255619   4.979   6.206   5.674 -0.1749  1.0383 -0.8821
11402TIP3   OH255620   0.724   0.173  13.158  0.4923 -0.3774  0.3946
11402TIP3    H155621   0.763   0.258  13.139  0.0021 -0.3577 -0.5845
11402TIP3    H255622   0.760   0.148  13.243  0.2174  1.0499  0.9452
11403TIP3   OH255623   2.070   0.781   3.704  0.4983  0.0638  0.3529
11403TIP3    H155624   2.057   0.876   3.705  1.8174  0.2703  0.1926
11403TIP3    H255625   1.982   0.745   3.691  0.0010  1.2675  0.2110
11404TIP3   OH255626   0.815   4.992   4.210  0.6264  0.0289  0.2556
11404TIP3    H155627   0.739   5.048   4.197  0.4111 -0.5751 -1.4244
11404TIP3    H255628   0.825   4.986   4.305 -0.6647  1.1195  0.4921
11405TIP3   OH255629   2.555   2.534  11.690  0.0535  0.4997 -0.3625
11405TIP3    H155630   2.549   2.626  11.715  1.8897  0.3247  0.8605
11405TIP3    H255631   2.649   2.516  11.686 -0.2488 -1.0656 -1.6511
11406TIP3   OH255632   0.220   6.017   0.993 -0.1507 -0.4818 -0.0393
11406TIP3    H155633   0.195   6.108   0.976 -0.7546 -0.4984  0.7008
11406TIP3    H255634   0.315   6.015   0.979  0.1933  0.7180  1.7319
11407TIP3   OH255635   3.642   2.881   1.905 -0.5449  0.1188  0.1799
11407TIP3    H155636   3.647   2.864   1.999  1.0583 -0.0191  0.0875
11407TIP3    H255637   3.655   2.976   1.897 -0.0115  0.0353  0.0533
11408TIP3   OH255638   4.062   0.547  13.443  0.1314  0.7485 -0.0095
11408TIP3    H155639   4.119   0.604  13.494  0.7550  2.7223 -2.7259
11408TIP3    H255640   4.122   0.495  13.389 -0.5613 -0.0319 -0.0575
11409TIP3   OH255641   5.220   0.093   5.917 -0.2413 -0.3409  0.4287
11409TIP3    H155642   5.266   0.040   5.982 -0.9120 -0.0186  1.1706
11409TIP3    H255643   5.279   0.166   5.900 -0.7878  0.5032  1.9788
11410TIP3   OH255644   4.828   4.906   1.798  0.8065  0.4296  0.1462
11410TIP3    H155645   4.872   4.980   1.756  0.4092  0.4226 -0.2778
11410TIP3    H255646   4.834   4.835   1.735 -3.1163  1.4262 -1.6215
11411TIP3   OH255647   6.203   5.005  11.876  0.3809 -0.3349 -0.0399
11411TIP3    H155648   6.243   4.974  11.795  0.9972 -2.8675  1.1227
11411TIP3    H255649   6.218   5.099  11.876  1.1922 -0.3931 -2.3889
11412TIP3   OH255650   3.338   5.079   1.738  0.4544  0.1211 -0.3265
11412TIP3    H155651   3.342   5.069   1.643  0.7768  1.1949 -0.4414
11412TIP3    H255652   3.353   5.172   1.753  2.2089 -0.3130  0.8792
11413TIP3   OH255653   4.294   1.255   5.308  0.1962  0.0869  0.5152
11413TIP3    H155654   4.389   1.271   5.307 -0.0948  2.4158 -1.5202
11413TIP3    H255655   4.281   1.188   5.241  0.4535 -0.9026  1.4330
11414TIP3   OH255656   6.791   6.566   5.980 -0.4627  0.5412  0.8145
11414TIP3    H155657   6.778   6.484   6.028  0.8472 -1.1387 -1.4884
11414TIP3    H255658   6.862   6.610   6.026 -0.9821  0.2534  1.9117
11415TIP3   OH255659   3.038   3.724   0.581 -0.4843  0.2354  0.7937
11415TIP3    H155660   2.958   3.671   0.580 -0.8213  0.7475 -0.1768
11415TIP3    H255661   3.019   3.795   0.642 -0.7731  0.3594  0.5595
11416TIP3   OH255662   5.636   4.947  12.988 -0.1204  0.0570 -0.1585
11416TIP3    H155663   5.636   5.035  13.026 -1.7366  0.2913 -0.6115
11416TIP3    H255664   5.712   4.904  13.026  0.8106  1.7132 -0.0688
11417TIP3   OH255665   4.805   1.466  14.251 -0.8109  0.2283  0.1866
11417TIP3    H155666   4.847   1.495  14.332  1.0157  2.1871 -1.3301
11417TIP3    H255667   4.722   1.513  14.249  0.2430  2.1969 -0.1822
11418TIP3   OH255668   0.542   5.622   5.962 -0.4241  0.2209 -0.0193
11418TIP3    H155669   0.458   5.576   5.972  0.5535 -1.4670  0.8288
11418TIP3    H255670   0.568   5.645   6.051  0.3149  0.1369 -0.2064
11419TIP3   OH255671   6.017   3.071   2.795  0.3718 -0.1133 -0.4560
11419TIP3    H155672   6.100   3.094   2.837 -0.5060  0.1502  1.2192
11419TIP3    H255673   5.966   3.152   2.796 -0.3277 -0.5430 -0.4027
11420TIP3   OH255674   0.826   3.184  11.970  0.6103  0.7088 -0.3144
11420TIP3    H155675   0.800   3.276  11.974  0.3121  0.6070  0.1500
11420TIP3    H255676   0.821   3.154  12.061 -0.7747 -0.1830 -0.6707
11421TIP3   OH255677   1.227   5.113   5.404 -0.6953 -0.4962  0.0331
11421TIP3    H155678   1.273   5.059   5.340  0.7186  0.9086 -0.1735
11421TIP3    H255679   1.262   5.085   5.489 -1.1517 -0.9931  0.0696
11422TIP3   OH255680   6.513   2.828   2.932  0.3285  0.5846 -0.2047
11422TIP3    H155681   6.574   2.756   2.918  1.9201  1.5637  1.2741
11422TIP3    H255682   6.547   2.898   2.876  0.1605  0.9140  0.1040
11423TIP3   OH255683   6.359   0.206   3.275  0.1799 -0.2588 -0.0049
11423TIP3    H155684   6.428   0.202   3.342 -0.0429 -2.2967  0.1653
11423TIP3    H255685   6.404   0.186   3.193  0.0278 -0.1320 -0.1208
11424TIP3   OH255686   0.496   3.131  16.697 -0.0847  0.3181 -0.2940
11424TIP3    H155687   0.442   3.198  16.656 -2.2762 -0.8862  0.4588
11424TIP3    H255688   0.471   3.133  16.789 -1.5786 -2.6191 -0.5072
11425TIP3   OH255689   3.704   1.730  15.700 -0.4267 -0.4121  0.5062
11425TIP3    H155690   3.628   1.750  15.754 -0.2384  0.5299  0.4328
11425TIP3    H255691   3.776   1.718  15.762 -0.8743 -2.6587  0.6825
11426TIP3   OH255692   3.884   3.113  13.494  0.1744 -0.0665  0.5667
11426TIP3    H155693   3.915   3.203  13.492 -0.6772  0.3231  2.3192
11426TIP3    H255694   3.963   3.060  13.489  0.7683  0.7994  0.6212
11427TIP3   OH255695   5.486   0.411  11.798 -0.0524 -0.3382  0.6428
11427TIP3    H155696   5.496   0.489  11.854  0.3741 -1.0323  1.5673
11427TIP3    H255697   5.545   0.426  11.725  0.4433 -0.0393  1.1002
11428TIP3   OH255698   4.417   1.982  13.415  0.3379  0.4983 -0.5512
11428TIP3    H155699   4.492   1.937  13.376 -0.0889 -1.2061  0.5015
11428TIP3    H255700   4.454   2.064  13.449  1.5582  0.0562 -0.7612
11429TIP3   OH255701   0.078   3.538  16.147  0.0778  0.5041  0.3442
11429TIP3    H155702   0.162   3.537  16.101  0.1255  1.2963  0.3901
11429TIP3    H255703   0.097   3.582  16.230  0.0307 -1.0637  1.2152
11430TIP3   OH255704   4.794   0.485  11.930  0.6508  0.4110  0.1685
11430TIP3    H155705   4.805   0.500  11.837 -0.3917 -1.2149 -0.2543
11430TIP3    H255706   4.759   0.396  11.937  1.0764  0.3346  2.1304
11431TIP3   OH255707   3.052   5.998   4.843 -0.6382 -0.2445 -0.0541
11431TIP3    H155708   3.088   5.944   4.913 -0.4889 -0.6915 -0.4676
11431TIP3    H255709   3.128   6.032   4.796 -0.7223 -1.5683 -1.2162
11432TIP3   OH255710   2.731   4.067   2.554 -0.4925  0.1517  1.1936
11432TIP3    H155711   2.810   4.092   2.601 -0.4170  0.5056  0.8905
11432TIP3    H255712   2.748   4.096   2.464 -0.4256 -0.9653  0.8413
11433TIP3   OH255713   2.294   3.082  15.608  0.1709  0.5973 -0.5151
11433TIP3    H155714   2.364   3.039  15.560 -0.1512 -0.9907  0.3639
11433TIP3    H255715   2.265   3.017  15.672 -1.2353  1.6737  0.0049
11434TIP3   OH255716   2.474   5.342  12.222 -0.3843  0.2557 -0.3376
11434TIP3    H155717   2.519   5.420  12.255 -1.0081  0.2602  0.5429
11434TIP3    H255718   2.534   5.270  12.240  0.1389  0.5055 -1.0381
11435TIP3   OH255719   1.572   3.464  16.289  0.3572 -0.2453 -1.0122
11435TIP3    H155720   1.595   3.376  16.259  0.0907 -1.1164  1.1233
11435TIP3    H255721   1.568   3.516  16.209 -0.7732 -2.4519 -2.5091
11436TIP3   OH255722   4.460   2.019   3.628 -0.2268  0.1370 -0.2366
11436TIP3    H155723   4.449   1.995   3.536 -1.2114  1.1837 -0.4128
11436TIP3    H255724   4.434   1.941   3.677  0.4831 -0.4918 -0.8325
11437TIP3   OH255725   0.586   4.255  16.922  0.0805 -0.4014 -0.5979
11437TIP3    H155726   0.665   4.287  16.880  0.1724  0.8670  0.4653
11437TIP3    H255727   0.609   4.248  17.015 -0.6330 -1.4234 -0.4763
11438TIP3   OH255728   3.479   2.153  13.607 -0.3831 -0.0726 -0.6679
11438TIP3    H155729   3.477   2.073  13.555 -2.5629 -1.0110  0.7375
11438TIP3    H255730   3.451   2.222  13.547 -2.1754 -1.0186 -0.9768
11439TIP3   OH255731   1.943   3.959   1.111  0.3213 -0.4608  0.7562
11439TIP3    H155732   1.849   3.963   1.128 -0.1701  2.5167 -1.8479
11439TIP3    H255733   1.955   3.875   1.066 -1.3363 -0.3557  0.0458
11440TIP3   OH255734   5.271   4.656   6.447  0.5196 -0.8830 -0.3290
11440TIP3    H155735   5.343   4.643   6.508 -0.2318 -2.4232  0.2816
11440TIP3    H255736   5.312   4.689   6.368  1.8075 -1.0948  0.2310
11441TIP3   OH255737   5.006   4.235   1.689 -0.1164 -0.0022 -0.5953
11441TIP3    H155738   4.921   4.198   1.667 -0.8524  0.5689  1.1224
11441TIP3    H255739   5.001   4.252   1.783  2.0424 -0.2990 -0.3820
11442TIP3   OH255740   4.006   4.566  14.822  0.1483  0.1123 -0.3354
11442TIP3    H155741   4.023   4.660  14.813 -0.6617  0.2241 -0.8293
11442TIP3    H255742   4.085   4.524  14.790  0.3011  0.6229 -0.6342
11443TIP3   OH255743   1.700   1.383  11.201  0.5357  0.6329  0.1786
11443TIP3    H155744   1.619   1.387  11.151  1.2012  1.0397 -0.9027
11443TIP3    H255745   1.701   1.296  11.241  0.4605 -0.0968 -1.3479
11444TIP3   OH255746   0.221   3.654  16.452 -0.2709 -0.1918 -0.0878
11444TIP3    H155747   0.293   3.703  16.490  0.8445 -0.5492 -1.6602
11444TIP3    H255748   0.259   3.570  16.427 -1.1184 -0.2183 -1.3533
11445TIP3   OH255749   2.009   1.309   1.680 -0.3010 -0.0926 -0.2564
11445TIP3    H155750   2.087   1.361   1.657 -0.0444 -1.0009 -1.5459
11445TIP3    H255751   1.962   1.299   1.597 -1.0780 -0.7284  0.2478
11446TIP3   OH255752   3.171   0.804   4.390 -0.2574 -0.1194  0.3620
11446TIP3    H155753   3.094   0.764   4.431 -1.8982 -0.1437 -2.4653
11446TIP3    H255754   3.140   0.891   4.362  0.5316 -0.3342 -1.3041
11447TIP3   OH255755   1.921   3.108  14.987  0.6354  0.2617  0.1682
11447TIP3    H155756   1.999   3.151  15.024  1.0813 -0.4484  0.0806
11447TIP3    H255757   1.939   3.015  14.997 -0.7837  0.0856  1.3319
11448TIP3   OH255758   4.253   2.739  15.125 -0.2553 -0.0350  0.1000
11448TIP3    H155759   4.202   2.696  15.056  1.1088 -0.0390 -0.9261
11448TIP3    H255760   4.343   2.713  15.109  0.0895 -0.1431  1.9888
11449TIP3   OH255761   1.252   6.582   3.655  0.5596 -0.0292 -0.7513
11449TIP3    H155762   1.235   6.494   3.691  0.1308 -0.4006 -1.8296
11449TIP3    H255763   1.315   6.621   3.717  0.8444 -1.1345 -0.3138
11450TIP3   OH255764   0.925   5.345   2.054 -0.3425  0.6382 -0.5213
11450TIP3    H155765   0.944   5.313   1.966 -0.6863  1.4924 -0.9168
11450TIP3    H255766   0.905   5.266   2.105 -0.7245  0.1904 -1.3549
11451TIP3   OH255767   3.820   3.438  16.750 -0.1984 -0.5777 -0.1432
11451TIP3    H155768   3.839   3.369  16.814 -0.5338  0.6553  1.3488
11451TIP3    H255769   3.844   3.400  16.666  2.7052 -1.3986  0.9305
11452TIP3   OH255770   1.689   6.317  10.888  0.0148  0.3925  0.9416
11452TIP3    H155771   1.756   6.323  10.820  0.5245  0.5622  1.4466
11452TIP3    H255772   1.678   6.223  10.902  0.5007  0.3649  1.1826
11453TIP3   OH255773   6.155   6.150   2.743  0.0651  0.4065  0.6770
11453TIP3    H155774   6.112   6.097   2.676  2.5661 -0.2503 -0.5208
11453TIP3    H255775   6.184   6.087   2.809 -1.7385  0.9766  2.1116
11454TIP3   OH255776   1.684   3.997  13.229 -0.5123  0.1111 -0.4696
11454TIP3    H155777   1.630   4.014  13.306 -0.3885 -0.1524 -0.3269
11454TIP3    H255778   1.622   3.966  13.163 -0.7544  1.1506 -0.7489
11455TIP3   OH255779   6.539   1.486   0.045 -0.2392  0.5158  0.1511
11455TIP3    H155780   6.601   1.553   0.015  0.6912 -0.8493 -1.0898
11455TIP3    H255781   6.589   1.434   0.108  0.0365 -0.7722 -1.0740
11456TIP3   OH255782   4.906   1.475   4.569 -0.4974 -0.1714  0.5206
11456TIP3    H155783   4.899   1.450   4.661  0.8420  1.5231  1.1301
11456TIP3    H255784   4.815   1.475   4.538 -0.7928 -3.2491  1.0729
11457TIP3   OH255785   1.617   5.695  12.525  0.0821  0.3178 -0.5127
11457TIP3    H155786   1.643   5.786  12.512 -2.3599  1.2698  0.7130
11457TIP3    H255787   1.595   5.663  12.437 -1.4446  1.7408 -0.6894
11458TIP3   OH255788   6.302   3.879   5.979  0.4938 -0.2327  0.0970
11458TIP3    H155789   6.332   3.804   6.031 -0.3257 -1.5781 -1.2839
11458TIP3    H255790   6.375   3.941   5.982  0.8327 -0.6709  2.0182
11459TIP3   OH255791   0.105   1.017  15.213  0.2507 -0.3940  0.1796
11459TIP3    H155792   0.132   0.981  15.298  0.6191  0.3034  0.3674
11459TIP3    H255793   0.023   0.971  15.193 -0.8854  0.7497  1.8360
11460TIP3   OH255794   1.364   4.006   6.007  0.5556  0.1007  0.5546
11460TIP3    H155795   1.396   4.056   6.082  0.1769  3.0066 -1.0399
11460TIP3    H255796   1.269   4.019   6.009  0.5630  0.4174 -0.5301
11461TIP3   OH255797   5.867   3.332   2.450 -0.7865 -0.4246 -0.1372
11461TIP3    H155798   5.870   3.283   2.369 -0.8596  0.5428 -0.7436
11461TIP3    H255799   5.783   3.378   2.447 -0.6588 -0.1517  0.3439
11462TIP3   OH255800   6.703   5.665  11.151 -0.0059 -0.2179 -0.3229
11462TIP3    H155801   6.738   5.591  11.101 -0.0140 -0.3318 -0.1613
11462TIP3    H255802   6.639   5.705  11.092 -0.2609 -0.5548 -0.2784
11463TIP3   OH255803   3.619   1.824   4.524 -0.0845 -0.3926  0.4120
11463TIP3    H155804   3.583   1.802   4.438  0.1812 -0.6731  0.3715
11463TIP3    H255805   3.605   1.919   4.532 -2.3142 -0.7147  1.0865
11464TIP3   OH255806   4.472   1.283  12.407  0.0681  0.0877 -0.0776
11464TIP3    H155807   4.544   1.220  12.396  0.5535  0.5269  0.5350
11464TIP3    H255808   4.442   1.270  12.497 -1.8935 -1.4045 -0.8709
11465TIP3   OH255809   1.368   3.620   5.759  0.1641 -0.4471 -0.0688
11465TIP3    H155810   1.401   3.666   5.837  1.1919 -2.0337  0.4948
11465TIP3    H255811   1.273   3.622   5.769  0.1836  1.3490  0.0263
11466TIP3   OH255812   3.201   0.015  13.255  0.2776 -0.0237 -0.0839
11466TIP3    H155813   3.158  -0.008  13.338  0.5145  0.3975  0.1590
11466TIP3    H255814   3.217  -0.069  13.213  2.1668 -0.4370  1.3058
11467TIP3   OH255815   4.444   5.585   1.799  0.3439 -0.3321 -0.1576
11467TIP3    H155816   4.420   5.577   1.707 -0.0565 -1.1523  0.0097
11467TIP3    H255817   4.539   5.603   1.797  0.4554 -0.9291 -0.7117
11468TIP3   OH255818   5.727   0.726  14.988  0.1253 -0.2358 -0.0789
11468TIP3    H155819   5.773   0.650  15.022  0.7320 -0.1531 -0.6939
11468TIP3    H255820   5.780   0.801  15.015  1.1872 -0.2210 -2.0180
11469TIP3   OH255821   2.233   4.987  14.383 -0.0017 -0.2522 -0.4799
11469TIP3    H155822   2.221   4.893  14.401 -1.1163 -0.2422 -1.0539
11469TIP3    H255823   2.289   4.990  14.306 -0.7153 -0.4887 -1.0211
11470TIP3   OH255824   3.230   4.165  14.949  0.1928 -0.5457 -0.0234
11470TIP3    H155825   3.323   4.170  14.972  0.0108 -0.7472  0.7677
11470TIP3    H255826   3.188   4.125  15.025 -0.7295  0.6639  0.1386
11471TIP3   OH255827   1.158   5.549   5.927  0.3764  0.7326  0.2845
11471TIP3    H155828   1.104   5.559   6.005 -0.9551 -0.5290 -0.4352
11471TIP3    H255829   1.222   5.620   5.933 -0.3881  1.3278  1.9428
11472TIP3   OH255830   1.152   6.723  11.273 -0.2013  0.0139 -0.0363
11472TIP3    H155831   1.063   6.732  11.239  0.1975  0.9488 -0.8901
11472TIP3    H255832   1.159   6.790  11.341 -0.0191  0.2349 -0.2696
11473TIP3   OH255833   0.880   0.212  13.722  0.6333  0.4022 -0.2468
11473TIP3    H155834   0.946   0.249  13.663  2.4129 -1.1072  0.7033
11473TIP3    H255835   0.882   0.118  13.705  0.8757 -0.0177  1.8836
11474TIP3   OH255836   6.802   5.171   5.181 -0.3979 -0.3310  0.5245
11474TIP3    H155837   6.872   5.237   5.183  1.0093 -1.7522  0.3836
11474TIP3    H255838   6.742   5.198   5.250  0.0454  1.1723  0.3656
11475TIP3   OH255839   0.193   4.823  11.743 -0.0654  0.2427 -0.4003
11475TIP3    H155840   0.142   4.904  11.732  1.3232  1.1680 -0.3008
11475TIP3    H255841   0.283   4.853  11.758 -0.0689 -1.1672  3.7261
11476TIP3   OH255842   6.451   3.430  15.320 -0.0689  1.0724  0.4557
11476TIP3    H155843   6.367   3.396  15.289  0.2926 -0.2620  0.8750
11476TIP3    H255844   6.469   3.505  15.263 -0.1972 -0.3190 -1.5120
11477TIP3   OH255845   3.262   1.043   1.005 -0.5506  0.1372 -0.7701
11477TIP3    H155846   3.291   1.041   1.096 -0.1851  0.4571 -0.8772
11477TIP3    H255847   3.242   0.951   0.985 -0.6320  0.0652 -0.3701
11478TIP3   OH255848   6.769   1.089   1.800 -0.0318  0.9145  0.1719
11478TIP3    H155849   6.779   1.028   1.727  2.8682  1.6872 -0.2308
11478TIP3    H255850   6.677   1.112   1.800 -0.5583 -0.8513 -1.8019
11479TIP3   OH255851   0.787   4.749  14.687 -0.0268 -0.4947  0.7292
11479TIP3    H155852   0.853   4.718  14.750  1.8310 -2.3345 -1.8838
11479TIP3    H255853   0.731   4.673  14.672 -0.5835 -0.0163  0.3408
11480TIP3   OH255854   2.503   1.528  11.132  0.1158 -0.1225  0.5074
11480TIP3    H155855   2.549   1.578  11.199 -0.2960 -1.8953  2.2092
11480TIP3    H255856   2.572   1.497  11.073  1.0389 -1.6684  2.2888
11481TIP3   OH255857   0.469   5.086   6.568 -0.9990 -0.5219  0.0552
11481TIP3    H155858   0.443   4.999   6.538 -0.2745  0.1260 -2.7425
11481TIP3    H255859   0.564   5.082   6.576 -1.0636 -0.2966  1.1401
11482TIP3   OH255860   0.539   1.665   0.967  0.0923  0.0709 -0.4756
11482TIP3    H155861   0.633   1.678   0.957  0.5012 -1.1374  1.3067
11482TIP3    H255862   0.520   1.587   0.915  0.1403  0.1187 -0.5656
11483TIP3   OH255863   6.573   2.755   1.683 -0.2842  0.4760 -0.5532
11483TIP3    H155864   6.601   2.740   1.592  0.2109  0.6909 -0.4422
11483TIP3    H255865   6.651   2.791   1.725 -0.7506  1.1185 -0.2336
11484TIP3   OH255866   4.080   2.102  16.200  0.0275  0.5144  0.0888
11484TIP3    H155867   4.034   2.077  16.120 -1.0735  0.3377  0.7608
11484TIP3    H255868   4.028   2.065  16.271  0.9530  0.7203  0.9038
11485TIP3   OH255869   2.524   5.135  15.646  0.0876  0.4719  0.2776
11485TIP3    H155870   2.478   5.063  15.603  0.0309 -0.7698  2.2376
11485TIP3    H255871   2.616   5.112  15.639  0.0676  0.1441  0.9331
11486TIP3   OH255872   2.403   5.724  14.881 -0.7462 -0.1230 -0.5637
11486TIP3    H155873   2.480   5.767  14.918 -1.0028 -0.7015  0.7010
11486TIP3    H255874   2.415   5.729  14.787  0.1420  1.0513 -0.4026
11487TIP3   OH255875   0.968   2.673  14.259 -0.9015  0.4435  0.1687
11487TIP3    H155876   0.906   2.651  14.189  1.0655  0.3054 -1.6399
11487TIP3    H255877   0.950   2.765  14.278 -0.3947  0.9949 -1.7781
11488TIP3   OH255878   4.657   3.302  15.475 -0.1532  0.5050 -0.2355
11488TIP3    H155879   4.660   3.235  15.406  2.4281  0.9789 -0.6847
11488TIP3    H255880   4.733   3.357  15.458  0.1865  1.0666  2.6118
11489TIP3   OH255881   2.170   2.003  13.860  0.0415  0.9080  0.2105
11489TIP3    H155882   2.146   1.910  13.855  1.1700  0.6141 -0.0230
11489TIP3    H255883   2.254   2.003  13.905  0.2514  1.7783 -0.1667
11490TIP3   OH255884   6.630   5.933  13.030  0.1461  0.4723  0.2589
11490TIP3    H155885   6.712   5.982  13.037 -0.5209  2.0948 -2.2438
11490TIP3    H255886   6.563   5.995  13.058 -0.6317  0.7947 -2.1441
11491TIP3   OH255887   6.140   6.813   4.628 -0.0842  0.8101 -0.4044
11491TIP3    H155888   6.184   6.885   4.582  0.0521  0.5597 -0.6654
11491TIP3    H255889   6.211   6.757   4.659 -0.2147  0.4938 -0.6804
11492TIP3   OH255890   6.471   0.969   0.147 -0.0108  0.4999 -0.5643
11492TIP3    H155891   6.567   0.975   0.148  0.2294 -1.9576 -1.4371
11492TIP3    H255892   6.448   0.945   0.236  0.4316 -1.0387 -0.8356
11493TIP3   OH255893   2.194   0.745  13.700 -0.4925  0.1226 -0.3677
11493TIP3    H155894   2.122   0.803  13.674 -0.8926  0.2713  0.9876
11493TIP3    H255895   2.153   0.682  13.759  0.2198 -0.6824 -0.7210
11494TIP3   OH255896   1.392   6.731   4.650  0.7838 -0.1605  0.6493
11494TIP3    H155897   1.339   6.803   4.616  0.6346 -0.9665 -0.9540
11494TIP3    H255898   1.476   6.771   4.672  0.8249  0.4607 -0.5445
11495TIP3   OH255899   6.049   0.591  15.664  0.1577  0.3270 -0.4615
11495TIP3    H155900   6.116   0.651  15.694 -0.0469  0.5309 -0.4102
11495TIP3    H255901   6.067   0.509  15.709 -0.9060  0.9752  1.2375
11496TIP3   OH255902   4.174   3.588   1.769  0.0764 -0.4134 -0.0052
11496TIP3    H155903   4.111   3.649   1.730 -0.3990 -0.4717  0.6409
11496TIP3    H255904   4.169   3.606   1.863  0.6503 -0.7777  0.0965
11497TIP3   OH255905   3.839   5.939   1.281 -0.4752  0.2100 -0.3266
11497TIP3    H155906   3.930   5.967   1.285 -1.3961  3.6567  1.0760
11497TIP3    H255907   3.830   5.875   1.351  0.7935  0.1225 -0.2257
11498TIP3   OH255908   5.734   6.548   5.601 -0.0000  0.4093  0.2934
11498TIP3    H155909   5.713   6.462   5.565 -0.9461  0.5226  0.5654
11498TIP3    H255910   5.829   6.545   5.615  0.2652  0.0540 -1.3619
11499TIP3   OH255911   0.215   1.489  13.264 -0.3976 -0.4456  0.0199
11499TIP3    H155912   0.161   1.568  13.267  1.0337  0.7208 -2.0316
11499TIP3    H255913   0.161   1.424  13.219 -1.3018 -0.3824  1.0119
11500TIP3   OH255914   3.087   5.548  10.579 -0.0816  0.7337 -0.2466
11500TIP3    H155915   3.106   5.601  10.502 -1.7037  1.1435 -0.4036
11500TIP3    H255916   3.025   5.601  10.630 -0.4381 -0.3024  0.4341
11501TIP3   OH255917   1.849   4.165  16.188 -0.5357 -0.1576  0.3623
11501TIP3    H155918   1.911   4.173  16.261  1.7603 -1.2707 -1.3394
11501TIP3    H255919   1.848   4.252  16.147  0.5056 -0.3238 -0.0336
11502TIP3   OH255920   4.744   0.540  14.781  0.3207 -0.1902  0.1791
11502TIP3    H155921   4.806   0.591  14.833  0.9204 -1.2890  0.5706
11502TIP3    H255922   4.661   0.547  14.827  0.4281  0.3173  0.2973
11503TIP3   OH255923   1.296   3.350   3.989  0.3231  0.3081  0.5229
11503TIP3    H155924   1.305   3.321   3.899  0.9404  0.1094  0.6432
11503TIP3    H255925   1.352   3.290   4.040 -1.3620 -0.6963  1.2738
11504TIP3   OH255926   4.279   6.462   4.439 -0.8029  0.5454  0.0272
11504TIP3    H155927   4.268   6.462   4.534 -1.5826  0.0496 -0.0529
11504TIP3    H255928   4.196   6.429   4.405 -0.2399 -0.1086 -0.7827
11505TIP3   OH255929   4.309   1.660  14.263 -0.2381  0.0669 -0.1685
11505TIP3    H155930   4.283   1.674  14.172 -0.0207  0.3437 -0.1878
11505TIP3    H255931   4.280   1.739  14.308 -1.2582 -0.5054  0.2005
11506TIP3   OH255932   3.486   4.013   2.883  0.4187  0.3990  0.2326
11506TIP3    H155933   3.498   4.081   2.950  1.8276 -0.3588  0.7990
11506TIP3    H255934   3.535   4.046   2.808  0.4186  0.3865  0.2270
11507TIP3   OH255935   5.466   3.278  12.511 -0.6305  0.1912 -0.6149
11507TIP3    H155936   5.386   3.305  12.557  0.2364  0.1057  1.0180
11507TIP3    H255937   5.436   3.214  12.447 -1.9706  0.7124 -0.5440
11508TIP3   OH255938   2.708   0.182  11.956 -0.1688 -0.3205 -0.7265
11508TIP3    H155939   2.770   0.118  11.920  2.0970  0.4446  1.5142
11508TIP3    H255940   2.683   0.146  12.041  0.0830  1.0733 -0.0286
11509TIP3   OH255941   1.775   0.555  16.135 -0.2755  0.2676 -0.2174
11509TIP3    H155942   1.712   0.621  16.107  0.9086  2.1926  1.3924
11509TIP3    H255943   1.854   0.575  16.085 -0.2331 -0.7237 -0.5809
11510TIP3   OH255944   6.655   5.195   2.847 -0.6235  0.0694 -0.3592
11510TIP3    H155945   6.661   5.290   2.837 -0.6171  0.0782 -0.2663
11510TIP3    H255946   6.599   5.167   2.774  1.3444 -0.1288 -1.8675
11511TIP3   OH255947   1.848   4.800  15.071  0.3786 -0.1826 -0.5858
11511TIP3    H155948   1.928   4.754  15.047  0.7053  0.2092 -0.2469
11511TIP3    H255949   1.819   4.759  15.152  0.9699  0.5716  0.0121
11512TIP3   OH255950   1.658   6.761   6.468 -0.0396 -0.0053  0.0704
11512TIP3    H155951   1.724   6.696   6.494  0.1686  0.3261  0.3812
11512TIP3    H255952   1.625   6.729   6.384  0.5726 -0.1379 -0.1240
11513TIP3   OH255953   1.579   3.500   1.496  0.3459  0.0500  0.2858
11513TIP3    H155954   1.632   3.572   1.461 -1.3112  0.2811 -1.9268
11513TIP3    H255955   1.635   3.423   1.486  1.4504  0.7220  0.9996
11514TIP3   OH255956   1.013   3.418   4.668  0.3055 -0.2417  0.4067
11514TIP3    H155957   1.022   3.323   4.661 -1.9170 -0.4324 -0.8586
11514TIP3    H255958   1.064   3.453   4.595 -1.7005 -0.7620 -1.3694
11515TIP3   OH255959   1.897   1.133  17.009 -0.4627  0.0903  0.8469
11515TIP3    H155960   1.963   1.096  17.068  0.2803  0.3122  0.1796
11515TIP3    H255961   1.816   1.134  17.060  0.2853  0.8156  2.0605
11516TIP3   OH255962   6.084   2.869  11.620 -0.2338  0.5424  0.2061
11516TIP3    H155963   6.048   2.877  11.532 -1.7045  0.0566  0.7311
11516TIP3    H255964   6.172   2.833  11.607 -0.7750 -0.4218 -1.0083
11517TIP3   OH255965   3.638   6.224   1.887 -0.4048  0.0906  0.1573
11517TIP3    H155966   3.669   6.280   1.958 -0.0358  0.1221 -0.0216
11517TIP3    H255967   3.619   6.285   1.816 -0.0031 -0.0058 -0.0374
11518TIP3   OH255968   5.366   6.445   0.442 -0.0004 -0.0797  0.2779
11518TIP3    H155969   5.394   6.502   0.371  0.4276  1.6167  1.7276
11518TIP3    H255970   5.445   6.397   0.467  0.1341  0.1943  0.3799
11519TIP3   OH255971   3.575   0.633  14.415  0.0385  0.6103  0.5990
11519TIP3    H155972   3.529   0.613  14.333 -0.7523 -0.6671  1.3234
11519TIP3    H255973   3.510   0.614  14.484  0.3318  2.6242  1.5053
11520TIP3   OH255974   0.833   6.805   0.710 -0.4322  0.1653  0.0766
11520TIP3    H155975   0.823   6.875   0.774 -1.1742 -0.4556  0.6604
11520TIP3    H255976   0.871   6.732   0.760  0.3433  0.1396 -0.5231
11521TIP3   OH255977   6.206   5.185   5.537  0.3406  0.3564  0.3984
11521TIP3    H155978   6.288   5.135   5.530  0.6614  0.8968  0.2766
11521TIP3    H255979   6.218   5.260   5.479 -0.7509 -0.2232 -0.6074
11522TIP3   OH255980   1.995   5.141   6.330 -0.2807  0.6331  0.9543
11522TIP3    H155981   1.903   5.145   6.357 -0.3097 -0.8324  1.1546
11522TIP3    H255982   2.006   5.054   6.294  1.2222  0.4880  1.6613
11523TIP3   OH255983   3.154   0.323   4.563 -0.5989  0.3057  0.0492
11523TIP3    H155984   3.131   0.414   4.583  2.8115  0.8853  2.1507
11523TIP3    H255985   3.149   0.278   4.648  0.2961 -0.8263 -0.4756
11524TIP3   OH255986   5.585   2.167   3.583  0.0620 -0.0015 -0.0303
11524TIP3    H155987   5.608   2.091   3.636  0.1259  0.3072  0.3930
11524TIP3    H255988   5.668   2.194   3.544  0.6882  1.6494  2.1993
11525TIP3   OH255989   0.907   1.048   4.036  0.2674 -0.1648  0.2939
11525TIP3    H155990   0.879   1.129   3.992 -2.6969 -1.4689 -0.4626
11525TIP3    H255991   0.909   1.072   4.129 -0.6055  0.7834  0.0934
11526TIP3   OH255992   4.587   0.784   0.960 -0.5261  0.0358  1.2263
11526TIP3    H155993   4.675   0.818   0.974  0.2698 -1.1160 -0.5520
11526TIP3    H255994   4.542   0.853   0.911  0.8694 -0.9947 -1.7909
11527TIP3   OH255995   3.217   1.145  12.816 -0.2016  1.0514  0.0578
11527TIP3    H155996   3.126   1.118  12.828  0.7906 -1.8534  2.1712
11527TIP3    H255997   3.234   1.205  12.889  0.0908  0.0429  0.8285
11528TIP3   OH255998   5.485   1.553   5.721  0.2295  0.5809 -0.1941
11528TIP3    H155999   5.505   1.591   5.807 -0.1207 -0.7950  0.5311
11528TIP3    H256000   5.415   1.490   5.739 -0.4513  0.8905 -1.6536
11529TIP3   OH256001   2.801   2.416  13.893  0.1757  0.2545 -0.3751
11529TIP3    H156002   2.810   2.406  13.988 -0.5067  0.9828 -0.2196
11529TIP3    H256003   2.872   2.364  13.856 -0.1085 -0.7946  0.5071
11530TIP3   OH256004   4.681   1.959   3.091 -0.0363 -0.2585 -0.3666
11530TIP3    H156005   4.747   1.999   3.034  0.0312  1.5922  0.9315
11530TIP3    H256006   4.677   1.868   3.061 -0.6070  0.7335 -3.8537
11531TIP3   OH256007   0.505   4.398   4.550 -0.0220 -0.2308  0.1330
11531TIP3    H156008   0.501   4.394   4.645  1.0331  0.1912  0.2058
11531TIP3    H256009   0.592   4.434   4.531 -0.8716  1.3977 -0.9424
11532TIP3   OH256010   0.958   4.684  13.877  0.4027 -0.0518  0.2188
11532TIP3    H156011   0.869   4.687  13.842 -0.5581  1.0245  2.5397
11532TIP3    H256012   0.996   4.605  13.840 -1.0554  0.1432 -1.8440
11533TIP3   OH256013   4.396   4.618   2.429 -0.6362 -0.2370  0.1851
11533TIP3    H156014   4.467   4.677   2.454 -0.8532  0.1845 -0.1901
11533TIP3    H256015   4.336   4.619   2.503  0.9152 -2.5022  1.6215
11534TIP3   OH256016   1.667   6.378   4.728  0.7441  0.1725  0.0192
11534TIP3    H156017   1.710   6.381   4.642  3.0960 -2.1643  0.9828
11534TIP3    H256018   1.719   6.316   4.778  0.8345  3.0519  3.9163
11535TIP3   OH256019   1.546   4.056  15.741  0.5141 -0.0057 -0.4512
11535TIP3    H156020   1.479   4.042  15.674 -1.4515 -0.7226  1.5268
11535TIP3    H256021   1.550   4.151  15.751 -1.4690  0.0549  0.4564
11536TIP3   OH256022   0.639   5.117   5.855 -0.7093 -0.3809 -0.3883
11536TIP3    H156023   0.662   5.093   5.945 -0.7774 -2.8804 -0.9788
11536TIP3    H256024   0.719   5.100   5.805 -0.7642  0.7129 -0.8783
11537TIP3   OH256025   3.102   3.007  15.453 -0.1188  0.3299 -0.1868
11537TIP3    H156026   3.076   2.915  15.463  1.2164  0.0079  0.5630
11537TIP3    H256027   3.020   3.055  15.452 -0.7889 -0.7145  1.2627
11538TIP3   OH256028   5.768   4.649  13.530  0.3348  0.4953 -0.0477
11538TIP3    H156029   5.677   4.652  13.560  0.2279  0.1035 -0.3234
11538TIP3    H256030   5.790   4.555  13.527  0.2098  0.4835 -1.5488
11539TIP3   OH256031   2.942   2.320   3.204  0.2982 -0.1765  0.8132
11539TIP3    H156032   2.891   2.353   3.278  2.8665 -0.6718  2.9665
11539TIP3    H256033   2.987   2.397   3.169 -2.4393  0.4391 -1.7080
11540TIP3   OH256034   1.706   2.650   2.817  0.1121 -0.0026 -0.1342
11540TIP3    H156035   1.646   2.581   2.787  0.1566  0.8876 -2.4407
11540TIP3    H256036   1.763   2.666   2.742  0.9191  1.6935  0.7930
11541TIP3   OH256037   2.668   2.733  15.732 -0.2045 -0.5041  0.0650
11541TIP3    H156038   2.684   2.815  15.778 -1.7575  0.2308 -0.6278
11541TIP3    H256039   2.581   2.705  15.761 -1.9769  0.7802 -3.3240
11542TIP3   OH256040   4.753   1.463  13.311  0.3581  0.0170 -0.0281
11542TIP3    H156041   4.726   1.380  13.271  1.0965 -0.6878  0.8954
11542TIP3    H256042   4.792   1.512  13.238 -0.2263 -0.3668 -0.6201
11543TIP3   OH256043   2.016   4.881  16.317 -0.2327  0.1785 -0.3833
11543TIP3    H156044   2.030   4.976  16.319 -1.5230  0.4167 -1.4085
11543TIP3    H256045   2.039   4.855  16.227 -0.9958 -0.2781 -0.4555
11544TIP3   OH256046   5.601   0.710   2.902 -0.5976  0.4433 -0.0068
11544TIP3    H156047   5.633   0.757   2.825 -1.0883 -0.6080 -0.8793
11544TIP3    H256048   5.659   0.739   2.973  2.0872 -1.0378 -1.4299
11545TIP3   OH256049   0.289   1.537   3.615  0.6459  0.6719 -0.0920
11545TIP3    H156050   0.195   1.524   3.604  0.7111  0.2317 -0.1513
11545TIP3    H256051   0.329   1.461   3.572  0.9686 -0.2459  1.7277
11546TIP3   OH256052   0.147   2.995  13.658 -0.1422 -0.3994 -0.5469
11546TIP3    H156053   0.142   3.008  13.563 -0.6692 -3.0766 -0.9454
11546TIP3    H256054   0.071   2.940  13.679 -0.2546  0.4613  1.5173
11547TIP3   OH256055   6.741   3.271   2.523  0.2573 -0.1664  0.5496
11547TIP3    H156056   6.785   3.284   2.439 -1.4632  1.0507 -0.2296
11547TIP3    H256057   6.796   3.316   2.587  2.5574 -2.6148  0.4807
11548TIP3   OH256058   6.150   0.699   1.691 -0.2370 -0.0216  0.7976
11548TIP3    H156059   6.204   0.750   1.751 -0.4312  1.9919 -0.6247
11548TIP3    H256060   6.097   0.644   1.747  1.0092  0.2934  2.3612
11549TIP3   OH256061   4.998   0.228  14.643  1.0418 -0.1472  0.3409
11549TIP3    H156062   5.050   0.148  14.635 -0.9956 -1.4022 -2.0820
11549TIP3    H256063   4.909   0.200  14.622 -0.0525  2.4767  1.1104
11550TIP3   OH256064   6.557   6.506   6.580 -0.3631 -0.2897 -0.0248
11550TIP3    H156065   6.627   6.529   6.641  0.2294  1.5082 -1.3068
11550TIP3    H256066   6.480   6.552   6.613 -1.3444 -3.0802  1.9810
11551TIP3   OH256067   4.088   1.251   2.213  0.2294  0.3627 -0.1066
11551TIP3    H156068   4.045   1.190   2.153  0.3245  0.6302 -0.4533
11551TIP3    H256069   4.018   1.283   2.270  0.2406 -0.3251  0.3048
11552TIP3   OH256070   2.520   1.031   4.697 -0.2728 -0.0983  0.1387
11552TIP3    H156071   2.588   0.963   4.698  1.0090  1.1217 -0.1900
11552TIP3    H256072   2.529   1.072   4.611 -2.1052 -0.5137 -0.2999
11553TIP3   OH256073   2.328   5.475   1.493 -0.6489  0.2646 -0.3325
11553TIP3    H156074   2.300   5.469   1.584 -1.4522 -1.0455 -0.6436
11553TIP3    H256075   2.384   5.553   1.490  1.6821 -1.1749  1.9004
11554TIP3   OH256076   3.721   1.356   6.525 -0.5653  0.3259 -0.0876
11554TIP3    H156077   3.704   1.263   6.514  0.9083  0.2833 -2.7667
11554TIP3    H256078   3.810   1.369   6.493 -0.5131  2.5849  0.7721
11555TIP3   OH256079   6.776   0.612   5.419 -0.3429  0.2085  0.1732
11555TIP3    H156080   6.866   0.585   5.438 -0.5493 -0.4705  0.1933
11555TIP3    H256081   6.727   0.530   5.410 -1.2366  0.5762  1.4730
11556TIP3   OH256082   2.357   6.292  16.602 -0.3095  0.1001 -0.1221
11556TIP3    H156083   2.309   6.356  16.655  0.3543  0.5302 -0.0329
11556TIP3    H256084   2.413   6.345  16.545 -0.3867 -0.3801 -0.6550
11557TIP3   OH256085   5.466   3.466  16.721  0.2426  0.0710  0.0643
11557TIP3    H156086   5.518   3.441  16.645  0.3129  1.8411 -0.4987
11557TIP3    H256087   5.526   3.460  16.795  0.0501 -2.1340  0.1170
11558TIP3   OH256088   4.910   3.062  14.928 -0.1659 -0.5424 -0.0318
11558TIP3    H156089   4.997   3.051  14.890 -0.7061 -1.7513 -0.9664
11558TIP3    H256090   4.850   3.044  14.857 -1.2068  0.5034  0.5431
11559TIP3   OH256091   0.642   3.600  14.403  0.0450  0.1363  0.1069
11559TIP3    H156092   0.653   3.560  14.316 -0.6649  0.7655 -0.2828
11559TIP3    H256093   0.705   3.553  14.459  1.6248  0.7507 -1.0677
11560TIP3   OH256094   2.127   4.681  12.723 -0.1471  0.0686  0.2643
11560TIP3    H156095   2.065   4.611  12.700 -0.0640  0.4075 -1.1189
11560TIP3    H256096   2.112   4.748  12.656 -0.1231  1.3229  1.4819
11561TIP3   OH256097   2.325   6.311  13.118  0.8874  0.1169 -0.2163
11561TIP3    H156098   2.287   6.225  13.137  0.4377  0.2883 -0.3178
11561TIP3    H256099   2.366   6.338  13.201 -1.3675  1.0134  0.6935
11562TIP3   OH256100   4.312   2.089  15.756  0.0965  0.1548  0.4294
11562TIP3    H156101   4.375   2.045  15.813 -1.3073 -0.3246  1.6753
11562TIP3    H256102   4.230   2.043  15.771 -0.5703  0.7548 -1.1655
11563TIP3   OH256103   6.574   4.120   1.977 -0.2506  0.0858  0.0207
11563TIP3    H156104   6.667   4.119   1.954 -0.4470  3.2375 -1.4512
11563TIP3    H256105   6.545   4.030   1.962  2.2357 -0.6500 -0.8993
11564TIP3   OH256106   3.142   4.327   4.766 -0.0578 -0.0393 -0.0523
11564TIP3    H156107   3.056   4.367   4.777 -0.3011 -0.7604  0.7479
11564TIP3    H256108   3.174   4.314   4.855  1.6847  1.8890 -0.3234
11565TIP3   OH256109   2.968   1.036  16.782 -0.2562  0.6023 -0.2285
11565TIP3    H156110   2.915   0.961  16.753 -0.2036  0.3944  0.2048
11565TIP3    H256111   2.979   1.023  16.876 -0.1415  1.0941 -0.1717
11566TIP3   OH256112   1.652   2.911  16.077 -0.0894 -0.2107 -0.0266
11566TIP3    H156113   1.676   2.999  16.049  1.2231 -0.4381  0.3375
11566TIP3    H256114   1.594   2.879  16.008 -0.0718  0.7013 -0.4762
11567TIP3   OH256115   5.346   2.760  12.392  0.5090  0.2737  0.3805
11567TIP3    H156116   5.336   2.719  12.478  0.3786  1.2624  0.8506
11567TIP3    H256117   5.276   2.722  12.339 -0.3300  0.7175  1.1406
11568TIP3   OH256118   6.036   0.924   5.047 -0.1558  0.3321  0.6439
11568TIP3    H156119   6.092   0.993   5.012 -0.7030  0.1913 -0.5787
11568TIP3    H256120   6.031   0.859   4.976 -0.3248 -0.5643  1.4559
11569TIP3   OH256121   1.158   6.247  16.298  0.0557  1.0779 -0.1718
11569TIP3    H156122   1.123   6.192  16.368  0.2228  0.9270 -0.2086
11569TIP3    H256123   1.181   6.329  16.342  1.0287  0.6562  0.1200
11570TIP3   OH256124   5.268   5.681  12.138 -0.1483  0.5556 -0.1147
11570TIP3    H156125   5.362   5.686  12.154 -0.2630  1.2441  0.4056
11570TIP3    H256126   5.258   5.704  12.046  0.0790  1.9333  0.1876
11571TIP3   OH256127   4.922   0.588   4.048  0.3118  0.4162 -0.0710
11571TIP3    H156128   5.014   0.595   4.022  0.4221  0.7072  0.3834
11571TIP3    H256129   4.883   0.671   4.020 -0.3585 -0.5807 -2.3185
11572TIP3   OH256130   3.166   1.907   0.067  0.5602  0.1446  0.0073
11572TIP3    H156131   3.079   1.943   0.050  0.8031  0.0712 -1.5380
11572TIP3    H256132   3.159   1.868   0.154 -0.9548  0.1113 -0.1035
11573TIP3   OH256133   0.641   0.028  12.930 -0.4112  0.1909  0.2738
11573TIP3    H156134   0.675   0.070  13.009 -2.1266 -0.1681  1.2366
11573TIP3    H256135   0.719  -0.007  12.887  0.6944  1.4873  1.1343
11574TIP3   OH256136   0.096   3.116  16.351 -0.7135 -0.0870 -0.3572
11574TIP3    H156137   0.077   3.064  16.430 -1.1522  0.6017  0.0019
11574TIP3    H256138   0.023   3.098  16.293 -0.1892 -0.9076 -0.7789
11575TIP3   OH256139   5.190   0.308  12.816 -0.2175 -0.1719  0.1931
11575TIP3    H156140   5.257   0.244  12.840  1.7694  0.7887 -2.3265
11575TIP3    H256141   5.190   0.371  12.888  1.8949 -0.0199  0.1179
11576TIP3   OH256142   5.063   1.846  12.666  0.1729 -0.6868  0.0003
11576TIP3    H156143   5.119   1.805  12.599  0.4476 -0.8939  0.3535
11576TIP3    H256144   5.061   1.938  12.642 -1.1162 -1.0076 -1.2889
11577TIP3   OH256145   5.387   4.967  12.442 -0.1099  0.6171 -0.1085
11577TIP3    H156146   5.361   4.983  12.532 -3.1308 -0.0602 -0.7402
11577TIP3    H256147   5.463   4.910  12.448 -0.4853  0.2636  2.0168
11578TIP3   OH256148   3.127   4.548  17.033  1.2185 -0.4837 -0.1523
11578TIP3    H156149   3.201   4.582  17.082  2.4409 -0.6089 -1.8230
11578TIP3    H256150   3.162   4.474  16.983  0.4777  0.5276 -2.3276
11579TIP3   OH256151   5.283   1.061   2.188  0.1706  0.4521  0.0455
11579TIP3    H156152   5.246   1.143   2.220  2.1325  1.0462  0.9139
11579TIP3    H256153   5.331   1.025   2.262  1.2855 -0.2953 -1.0037
11580TIP3   OH256154   6.194   3.722   5.348 -0.1414 -1.0328 -0.2384
11580TIP3    H156155   6.099   3.711   5.344 -0.3936  1.1144 -1.3929
11580TIP3    H256156   6.222   3.722   5.256  0.3981  2.2194 -0.1856
11581TIP3   OH256157   3.252   2.618   1.208  0.3421  0.0350  0.0545
11581TIP3    H156158   3.334   2.644   1.249 -0.3294 -0.1732  1.6210
11581TIP3    H256159   3.202   2.576   1.279 -1.3929  0.7770 -0.6710
11582TIP3   OH256160   1.331   1.219   1.893  0.0473  0.3626  0.4989
11582TIP3    H156161   1.322   1.245   1.985  2.3102  0.8862  0.6483
11582TIP3    H256162   1.281   1.285   1.845 -0.1113  0.8475  1.3040
11583TIP3   OH256163   6.190   6.040  13.030  0.2786  0.5086  0.6258
11583TIP3    H156164   6.120   6.010  13.089  0.6311 -0.8307  0.3850
11583TIP3    H256165   6.143   6.070  12.952 -0.1713  2.0033  1.4164
11584TIP3   OH256166   2.206   3.701   5.381  0.0044 -0.3526 -0.1304
11584TIP3    H156167   2.145   3.709   5.309  0.1550  0.5249 -0.1688
11584TIP3    H256168   2.182   3.619   5.425 -1.0283 -0.1359 -0.2869
11585TIP3   OH256169   5.547   3.806  12.052  0.0772 -0.4447  0.0679
11585TIP3    H156170   5.594   3.732  12.015  1.1574  0.2406  0.0379
11585TIP3    H256171   5.489   3.835  11.981  1.6865  0.4732 -0.9279
11586TIP3   OH256172   3.415   4.724  11.391 -0.3762 -0.1683 -0.1286
11586TIP3    H156173   3.361   4.708  11.468 -0.3098 -2.1386 -0.4543
11586TIP3    H256174   3.466   4.644  11.379  0.5913  0.5902 -1.4560
11587TIP3   OH256175   2.836   0.185  15.534 -0.1604 -0.2160  0.0241
11587TIP3    H156176   2.895   0.253  15.500 -1.9493  0.8344 -1.1446
11587TIP3    H256177   2.865   0.104  15.492  0.2681  0.3329 -0.7446
11588TIP3   OH256178   2.169   1.588   3.878 -0.4197 -0.1800 -0.9464
11588TIP3    H156179   2.220   1.545   3.947 -1.2718 -0.9155 -0.7530
11588TIP3    H256180   2.218   1.572   3.798 -0.6590 -1.4412 -0.8570
11589TIP3   OH256181   3.054   3.558  13.969 -0.2879 -0.2836  0.2498
11589TIP3    H156182   3.056   3.468  13.936 -0.0515  0.0990 -0.8226
11589TIP3    H256183   2.964   3.570  13.999 -0.5334 -0.6208 -0.3376
11590TIP3   OH256184   2.005   4.662   5.180  0.6134 -0.4563  0.0637
11590TIP3    H156185   1.985   4.659   5.274 -0.9912 -0.3460 -0.2307
11590TIP3    H256186   2.055   4.582   5.163  0.1241 -0.9468  0.8593
11591TIP3   OH256187   1.772   3.145  15.989  0.5068  0.1617 -0.5584
11591TIP3    H156188   1.783   3.090  15.911 -2.5656  0.5037 -1.3603
11591TIP3    H256189   1.801   3.232  15.961  2.2269 -0.3015 -0.3265
11592TIP3   OH256190   6.746   1.243   1.206  0.0139 -0.7871 -0.1393
11592TIP3    H156191   6.834   1.258   1.241 -0.4776  1.7363  0.2208
11592TIP3    H256192   6.705   1.183   1.269  1.6785 -2.6776 -0.7483
11593TIP3   OH256193   3.008   3.579  13.428  0.4427 -0.4504  0.4549
11593TIP3    H156194   3.086   3.547  13.473 -0.3960 -1.8229  1.0169
11593TIP3    H256195   2.994   3.517  13.356  0.3385  0.2590 -0.1390
11594TIP3   OH256196   5.149   3.370   2.133 -0.1882  0.2387  0.6296
11594TIP3    H156197   5.192   3.354   2.049 -0.2034  0.2668  0.6168
11594TIP3    H256198   5.170   3.461   2.154  0.9514 -0.1469  1.2993
11595TIP3   OH256199   0.521   4.866  13.427 -0.3882  0.2457 -0.0630
11595TIP3    H156200   0.591   4.927  13.405 -0.5902 -0.3221 -2.6913
11595TIP3    H256201   0.451   4.920  13.463  0.8395  0.9891  1.3147
11596TIP3   OH256202   1.006   3.366   3.482  0.2613 -0.4761  0.5038
11596TIP3    H156203   0.963   3.320   3.553 -0.5132 -0.4972  0.0322
11596TIP3    H256204   0.943   3.365   3.410  1.0572 -0.5381 -0.2187
11597TIP3   OH256205   1.963   5.617   3.337  0.5617  0.4489 -0.2235
11597TIP3    H156206   2.041   5.629   3.391  0.3201  0.9643  0.0142
11597TIP3    H256207   1.923   5.703   3.334  1.1790  0.7150 -2.1877
11598TIP3   OH256208   0.666   1.247  15.619 -0.9071 -0.6377  0.3703
11598TIP3    H156209   0.590   1.292  15.656 -2.2602 -0.9519 -1.8683
11598TIP3    H256210   0.630   1.191  15.551  1.2778 -1.3820 -0.2534
11599TIP3   OH256211   0.622   5.346  13.680 -0.7287  0.2533  0.1239
11599TIP3    H156212   0.615   5.357  13.775  1.8217 -1.2630  0.6131
11599TIP3    H256213   0.700   5.396  13.656 -0.5915 -0.4200 -0.9185
11600TIP3   OH256214   4.021   6.134   0.933 -0.4435 -0.0294 -0.0005
11600TIP3    H156215   4.035   6.043   0.908  0.3567  0.6087 -2.1738
11600TIP3    H256216   4.091   6.154   0.994 -0.7618 -0.9094  0.6713
11601TIP3   OH256217   2.477   5.450  11.416 -0.5767 -0.9092  0.2464
11601TIP3    H156218   2.442   5.362  11.403 -3.4443  0.0498  0.7959
11601TIP3    H256219   2.462   5.494  11.333 -3.5977  0.3445  1.2962
11602TIP3   OH256220   3.415   0.223  16.699 -0.6627 -0.1812 -0.4959
11602TIP3    H156221   3.409   0.212  16.604 -0.0611 -0.4346 -0.5091
11602TIP3    H256222   3.363   0.151  16.735 -0.8996 -0.0790 -0.6292
11603TIP3   OH256223   4.598   3.220  14.055  0.2086  0.0867  0.4250
11603TIP3    H156224   4.627   3.205  14.145 -0.0435 -1.1049  0.3287
11603TIP3    H256225   4.678   3.218  14.003  0.4750  1.8587  0.7329
11604TIP3   OH256226   5.004   2.994  11.632  0.2136 -0.3834  0.0846
11604TIP3    H156227   4.988   3.051  11.707  1.2602 -0.7753  0.6201
11604TIP3    H256228   5.078   3.035  11.587  0.1460 -0.6296 -0.2570
11605TIP3   OH256229   0.957   6.774  13.583 -0.7663  0.3594 -0.1749
11605TIP3    H156230   0.930   6.744  13.670  1.1591  1.8077  1.0047
11605TIP3    H256231   0.973   6.693  13.534 -0.1114 -0.5369  1.4253
11606TIP3   OH256232   4.540   5.761  13.840 -0.0990  0.1165 -0.1474
11606TIP3    H156233   4.580   5.681  13.873  0.6803 -0.2505 -1.8904
11606TIP3    H256234   4.467   5.731  13.786 -0.0698  0.5994 -0.4592
11607TIP3   OH256235   3.611   3.497  10.519  0.7691  0.5648 -0.4434
11607TIP3    H156236   3.660   3.416  10.533  0.3816  0.0501 -1.8818
11607TIP3    H256237   3.523   3.477  10.552  1.4173  1.4912  2.1468
11608TIP3   OH256238   3.629   6.396   0.389 -0.4238 -0.1362 -0.5547
11608TIP3    H156239   3.679   6.336   0.444  0.5524  0.0409 -1.2261
11608TIP3    H256240   3.689   6.422   0.320 -0.7161  1.8218 -0.1428
11609TIP3   OH256241   1.287   4.777   2.537 -0.2230  0.1168 -0.0375
11609TIP3    H156242   1.304   4.777   2.632 -0.2779 -0.2637 -0.0273
11609TIP3    H256243   1.328   4.697   2.506 -1.3369 -0.4239 -0.1361
11610TIP3   OH256244   4.529   3.856   6.124  0.2855 -0.2415 -0.1737
11610TIP3    H156245   4.504   3.799   6.051 -0.5693  1.2195 -1.0734
11610TIP3    H256246   4.463   3.839   6.191  0.0286 -0.3015 -0.4385
11611TIP3   OH256247   4.748   0.796  17.002  0.7026 -0.4992 -0.3974
11611TIP3    H156248   4.694   0.773  17.077 -1.8267 -1.6217 -2.3876
11611TIP3    H256249   4.724   0.887  16.982  1.1179 -0.3155 -0.0794
11612TIP3   OH256250   0.964   0.719  11.514 -0.1881  0.1516  0.1383
11612TIP3    H156251   0.898   0.649  11.514  0.3130 -0.3430  0.5887
11612TIP3    H256252   0.934   0.781  11.448 -0.0643 -1.0567 -1.1104
11613TIP3   OH256253   5.022   1.311   5.410  0.6424 -0.2971  0.1618
11613TIP3    H156254   5.031   1.285   5.318  1.7010 -1.9076  0.6841
11613TIP3    H256255   4.992   1.232   5.455  0.7419  0.2952  1.3099
11614TIP3   OH256256   2.232   5.218   4.230  0.2917 -0.2185  0.3583
11614TIP3    H156257   2.276   5.141   4.266  0.6196  1.1475  3.1423
11614TIP3    H256258   2.146   5.218   4.273  0.1318  0.7001  0.0500
11615TIP3   OH256259   4.283   3.343   1.095 -0.4702 -0.1833  0.6679
11615TIP3    H156260   4.288   3.400   1.171 -2.1479  2.7896 -1.2287
11615TIP3    H256261   4.189   3.324   1.086 -0.4965  0.5929 -1.2675
11616TIP3   OH256262   1.405   2.323  16.036 -0.6612  0.1138 -1.0194
11616TIP3    H156263   1.438   2.372  15.961  1.0872  0.7907  0.1239
11616TIP3    H256264   1.403   2.387  16.107  0.2470 -1.0780  0.1391
11617TIP3   OH256265   0.633   3.027  15.602  0.0437 -0.0938  0.2547
11617TIP3    H156266   0.542   3.039  15.629 -0.2726 -4.0525  1.6082
11617TIP3    H256267   0.629   3.024  15.507 -0.8346  1.8904  0.1817
11618TIP3   OH256268   2.089   6.759   5.072 -0.2278 -0.4377  0.5673
11618TIP3    H156269   2.163   6.813   5.099 -2.7048  2.2608  2.5777
11618TIP3    H256270   2.090   6.686   5.134  1.0304 -0.7502  0.2037
11619TIP3   OH256271   6.544   0.817  11.728  0.1584 -0.0111 -0.2294
11619TIP3    H156272   6.624   0.768  11.747  1.6335  1.6574 -1.7300
11619TIP3    H256273   6.491   0.758  11.674 -0.1956 -1.5370  1.6655
11620TIP3   OH256274   3.238   2.787  13.714  0.1636 -0.4058 -0.3052
11620TIP3    H156275   3.214   2.845  13.785  0.8527  2.1624 -2.0243
11620TIP3    H256276   3.224   2.699  13.749 -1.2467  0.7473  2.3289
11621TIP3   OH256277   0.145   0.275  10.584 -0.4215  0.2924  0.8957
11621TIP3    H156278   0.052   0.294  10.570  0.0024  2.4273  0.7734
11621TIP3    H256279   0.166   0.316  10.667  0.5343  0.2944  0.6666
11622TIP3   OH256280   3.373   5.552  15.146 -0.0117 -0.0532  0.2138
11622TIP3    H156281   3.445   5.606  15.179 -0.2297 -1.4312  3.2634
11622TIP3    H256282   3.294   5.597  15.174 -0.2795 -0.1321 -0.3997
11623TIP3   OH256283   3.716   4.418  15.099  0.0150 -0.0003  0.5200
11623TIP3    H156284   3.733   4.388  15.188 -1.4793  0.7822  1.1039
11623TIP3    H256285   3.625   4.393  15.082 -0.2839  1.4185 -0.1164
11624TIP3   OH256286   2.407   5.642  14.076  0.3985 -0.1029  0.1850
11624TIP3    H156287   2.378   5.636  13.985 -0.5851  1.5753  0.3403
11624TIP3    H256288   2.371   5.726  14.107  1.2136 -0.3561  1.9386
11625TIP3   OH256289   3.222   1.750  10.717  0.5025  0.1402 -0.6384
11625TIP3    H156290   3.249   1.842  10.713  1.3348 -0.0908 -0.4124
11625TIP3    H256291   3.247   1.714  10.632  2.1101 -0.3869  0.0192
11626TIP3   OH256292   5.453   2.566  12.645 -0.5935  0.7009  0.0605
11626TIP3    H156293   5.484   2.648  12.685 -2.4438  0.4490  2.2064
11626TIP3    H256294   5.400   2.525  12.713  0.3388 -2.3721 -0.8951
11627TIP3   OH256295   0.110   2.235   4.976  0.9074 -0.3645  0.3872
11627TIP3    H156296   0.171   2.274   4.913  1.3172 -1.6039 -0.0008
11627TIP3    H256297   0.114   2.294   5.052  1.2033  0.5674 -0.3385
11628TIP3   OH256298   1.837   3.282  13.792  0.8235  0.5148  0.7153
11628TIP3    H156299   1.825   3.364  13.839  0.0897  0.2076  1.0861
11628TIP3    H256300   1.831   3.306  13.699  1.3849  0.9859  0.7957
11629TIP3   OH256301   5.496   1.485   1.581  0.0606 -0.4307  0.5157
11629TIP3    H156302   5.477   1.407   1.530  1.5785 -1.4284  1.3761
11629TIP3    H256303   5.587   1.506   1.561  0.2227  0.0444  1.6480
11630TIP3   OH256304   1.038   0.114   4.679  0.4038  0.1469 -0.0192
11630TIP3    H156305   0.957   0.106   4.630  0.8761 -0.8137 -0.6817
11630TIP3    H256306   1.105   0.128   4.613  1.0221 -0.9658  0.3374
11631TIP3   OH256307   5.023   5.365  12.903 -0.2641 -0.2185 -0.9097
11631TIP3    H156308   4.980   5.385  12.986 -0.9071 -0.7315 -1.1114
11631TIP3    H256309   5.003   5.273  12.887 -0.7573  0.0588 -1.9844
11632TIP3   OH256310   0.619   4.171   3.147  0.1232  0.5908  0.1386
11632TIP3    H156311   0.715   4.167   3.147  0.2660  2.8731  0.2785
11632TIP3    H256312   0.595   4.188   3.056 -0.0512  1.2606  0.3018
11633TIP3   OH256313   2.957   4.290  10.681 -0.3255  0.2374 -0.1280
11633TIP3    H156314   2.928   4.381  10.674 -1.3203 -0.0623 -0.0076
11633TIP3    H256315   3.019   4.280  10.608  0.3654  1.2090  0.3057
11634TIP3   OH256316   3.113   4.160  14.219  0.2166 -0.2222  0.4556
11634TIP3    H156317   3.203   4.161  14.189  0.4968 -0.4606  1.2706
11634TIP3    H256318   3.112   4.100  14.293 -0.2891  0.9005  1.4058
11635TIP3   OH256319   2.657   3.804  13.955  0.3569 -0.1871 -0.0592
11635TIP3    H156320   2.655   3.736  13.888 -0.9646  1.1748 -1.4838
11635TIP3    H256321   2.722   3.867  13.924 -1.3884  1.2599 -0.9901
11636TIP3   OH256322   2.877   1.596   3.795  0.3036  0.1198  0.0489
11636TIP3    H156323   2.818   1.668   3.816 -0.7770 -0.7851  0.2096
11636TIP3    H256324   2.944   1.599   3.864 -0.9609 -0.3564  1.3616
11637TIP3   OH256325   5.109   5.195  16.351 -0.7881  0.3200  0.4495
11637TIP3    H156326   5.035   5.236  16.306 -1.5924 -0.3386  1.1213
11637TIP3    H256327   5.068   5.129  16.407  0.2106  0.7727  1.7659
11638TIP3   OH256328   0.556   5.479  12.478 -0.1190  0.1769  0.1944
11638TIP3    H156329   0.594   5.566  12.490  0.2437 -0.2054  2.1366
11638TIP3    H256330   0.627   5.428  12.440 -0.3716  0.7256 -1.0767
11639TIP3   OH256331   1.416   5.963   6.370 -0.4690  0.2658 -0.0688
11639TIP3    H156332   1.384   5.873   6.378  1.4813 -0.6931 -1.9179
11639TIP3    H256333   1.473   5.975   6.446  1.4797 -1.1561 -1.2049
11640TIP3   OH256334   5.174   4.060  11.402  0.0673  0.2624 -0.6083
11640TIP3    H156335   5.181   3.978  11.353 -0.1907  0.6496 -1.3027
11640TIP3    H256336   5.083   4.063  11.431  0.9058 -1.5153  2.6829
11641TIP3   OH256337   4.692   0.736   5.155  0.6266 -0.3560  0.0397
11641TIP3    H156338   4.664   0.671   5.219 -1.2757 -0.1038 -0.4843
11641TIP3    H256339   4.778   0.705   5.125 -0.2925 -2.7394 -0.3396
11642TIP3   OH256340   4.391   4.209  13.168 -0.2108 -0.1880 -0.4337
11642TIP3    H156341   4.485   4.220  13.185 -0.4804 -0.4117  1.4015
11642TIP3    H256342   4.349   4.275  13.223 -1.1364  0.0557 -1.4051
11643TIP3   OH256343   4.964   0.597  13.306 -0.1459  0.0435 -0.2142
11643TIP3    H156344   5.043   0.644  13.280 -0.1599  0.5658  0.6426
11643TIP3    H256345   4.988   0.504  13.300  0.0535  0.1652 -1.3817
11644TIP3   OH256346   4.507   3.756  15.249  0.4653 -0.6621 -0.0796
11644TIP3    H156347   4.530   3.834  15.300  1.0900 -1.0971  0.3218
11644TIP3    H256348   4.451   3.789  15.178 -0.8943 -0.1266  1.1967
11645TIP3   OH256349   0.370   4.257  13.268 -0.4215  0.4458  0.5395
11645TIP3    H156350   0.442   4.202  13.299 -0.5460 -0.0300  0.0064
11645TIP3    H256351   0.413   4.333  13.228 -0.0579 -1.0019 -2.0755
11646TIP3   OH256352   5.975   1.675  13.515  0.2135  0.7240 -0.2198
11646TIP3    H156353   6.006   1.758  13.550  2.4740 -0.0953 -0.1229
11646TIP3    H256354   6.049   1.615  13.526 -1.0309 -1.0720 -1.1163
11647TIP3   OH256355   6.665   0.705  14.675  0.1854  0.0223 -0.2234
11647TIP3    H156356   6.636   0.760  14.748  0.9012  1.2605 -0.8535
11647TIP3    H256357   6.585   0.658  14.648 -0.0479 -0.6471  1.4709
11648TIP3   OH256358   5.622   2.887  14.787 -0.1056 -0.2615 -0.3287
11648TIP3    H156359   5.641   2.797  14.761  0.6156 -0.1238 -0.2824
11648TIP3    H256360   5.527   2.887  14.804 -0.2922 -0.7677 -1.2782
11649TIP3   OH256361   3.217   5.747  12.549  0.4080 -0.5246 -0.4567
11649TIP3    H156362   3.280   5.781  12.613 -2.2028 -0.1188  2.1024
11649TIP3    H256363   3.244   5.656  12.536  1.7168 -0.2779  0.2921
11650TIP3   OH256364   0.950   2.192  13.778  0.1525  0.1000 -0.3160
11650TIP3    H156365   1.016   2.261  13.772  0.8093 -0.6015 -1.4885
11650TIP3    H256366   0.903   2.211  13.859  0.4911  1.7657 -0.4649
11651TIP3   OH256367   3.167   3.715   0.343 -0.6773  0.6583  0.3483
11651TIP3    H156368   3.120   3.712   0.426 -0.2727  2.1318  0.6546
11651TIP3    H256369   3.235   3.781   0.356 -1.0197  1.4041 -1.3421
11652TIP3   OH256370   4.128   5.809   5.886  0.0650  0.3375 -0.1055
11652TIP3    H156371   4.161   5.752   5.817 -0.9375  0.3204 -0.5920
11652TIP3    H256372   4.052   5.853   5.847 -1.6106 -0.9603  1.4895
11653TIP3   OH256373   3.893   1.152  14.967 -0.7284 -0.0648 -0.5834
11653TIP3    H156374   3.895   1.098  15.046 -0.4806  0.2966 -0.3367
11653TIP3    H256375   3.964   1.118  14.913 -0.3467  0.2323 -0.2774
11654TIP3   OH256376   0.475   2.373   3.608  0.7317 -0.0191  0.1400
11654TIP3    H156377   0.402   2.422   3.646  0.3729 -0.4828  0.0642
11654TIP3    H256378   0.547   2.435   3.606  0.8538 -0.0670  1.8619
11655TIP3   OH256379   2.265   3.020  12.388  0.2397  0.6476  0.9024
11655TIP3    H156380   2.225   2.933  12.391  2.3567 -0.3489  2.6600
11655TIP3    H256381   2.353   3.005  12.354  0.6872  2.0945  1.3448
11656TIP3   OH256382   3.956   4.696  13.703  0.1992  0.0684  0.2879
11656TIP3    H156383   3.924   4.750  13.631  1.3314  0.7299  0.2570
11656TIP3    H256384   4.016   4.752  13.751  1.2817 -1.0936  0.3538
11657TIP3   OH256385   6.258   5.789  11.237 -0.1733 -0.0741 -0.0153
11657TIP3    H156386   6.226   5.877  11.257  2.1890  0.7600  0.4753
11657TIP3    H256387   6.300   5.798  11.151  2.1661 -0.0365  1.0480
11658TIP3   OH256388   2.711   2.750  10.902 -0.1779 -0.7703 -0.1881
11658TIP3    H156389   2.653   2.697  10.957 -2.1933 -0.7068 -2.1190
11658TIP3    H256390   2.712   2.704  10.818  0.0038  0.9423 -1.1579
11659TIP3   OH256391   3.685   2.546   1.219  1.0596 -0.1855 -0.0457
11659TIP3    H156392   3.699   2.473   1.279 -3.0821  0.2022  1.7418
11659TIP3    H256393   3.673   2.622   1.276 -1.5706  0.4761 -1.3330
11660TIP3   OH256394   0.082   6.636   2.613 -0.8018 -0.0548 -0.2536
11660TIP3    H156395   0.091   6.723   2.576 -2.9188  0.8957  1.2601
11660TIP3    H256396  -0.005   6.607   2.584 -0.5411 -1.2326  0.0951
11661TIP3   OH256397   1.065   2.486  11.862 -0.3511  0.4239 -0.0299
11661TIP3    H156398   1.128   2.460  11.929  0.0786  1.2846 -0.0950
11661TIP3    H256399   1.047   2.405  11.814  1.3166  0.2954 -0.5108
11662TIP3   OH256400   5.665   5.921   2.051  0.0145 -0.4772 -0.7008
11662TIP3    H156401   5.664   5.913   2.146 -0.6700 -0.7630 -0.7296
11662TIP3    H256402   5.746   5.969   2.032 -0.5640  0.9029  0.1261
11663TIP3   OH256403   4.256   4.960   2.593  0.0013  0.0035 -0.7412
11663TIP3    H156404   4.208   5.043   2.591 -0.2586 -0.1586 -2.1821
11663TIP3    H256405   4.345   4.985   2.617 -0.3035  0.5729 -0.1741
11664TIP3   OH256406   5.583   4.934   1.287 -0.3190  0.0227 -0.1495
11664TIP3    H156407   5.637   4.983   1.350  0.7583 -0.8873 -0.3218
11664TIP3    H256408   5.646   4.879   1.240 -1.3940 -0.9809 -0.4638
11665TIP3   OH256409   4.116   3.523  11.657  0.0188 -0.1994  0.2916
11665TIP3    H156410   4.026   3.549  11.678 -0.2291 -0.8982  0.1456
11665TIP3    H256411   4.106   3.462  11.584  0.5974 -0.4588  0.4248
11666TIP3   OH256412   3.022   6.663   2.514  0.7416 -0.1886 -0.4651
11666TIP3    H156413   3.066   6.671   2.599 -3.7864  2.7613  2.0389
11666TIP3    H256414   2.983   6.576   2.515  0.9022 -0.2622  0.4075
11667TIP3   OH256415   5.662   0.811   1.441 -1.3452 -0.7632 -0.0726
11667TIP3    H156416   5.635   0.893   1.399 -1.2779 -0.8324 -0.2482
11667TIP3    H256417   5.730   0.838   1.503  0.3654 -0.9766 -1.7705
11668TIP3   OH256418   3.120   4.173  15.818  0.4627 -0.2056 -0.1280
11668TIP3    H156419   3.173   4.093  15.820 -0.0817 -0.5691 -0.2159
11668TIP3    H256420   3.031   4.143  15.804  0.0377  0.3273  1.3322
11669TIP3   OH256421   5.179   6.627  11.675  0.1917  0.2347 -0.4114
11669TIP3    H156422   5.225   6.710  11.689 -1.1724  0.8160  0.9196
11669TIP3    H256423   5.152   6.600  11.763 -1.4828 -0.3794 -1.0861
11670TIP3   OH256424   2.512   3.361  13.544 -0.6170 -0.4432  0.1133
11670TIP3    H156425   2.589   3.319  13.504  1.0013  0.9716  1.5677
11670TIP3    H256426   2.510   3.449  13.506 -1.2906 -0.3353  0.3818
11671TIP3   OH256427   1.608   6.244   5.144 -0.8133  0.6922  0.3833
11671TIP3    H156428   1.647   6.203   5.221  1.6931  2.2465  0.0493
11671TIP3    H256429   1.560   6.319   5.177 -0.9904  0.5089  0.5443
11672TIP3   OH256430   1.832   3.344  13.530  0.2252  0.0333  0.3882
11672TIP3    H156431   1.900   3.325  13.466 -0.1732 -1.0670  0.2778
11672TIP3    H256432   1.795   3.428  13.500  1.5419  0.6736  0.4861
11673TIP3   OH256433   2.960   4.855   2.109  0.5609  0.4171  0.1065
11673TIP3    H156434   2.979   4.897   2.193  0.5308  0.7907 -0.0709
11673TIP3    H256435   3.041   4.812   2.084  0.3610 -0.3174  0.6794
11674TIP3   OH256436   5.076   2.797   0.487 -0.0359  0.0688 -0.0513
11674TIP3    H156437   4.992   2.757   0.466  0.5956 -1.3997  0.0603
11674TIP3    H256438   5.117   2.735   0.548  0.9553  0.9466  0.1976
11675TIP3   OH256439   2.834   3.049   5.539  0.8579  0.0593  0.3522
11675TIP3    H156440   2.765   2.987   5.517  0.3182  0.8162 -0.1392
11675TIP3    H256441   2.865   3.021   5.625  1.0225 -1.2191 -0.1106
11676TIP3   OH256442   1.397   0.241   1.568  0.0407 -0.7611 -0.1239
11676TIP3    H156443   1.339   0.304   1.524 -0.5766 -0.5541  0.9612
11676TIP3    H256444   1.467   0.296   1.604 -0.9241 -0.5508  1.5257
11677TIP3   OH256445   0.566   4.296   2.680  0.2647  0.2041 -0.0094
11677TIP3    H156446   0.525   4.279   2.766  0.9585 -2.2392 -0.0704
11677TIP3    H256447   0.660   4.291   2.697  0.4959  2.0220 -0.5483
11678TIP3   OH256448   6.675   6.614  11.893  0.0187  0.6523 -0.3256
11678TIP3    H156449   6.713   6.648  11.974 -0.3525  1.3490 -0.4259
11678TIP3    H256450   6.617   6.685  11.864  1.9955  1.4840 -2.5157
11679TIP3   OH256451   0.575   0.193   4.433  0.0022 -0.6156  0.4548
11679TIP3    H156452   0.496   0.193   4.486  0.1886  1.9700  0.8523
11679TIP3    H256453   0.545   0.185   4.343 -0.8460  1.3901  0.5208
11680TIP3   OH256454   2.704   1.903   3.842 -0.0069 -0.2790 -0.1627
11680TIP3    H156455   2.657   1.933   3.920 -0.9045  1.7869 -1.4083
11680TIP3    H256456   2.644   1.842   3.800  1.1091 -2.6663  1.4679
11681TIP3   OH256457   6.167   3.322   3.728 -0.2465 -0.3018  0.5266
11681TIP3    H156458   6.198   3.390   3.669  1.0257  0.2988  1.8120
11681TIP3    H256459   6.170   3.241   3.676 -0.8983  0.4700 -0.7385
11682TIP3   OH256460   0.329   4.889   3.447  0.3809  0.5585 -0.0949
11682TIP3    H156461   0.367   4.807   3.414 -1.0318 -0.4467  0.6502
11682TIP3    H256462   0.239   4.888   3.415  0.7243  2.5774 -1.3098
11683TIP3   OH256463   3.222   5.908   1.462  0.1607 -0.1138  0.3703
11683TIP3    H156464   3.141   5.929   1.415  0.1253 -0.4271  0.2841
11683TIP3    H256465   3.291   5.916   1.396  0.0174 -1.3574  0.0374
11684TIP3   OH256466   5.440   5.949  12.399  0.6120  0.0032  0.0069
11684TIP3    H156467   5.480   5.905  12.473 -1.2774 -1.9969 -0.0605
11684TIP3    H256468   5.348   5.923  12.402  0.5033 -0.4392 -3.2128
11685TIP3   OH256469   4.303   2.568  11.224  0.3944  0.0992  0.4061
11685TIP3    H156470   4.221   2.519  11.227  0.5116 -0.4048 -2.2114
11685TIP3    H256471   4.285   2.643  11.168  1.8937 -0.5180 -1.0037
11686TIP3   OH256472   1.846   4.599   3.636 -0.2449  0.0304  0.1337
11686TIP3    H156473   1.772   4.581   3.578 -0.4536 -1.1233  0.7391
11686TIP3    H256474   1.810   4.656   3.704 -0.3524  0.1964 -0.0616
11687TIP3   OH256475   1.597   5.117  15.484  0.2743 -0.4551 -0.9123
11687TIP3    H156476   1.689   5.110  15.509  1.3021  0.4366 -3.9942
11687TIP3    H256477   1.557   5.037  15.518  2.0778 -0.7409  0.7410
11688TIP3   OH256478   4.399   1.355   1.260  0.4712 -0.0309 -0.0990
11688TIP3    H156479   4.435   1.368   1.348 -0.1218  0.7474  0.0382
11688TIP3    H256480   4.312   1.393   1.264  0.1387 -0.6968 -0.8120
11689TIP3   OH256481   4.991   0.719  15.919  0.0155 -0.0734 -0.2691
11689TIP3    H156482   5.011   0.797  15.867  1.1420 -0.6958 -0.8134
11689TIP3    H256483   4.935   0.666  15.862 -1.1299  0.5232  0.2755
11690TIP3   OH256484   4.719   5.197   2.542 -0.0252  0.1183 -0.0696
11690TIP3    H156485   4.804   5.208   2.584 -1.1212  2.8043  1.7428
11690TIP3    H256486   4.709   5.275   2.489 -0.9683 -0.6596 -1.0696
11691TIP3   OH256487   0.074   2.328  12.002  0.2393 -0.1094 -0.2777
11691TIP3    H156488   0.106   2.262  12.064 -0.7342 -1.5982 -1.2822
11691TIP3    H256489   0.150   2.384  11.987  1.7052 -2.0616 -0.6964
11692TIP3   OH256490   1.499   3.677  15.348  0.0744  0.2792 -0.0029
11692TIP3    H156491   1.420   3.623  15.348  1.0980 -1.2910  0.4789
11692TIP3    H256492   1.529   3.675  15.257 -0.4844  0.9637 -0.2072
11693TIP3   OH256493   1.722   0.884   6.182 -0.0122  0.3570 -0.2201
11693TIP3    H156494   1.753   0.805   6.225  0.6134  0.1022 -1.1016
11693TIP3    H256495   1.658   0.853   6.118  1.0894  0.4097 -1.3871
11694TIP3   OH256496   2.928   5.821  13.716 -0.7588  0.4360  0.3523
11694TIP3    H156497   2.928   5.753  13.783  1.6168  1.0230  1.0379
11694TIP3    H256498   2.857   5.796  13.656 -2.2407 -0.6867  2.4698
11695TIP3   OH256499   2.573   5.552  12.387  0.2479  0.3269  0.0285
11695TIP3    H156500   2.582   5.481  12.451  2.6734 -1.3505 -1.9876
11695TIP3    H256501   2.484   5.586  12.401  0.4717 -0.2870  3.8409
11696TIP3   OH256502   5.057   5.733  15.012  0.4474 -0.7503 -0.3970
11696TIP3    H156503   5.057   5.677  15.090 -0.7368 -0.6793 -0.3207
11696TIP3    H256504   4.980   5.789  15.024 -0.7775 -1.8808 -2.4181
11697TIP3   OH256505   6.127   4.453  16.313 -0.5176 -0.1721 -0.0379
11697TIP3    H156506   6.142   4.495  16.228 -0.0232 -0.4882 -0.1114
11697TIP3    H256507   6.155   4.362  16.300 -1.4666 -0.5056  0.1518
11698TIP3   OH256508   4.866   4.523   2.109 -0.5840  0.1234 -0.1307
11698TIP3    H156509   4.907   4.609   2.110 -0.6021  0.1284  0.2694
11698TIP3    H256510   4.774   4.540   2.129 -0.0791 -0.2474  2.9641
11699TIP3   OH256511   4.735   5.927  15.868  0.3499  0.8867  0.5340
11699TIP3    H156512   4.724   6.006  15.815 -0.2174  1.4896  1.5269
11699TIP3    H256513   4.648   5.908  15.902  0.3695 -0.4755 -0.0853
11700TIP3   OH256514   2.086   6.315   5.726  0.0842  0.0495 -0.7759
11700TIP3    H156515   2.177   6.286   5.735 -0.2510 -1.4831 -1.8857
11700TIP3    H256516   2.035   6.252   5.777 -0.3604  1.1313  0.1756
11701TIP3   OH256517   3.690   5.861  15.897 -0.1813 -0.4651  0.0226
11701TIP3    H156518   3.723   5.949  15.915  2.5182 -1.2512 -0.5944
11701TIP3    H256519   3.659   5.829  15.982 -2.6369  1.5488 -0.0170
11702TIP3   OH256520   6.785   5.444   4.224 -0.2615 -0.0958 -0.3684
11702TIP3    H156521   6.771   5.537   4.241 -1.5661 -0.1612 -0.9740
11702TIP3    H256522   6.727   5.400   4.286  0.3454 -0.5079 -0.0924
11703TIP3   OH256523   6.668   4.724   6.722  0.1497  0.0619  0.0164
11703TIP3    H156524   6.659   4.797   6.783 -1.5983  1.1097 -1.3974
11703TIP3    H256525   6.718   4.760   6.649 -1.1068  0.0247 -0.8974
11704TIP3   OH256526   3.213   4.684  15.498 -0.0167 -0.5824  0.2193
11704TIP3    H156527   3.300   4.645  15.487  0.5788  0.9000 -0.6676
11704TIP3    H256528   3.211   4.713  15.589  1.6495  2.0299 -0.4718
11705TIP3   OH256529   2.705   6.012   1.843 -0.4519 -0.0466  0.0065
11705TIP3    H156530   2.664   5.960   1.773 -1.4897  0.2774  0.3474
11705TIP3    H256531   2.670   6.100   1.829  0.0080  0.2001  0.4219
11706TIP3   OH256532   0.340   6.761   4.719 -0.1882 -0.3554 -0.5687
11706TIP3    H156533   0.366   6.840   4.767 -0.3372 -1.1605  0.9167
11706TIP3    H256534   0.406   6.696   4.744 -0.7223 -1.0152 -0.8481
11707TIP3   OH256535   4.493   4.883   0.126  0.1005  0.2127 -0.4230
11707TIP3    H156536   4.581   4.847   0.118 -0.2905 -0.8977  0.1350
11707TIP3    H256537   4.477   4.889   0.220 -1.4721 -2.3375 -0.4540
11708TIP3   OH256538   3.247   1.767  11.096  0.3160  0.5590  0.2214
11708TIP3    H156539   3.330   1.785  11.051 -0.9217  0.1502 -2.4157
11708TIP3    H256540   3.257   1.677  11.128  1.3326  0.9585  1.1065
11709TIP3   OH256541   0.535   6.552  14.446  0.6887 -0.8449  0.1614
11709TIP3    H156542   0.532   6.646  14.461 -2.4554 -0.9476  0.9877
11709TIP3    H256543   0.558   6.515  14.531  0.1907 -0.8640  0.2903
11710TIP3   OH256544   0.331   5.367  17.045  0.4290  0.3110  0.1030
11710TIP3    H156545   0.382   5.357  17.126 -0.0832 -1.0021  0.2827
11710TIP3    H256546   0.381   5.320  16.979 -0.2172 -0.4644  0.1465
11711TIP3   OH256547   1.297   6.123  12.842 -0.3181  0.3685  0.0200
11711TIP3    H156548   1.214   6.163  12.814 -0.2024  2.1097  1.9649
11711TIP3    H256549   1.362   6.157  12.781 -0.7393  0.4781 -0.3735
11712TIP3   OH256550   6.126   0.843  16.231 -0.2336  0.0149 -0.1210
11712TIP3    H156551   6.145   0.926  16.187 -0.1487 -0.6112 -1.2972
11712TIP3    H256552   6.113   0.867  16.323  4.7824  0.7549  0.6610
11713TIP3   OH256553   5.042   2.937   5.786 -0.2833  0.3347 -0.1717
11713TIP3    H156554   4.985   2.950   5.862  1.3718  0.5607  1.1034
11713TIP3    H256555   5.016   2.852   5.751 -0.8206  0.0331  0.9079
11714TIP3   OH256556   2.192   6.491  15.209  0.7165 -0.8111  0.0538
11714TIP3    H156557   2.209   6.431  15.137  0.0984 -0.8498 -0.0641
11714TIP3    H256558   2.096   6.495  15.215  0.7559 -0.0812  0.2626
11715TIP3   OH256559   4.893   2.372   3.444 -0.2472  0.1208  0.4236
11715TIP3    H156560   4.973   2.382   3.496  0.6540 -0.5914 -0.7707
11715TIP3    H256561   4.831   2.434   3.484  1.1379  1.2629  0.9126
11716TIP3   OH256562   3.999   4.486  16.336 -0.5830 -0.4093 -0.2532
11716TIP3    H156563   3.904   4.478  16.324 -0.4815 -0.4579 -1.0754
11716TIP3    H256564   4.036   4.466  16.250  0.2550 -1.7341  0.3842
11717TIP3   OH256565   6.784   5.920  14.056 -0.6353 -0.4839  1.2429
11717TIP3    H156566   6.856   5.908  14.119  0.5976 -1.0775 -0.2151
11717TIP3    H256567   6.828   5.924  13.971 -1.7004  4.8556  0.5989
11718TIP3   OH256568   1.153   5.123  15.946  0.4090  0.3934  0.0303
11718TIP3    H156569   1.190   5.199  15.990 -0.7064 -0.7383  3.1845
11718TIP3    H256570   1.203   5.049  15.981 -2.0431 -0.7733  1.3203
11719TIP3   OH256571   1.595   5.728   0.909  0.4827 -0.0214 -0.4440
11719TIP3    H156572   1.611   5.808   0.860 -0.6508  0.0193 -0.7631
11719TIP3    H256573   1.679   5.710   0.953  1.2528  0.4149 -1.6844
11720TIP3   OH256574   1.535   5.316   4.745  0.0566  0.6024  0.1846
11720TIP3    H156575   1.578   5.257   4.683 -2.0863 -2.0581  1.0222
11720TIP3    H256576   1.566   5.287   4.831 -1.0339  0.6808  0.6180
11721TIP3   OH256577   0.607   2.354   2.844  0.7038  0.7040 -0.0866
11721TIP3    H156578   0.566   2.339   2.928 -0.0852 -2.0468 -0.8514
11721TIP3    H256579   0.701   2.348   2.862  0.5410  0.0473  0.6128
11722TIP3   OH256580   2.404   6.316  13.943  0.5049  0.0110 -0.3723
11722TIP3    H156581   2.353   6.252  13.994  0.5845 -0.8550 -1.3329
11722TIP3    H256582   2.484   6.269  13.920  0.8470  0.6829 -0.5729
11723TIP3   OH256583   6.113   3.958   3.753 -0.1088 -0.3234  0.4115
11723TIP3    H156584   6.113   3.917   3.667 -1.8247 -1.5310  0.9455
11723TIP3    H256585   6.155   3.895   3.811  0.2830  0.1235  0.6246
11724TIP3   OH256586   2.968   2.293   0.100  0.0880 -0.5631  0.5672
11724TIP3    H156587   2.878   2.264   0.084  0.4169 -0.5879 -1.5452
11724TIP3    H256588   3.022   2.223   0.065  0.9020  0.5529 -0.4580
11725TIP3   OH256589   4.414   2.341  15.150 -0.0975 -0.4992  0.0382
11725TIP3    H156590   4.417   2.273  15.217 -0.1163 -0.8705 -0.3320
11725TIP3    H256591   4.323   2.341  15.121 -0.2649  0.1945  0.5537
11726TIP3   OH256592   2.331   1.187  14.333  0.0196  0.0286  0.0118
11726TIP3    H156593   2.321   1.227  14.419  2.2075  0.5439  0.0854
11726TIP3    H256594   2.284   1.104  14.339 -2.2040  1.2796  0.7695
11727TIP3   OH256595   2.131   4.457   0.844  0.2809 -0.4805  0.4663
11727TIP3    H156596   2.125   4.509   0.764 -0.2067 -1.8305 -0.4002
11727TIP3    H256597   2.210   4.488   0.887  1.0240 -0.3112 -0.9683
11728TIP3   OH256598   3.269   1.562  15.710  0.0756  0.6634  0.4151
11728TIP3    H156599   3.230   1.642  15.675  1.3316  1.4019  0.6205
11728TIP3    H256600   3.336   1.594  15.771  0.9362 -0.5403  0.1238
11729TIP3   OH256601   3.197   4.628   5.211  0.1057  0.8039  0.3969
11729TIP3    H156602   3.160   4.682   5.142  0.4397  2.0466  1.1645
11729TIP3    H256603   3.182   4.678   5.291  2.3697  0.8066  0.8756
11730TIP3   OH256604   5.353   3.073  13.311 -0.2246  0.4929  0.1737
11730TIP3    H156605   5.422   3.101  13.371  0.3053  0.8495 -0.5957
11730TIP3    H256606   5.372   2.980  13.295 -1.0445  0.0797  1.4508
11731TIP3   OH256607   4.704   2.474  14.570  0.4816 -0.7535  0.2954
11731TIP3    H156608   4.760   2.495  14.645  0.5659  2.0380 -0.4283
11731TIP3    H256609   4.710   2.551  14.514 -2.1917 -1.3692 -0.9830
11732TIP3   OH256610   1.752   5.230   2.299 -0.2573 -0.1669 -0.2193
11732TIP3    H156611   1.765   5.306   2.355 -0.9924 -0.0966 -0.1460
11732TIP3    H256612   1.711   5.164   2.355  0.9935 -0.8794 -0.0920
11733TIP3   OH256613   3.024   5.786  13.150 -0.2774 -0.3102 -0.4808
11733TIP3    H156614   3.068   5.860  13.191 -0.6023 -0.4017  0.0446
11733TIP3    H256615   2.934   5.817  13.134 -0.2042 -0.3324 -0.9752
11734TIP3   OH256616   2.113   2.520  14.619 -0.3798  0.4535 -0.3072
11734TIP3    H156617   2.208   2.528  14.608 -0.3937  0.3710 -0.4980
11734TIP3    H256618   2.098   2.538  14.711 -0.0937 -0.2713 -0.1090
11735TIP3   OH256619   6.304   2.129   5.482 -0.5107 -0.0575  1.1256
11735TIP3    H156620   6.400   2.137   5.485 -0.5923  0.8813  1.8885
11735TIP3    H256621   6.288   2.057   5.422  0.6607  0.2874  0.3538
11736TIP3   OH256622   0.736   5.751  15.290  0.3262  0.5157 -0.0981
11736TIP3    H156623   0.713   5.712  15.374  0.7326  1.3588  0.4145
11736TIP3    H256624   0.792   5.825  15.312 -0.1199  1.1657 -1.0697
11737TIP3   OH256625   5.132   5.603  15.740  0.3682  0.0707  0.0704
11737TIP3    H156626   5.083   5.575  15.817  1.9700 -0.7069  0.8600
11737TIP3    H256627   5.224   5.591  15.764  0.9293  0.2291 -1.7990
11738TIP3   OH256628   1.177   3.128   2.392  0.2910 -0.2203 -0.1056
11738TIP3    H156629   1.140   3.046   2.359  1.4417 -0.9801  0.4265
11738TIP3    H256630   1.141   3.195   2.334 -0.0280 -1.1878 -1.0637
11739TIP3   OH256631   3.136   5.330  12.568 -0.2307  0.6176 -0.0667
11739TIP3    H156632   3.054   5.352  12.612 -0.1065  0.4977  0.2282
11739TIP3    H256633   3.203   5.380  12.617 -0.1674  0.9694 -0.5072
11740TIP3   OH256634   5.614   5.747  15.033  0.1676 -0.0397 -0.7956
11740TIP3    H156635   5.586   5.659  15.058 -0.0437  0.0377 -0.7535
11740TIP3    H256636   5.667   5.734  14.954  0.1064 -0.2013 -0.8105
11741TIP3   OH256637   4.105   6.275   5.398 -0.0171 -0.6323 -0.4025
11741TIP3    H156638   4.114   6.348   5.460  1.5500 -0.3981 -0.8613
11741TIP3    H256639   4.093   6.198   5.453  4.0745 -0.8661  0.4722
11742TIP3   OH256640   4.039   1.270  13.546 -0.7160 -0.0969 -0.4557
11742TIP3    H156641   4.039   1.328  13.622  0.8555 -0.4083 -0.1750
11742TIP3    H256642   4.063   1.326  13.473 -2.6495  0.2920 -0.8397
11743TIP3   OH256643   1.317   5.647   1.405 -0.4769 -0.2977 -0.2753
11743TIP3    H156644   1.373   5.688   1.340  0.6387 -1.4809 -0.0925
11743TIP3    H256645   1.377   5.607   1.468 -1.5259 -0.0144  0.9515
11744TIP3   OH256646   2.341   2.743  12.106 -0.3283 -0.1017 -0.7018
11744TIP3    H156647   2.296   2.659  12.121  0.4119 -0.4033 -0.1231
11744TIP3    H256648   2.416   2.720  12.050 -0.3883  0.2529 -0.9314
11745TIP3   OH256649   2.201   5.916   2.117  0.1423  0.6236  0.0130
11745TIP3    H156650   2.126   5.974   2.130  0.5669  1.8497 -2.3403
11745TIP3    H256651   2.264   5.969   2.067  1.5449 -1.1473 -0.2128
11746TIP3   OH256652   0.154   4.068   5.963  0.2758  0.0018  0.1768
11746TIP3    H156653   0.167   3.985   6.009 -2.7440 -1.0255 -0.5955
11746TIP3    H256654   0.163   4.134   6.032  0.9421 -1.0750  1.1733
11747TIP3   OH256655   1.981   2.126   5.650 -0.1947  0.5730  0.3152
11747TIP3    H156656   1.923   2.198   5.674 -0.4117  0.6681 -0.4490
11747TIP3    H256657   1.962   2.110   5.557  0.2405 -0.1049  0.3328
11748TIP3   OH256658   5.288   4.809  13.735  0.5527 -0.4261 -0.0340
11748TIP3    H156659   5.314   4.882  13.790  0.4739  0.0367 -0.6013
11748TIP3    H256660   5.195   4.796  13.755  0.3494  0.1940 -0.5639
11749TIP3   OH256661   6.532   2.255  15.782 -0.5893  0.0322 -0.2629
11749TIP3    H156662   6.490   2.283  15.864 -1.1508 -1.2583 -0.0827
11749TIP3    H256663   6.463   2.212  15.733 -0.3298  1.0945 -1.5894
11750TIP3   OH256664   5.317   0.612   0.208  0.2954  0.0251  0.4101
11750TIP3    H156665   5.306   0.519   0.190  0.6834  0.1733 -0.6335
11750TIP3    H256666   5.349   0.615   0.299 -1.7079 -0.7232  1.1954
11751TIP3   OH256667   2.333   3.926   3.329  0.0584 -0.0504  0.1114
11751TIP3    H156668   2.304   3.844   3.368 -1.3738  1.8458  3.4530
11751TIP3    H256669   2.407   3.954   3.383  2.3988 -0.3685 -2.7026
11752TIP3   OH256670   1.200   5.023   2.412 -0.2372  0.0951 -0.4150
11752TIP3    H156671   1.208   4.935   2.450 -1.1555  0.1302 -0.1041
11752TIP3    H256672   1.162   5.075   2.483 -0.7826  0.4658 -0.9753
11753TIP3   OH256673   6.340   2.819  11.536  0.0693  0.3792 -0.6834
11753TIP3    H156674   6.412   2.787  11.590  0.4252 -1.0765 -1.9512
11753TIP3    H256675   6.383   2.856  11.459 -0.4280  2.4416 -0.0371
11754TIP3   OH256676   5.748   0.637  13.246 -0.1600  0.4628 -0.0774
11754TIP3    H156677   5.769   0.636  13.340  0.4385 -0.9167 -0.2103
11754TIP3    H256678   5.831   0.617  13.203 -0.6773 -0.0434 -0.8511
11755TIP3   OH256679   3.577   5.940   4.693  0.6441  0.1598 -0.2375
11755TIP3    H156680   3.666   5.972   4.698  0.3760  0.7593  2.0334
11755TIP3    H256681   3.562   5.899   4.779 -1.0994 -0.3501 -0.7441
11756TIP3   OH256682   1.490   6.249  11.521 -0.1091  0.3633 -0.1091
11756TIP3    H156683   1.400   6.281  11.521  0.0070  0.7342  0.8695
11756TIP3    H256684   1.543   6.328  11.534  0.3863  0.1946 -1.0139
11757TIP3   OH256685   3.517   0.437   2.711 -0.1803 -0.0405 -0.3503
11757TIP3    H156686   3.433   0.483   2.705 -1.4207 -1.5118  2.9796
11757TIP3    H256687   3.575   0.498   2.756 -0.5568 -0.1900  0.3618
11758TIP3   OH256688   0.497   6.064  11.174  0.1883  0.3819  0.1700
11758TIP3    H156689   0.422   6.101  11.127  0.3161  0.3617 -0.0536
11758TIP3    H256690   0.484   5.969  11.168 -0.5266  0.3803  1.3734
11759TIP3   OH256691   1.691   3.932   4.850 -0.3891 -0.0047  0.5079
11759TIP3    H156692   1.672   3.909   4.759  0.2529 -0.1943  0.4124
11759TIP3    H256693   1.631   3.877   4.901 -0.1857 -0.5127  0.2174
11760TIP3   OH256694   5.809   0.537   5.545  0.2935  0.6604  0.0847
11760TIP3    H156695   5.847   0.450   5.535 -1.7686 -0.1215 -1.7367
11760TIP3    H256696   5.868   0.595   5.497 -0.3751 -0.4269 -2.1811
11761TIP3   OH256697   0.246   2.826   1.921 -0.8194  0.5566  0.3122
11761TIP3    H156698   0.337   2.803   1.939 -0.9454 -0.3138 -0.0714
11761TIP3    H256699   0.245   2.852   1.829 -0.4774  3.3349  1.0244
11762TIP3   OH256700   3.288   1.478   0.981  0.4720 -0.3167 -0.7084
11762TIP3    H156701   3.233   1.512   1.050 -1.0749 -2.3076 -0.8659
11762TIP3    H256702   3.231   1.421   0.930  2.3820 -1.5764 -1.5848
11763TIP3   OH256703   3.613   5.858  11.793  0.6847  0.5122 -0.3020
11763TIP3    H156704   3.564   5.852  11.875  0.3377  0.3983 -0.5143
11763TIP3    H256705   3.604   5.771  11.753  0.3185  0.7578 -0.7602
11764TIP3   OH256706   2.478   5.515  17.014 -0.4264 -0.1203  0.5997
11764TIP3    H156707   2.505   5.600  17.047  1.1030 -0.1672 -0.4105
11764TIP3    H256708   2.459   5.464  17.093  1.2798  0.3418  1.3717
11765TIP3   OH256709   2.746   1.341   1.685  0.7841  0.6466  0.9457
11765TIP3    H156710   2.741   1.411   1.620 -0.3988 -0.6883 -0.4403
11765TIP3    H256711   2.782   1.384   1.763  1.8565  2.3711 -0.4318
11766TIP3   OH256712   6.377   1.140  13.543 -0.3479 -0.2169  0.3562
11766TIP3    H156713   6.440   1.197  13.497  0.3854 -1.5234 -0.3184
11766TIP3    H256714   6.388   1.163  13.635 -0.3559  1.0035  0.0796
11767TIP3   OH256715   1.584   1.045   2.295  0.1894 -0.6326  0.3071
11767TIP3    H156716   1.530   1.071   2.220  2.0318  0.2365 -0.8042
11767TIP3    H256717   1.639   1.122   2.312  2.8551 -2.2536 -0.3394
11768TIP3   OH256718   2.558   3.265  13.158  0.2517 -0.1890  0.2837
11768TIP3    H156719   2.652   3.255  13.142  0.1381  0.5361 -0.9200
11768TIP3    H256720   2.517   3.202  13.099 -0.0742  0.6186 -0.3649
11769TIP3   OH256721   5.375   1.799   4.438 -0.0420 -0.3281 -1.0380
11769TIP3    H156722   5.451   1.742   4.427  0.2405 -0.5979  1.5912
11769TIP3    H256723   5.324   1.758   4.507 -0.2422  2.1069  0.3998
11770TIP3   OH256724   6.214   2.785  12.236 -0.8456  0.1083 -0.0324
11770TIP3    H156725   6.196   2.743  12.320 -0.3023  0.5944  0.3294
11770TIP3    H256726   6.145   2.850  12.226  0.6391  1.9916  1.3656
11771TIP3   OH256727   2.869   3.745   3.351 -0.3336 -0.1893 -0.5962
11771TIP3    H156728   2.941   3.809   3.346 -0.1841 -0.2039  0.8862
11771TIP3    H256729   2.790   3.796   3.336 -0.1632  0.2317 -0.0860
11772TIP3   OH256730   1.417   3.022  15.572  0.3605 -0.2432 -0.1457
11772TIP3    H156731   1.510   3.036  15.594  0.5780  3.2359 -2.4579
11772TIP3    H256732   1.372   3.028  15.655  2.1887 -5.4948  1.6852
11773TIP3   OH256733   2.567   6.629  13.174  0.1849  0.1688 -0.4041
11773TIP3    H156734   2.531   6.556  13.224  1.0034  1.1233  1.6672
11773TIP3    H256735   2.646   6.654  13.221 -0.0558  2.3715 -1.0607
11774TIP3   OH256736   4.608   4.179   0.527  0.5738  0.4426  0.1508
11774TIP3    H156737   4.693   4.149   0.557 -0.3566 -1.5541  0.9395
11774TIP3    H256738   4.614   4.178   0.431  1.5495  0.7326  0.2022
11775TIP3   OH256739   1.595   4.122  12.046  0.0359 -0.0284  0.7266
11775TIP3    H156740   1.520   4.158  12.094 -0.5963 -0.5884  0.1753
11775TIP3    H256741   1.648   4.079  12.114 -1.0079 -1.0790  0.9106
11776TIP3   OH256742   4.197   6.755   4.259  0.1441  0.2080 -0.0876
11776TIP3    H156743   4.154   6.701   4.194 -1.0353 -0.1511  0.9639
11776TIP3    H256744   4.248   6.694   4.312 -2.5985 -0.2601  2.2401
11777TIP3   OH256745   5.196   0.459  11.097 -0.1165  0.7053 -0.0758
11777TIP3    H156746   5.195   0.394  11.027  0.1868  1.2757 -0.6141
11777TIP3    H256747   5.257   0.526  11.068 -0.5057  1.2940  0.4207
11778TIP3   OH256748   2.029   2.732  11.017  0.7250  0.4699  0.0720
11778TIP3    H156749   2.093   2.663  11.030  0.9670  0.6297 -0.2528
11778TIP3    H256750   2.078   2.803  10.976  0.4997  0.8685  0.4846
11779TIP3   OH256751   2.364   4.601   4.961 -0.5622  0.1975 -1.0708
11779TIP3    H156752   2.324   4.661   5.024  0.5192 -0.3268  0.1533
11779TIP3    H256753   2.298   4.534   4.947  0.2918 -1.4886  2.0904
11780TIP3   OH256754   0.612   1.693   2.508 -0.5874 -0.4217 -0.4275
11780TIP3    H156755   0.645   1.602   2.511 -2.3759 -1.1362 -1.3566
11780TIP3    H256756   0.616   1.717   2.416 -1.2169  0.0204 -0.3438
11781TIP3   OH256757   5.002   4.615   0.552 -0.6415 -0.5132  0.3996
11781TIP3    H156758   5.096   4.621   0.535 -0.6651 -2.5170 -0.7106
11781TIP3    H256759   4.994   4.624   0.647  1.0315 -3.3837  0.9190
11782TIP3   OH256760   3.020   3.737  14.569 -0.2070  0.2146 -0.0497
11782TIP3    H156761   3.067   3.746  14.652  0.7063  0.8199 -0.6177
11782TIP3    H256762   3.071   3.673  14.520  0.1775  1.0530 -0.7680
11783TIP3   OH256763   6.096   1.115  11.628  0.3244  0.9468 -0.1686
11783TIP3    H156764   6.127   1.195  11.586  0.4191  2.4252  2.4846
11783TIP3    H256765   6.161   1.097  11.696 -1.4957  0.6901  1.6115
11784TIP3   OH256766   0.866   0.472   2.088 -0.6574 -0.1282 -0.1466
11784TIP3    H156767   0.791   0.517   2.048  0.4371  0.5429 -1.5472
11784TIP3    H256768   0.908   0.539   2.142  0.2678  0.2525 -1.2697
11785TIP3   OH256769   5.896   3.993  12.928 -0.4281 -0.3136  1.4230
11785TIP3    H156770   5.839   3.952  12.863 -0.5813  1.8302  0.1012
11785TIP3    H256771   5.851   3.982  13.011 -2.2048  0.2693  0.5790
11786TIP3   OH256772   0.168   4.302   3.606  0.0060 -0.2439  0.2703
11786TIP3    H156773   0.242   4.268   3.657 -1.2659 -4.2524 -0.2125
11786TIP3    H256774   0.183   4.271   3.517 -0.9460  1.2265 -0.4397
11787TIP3   OH256775   3.026   0.696  15.847 -0.4037 -0.1481 -0.3933
11787TIP3    H156776   2.959   0.673  15.912 -1.0644  1.5720 -0.4130
11787TIP3    H256777   2.977   0.714  15.767 -0.3795  3.7784  0.2457
11788TIP3   OH256778   3.421   2.998   4.418  0.3062 -0.2866 -0.2233
11788TIP3    H156779   3.406   3.058   4.345 -0.1475 -0.5860 -0.3825
11788TIP3    H256780   3.482   3.045   4.475 -0.1809  0.4037 -0.2541
11789TIP3   OH256781   1.684   6.587   0.673 -0.3445 -0.3337 -0.1354
11789TIP3    H156782   1.657   6.532   0.600 -2.9200  1.9801 -1.1223
11789TIP3    H256783   1.693   6.675   0.635 -0.7140  0.7613  2.1021
11790TIP3   OH256784   2.863   2.556   1.938  0.0371 -0.3064  0.5720
11790TIP3    H156785   2.937   2.557   1.878  0.9244  1.1414  1.6235
11790TIP3    H256786   2.808   2.628   1.908  0.2977  0.1827  1.2545
11791TIP3   OH256787   0.067   2.295   5.465 -0.6675 -0.0689  0.2579
11791TIP3    H156788   0.090   2.229   5.530  0.4532 -0.5855 -0.6325
11791TIP3    H256789  -0.017   2.330   5.495 -0.5825 -0.8840  1.5125
11792TIP3   OH256790   3.790   5.223   1.899 -0.5522  0.8912 -0.2467
11792TIP3    H156791   3.853   5.264   1.959 -0.0486 -0.9599  0.5717
11792TIP3    H256792   3.731   5.294   1.873  0.0730  2.0386  1.3293
11793TIP3   OH256793   6.748   5.646   1.646  0.0530 -0.2324 -0.5002
11793TIP3    H156794   6.684   5.590   1.690  1.8775 -2.6996 -0.7650
11793TIP3    H256795   6.781   5.703   1.715 -1.2116 -0.0831  0.0029
11794TIP3   OH256796   3.016   0.680   3.438  0.6477 -0.3024 -0.1202
11794TIP3    H156797   3.065   0.751   3.396  0.3027 -0.1616 -0.2987
11794TIP3    H256798   2.968   0.639   3.366  0.6992 -0.5953  0.0133
11795TIP3   OH256799   0.199   5.471   0.261  0.4240  0.0655 -0.1083
11795TIP3    H156800   0.195   5.431   0.348  0.7792 -0.3944 -0.2990
11795TIP3    H256801   0.279   5.436   0.222  0.2568  0.2523 -0.6267
11796TIP3   OH256802   5.834   0.897  13.185  0.1083 -0.0465 -0.2496
11796TIP3    H156803   5.803   0.808  13.168  1.0802 -0.0748 -2.1586
11796TIP3    H256804   5.911   0.886  13.242 -0.7428 -0.2751  0.8887
11797TIP3   OH256805   5.999   5.164   5.098 -0.1643 -0.3780 -0.4149
11797TIP3    H156806   6.013   5.238   5.039 -1.7890 -0.2447 -0.7030
11797TIP3    H256807   5.967   5.204   5.179  1.4962 -0.6056  0.3979
11798TIP3   OH256808   5.022   4.980  12.228 -0.8324  0.0014  0.2969
11798TIP3    H156809   4.941   4.939  12.258  0.2364 -0.7520  2.4314
11798TIP3    H256810   5.050   5.034  12.302 -0.9158  2.7264 -1.5343
11799TIP3   OH256811   4.024   1.540  11.647  0.5223  0.1882  0.0440
11799TIP3    H156812   3.993   1.509  11.562  2.4834  1.4318 -1.2048
11799TIP3    H256813   4.072   1.466  11.684 -1.1735 -0.6939  0.5806
11800TIP3   OH256814   6.280   3.118   2.598 -0.8776  0.1455  0.1609
11800TIP3    H156815   6.240   3.031   2.606 -0.5081 -0.1002 -0.5706
11800TIP3    H256816   6.326   3.115   2.514  0.9290  0.3033  1.0906
11801TIP3   OH256817   2.583   1.088   5.117 -0.1125  0.0176  0.2752
11801TIP3    H156818   2.566   1.019   5.052  0.4495 -0.2583  0.4213
11801TIP3    H256819   2.552   1.168   5.074  1.4047  0.0388 -0.8581
11802TIP3   OH256820   2.780   0.475   2.758  0.2472 -0.1603 -0.3022
11802TIP3    H156821   2.698   0.487   2.804  1.1517 -1.6232  1.8373
11802TIP3    H256822   2.838   0.543   2.792 -0.1215  1.1459 -2.1157
11803TIP3   OH256823   1.708   5.731   0.095 -0.0207  0.2483 -0.3460
11803TIP3    H156824   1.717   5.640   0.121  3.3521  0.8400  1.1326
11803TIP3    H256825   1.731   5.733   0.003 -0.4434 -0.4142 -0.4723
11804TIP3   OH256826   1.180   1.451  14.481 -0.2081  0.2251  0.3723
11804TIP3    H156827   1.136   1.523  14.435  1.1207  0.6406 -0.3451
11804TIP3    H256828   1.112   1.409  14.532 -1.4584  0.6957 -0.8323
11805TIP3   OH256829   1.502   4.906   4.517 -0.2603 -0.1379  0.1534
11805TIP3    H156830   1.546   4.823   4.534 -0.8884 -0.3709  0.6862
11805TIP3    H256831   1.570   4.972   4.527  0.1219 -0.5504  0.2697
11806TIP3   OH256832   6.064   1.452   2.641 -0.1725  0.8359 -0.5070
11806TIP3    H156833   5.978   1.410   2.651 -0.8089  1.9757 -1.0713
11806TIP3    H256834   6.051   1.541   2.674  1.2957  0.4763  1.1633
11807TIP3   OH256835   6.329   3.064  10.493  0.1702  0.1037 -0.1571
11807TIP3    H156836   6.328   3.145  10.545  2.5232 -0.1829  0.4794
11807TIP3    H256837   6.238   3.037  10.488 -0.8747  3.3497 -1.3271
11808TIP3   OH256838   0.681   5.948  16.879 -0.1806 -0.5479 -0.1259
11808TIP3    H156839   0.609   5.911  16.929 -0.1950  2.1647  2.0792
11808TIP3    H256840   0.756   5.945  16.939 -0.1463  2.5846  0.1779
11809TIP3   OH256841   6.388   1.793  13.243  0.2830 -0.2023  0.2425
11809TIP3    H156842   6.303   1.757  13.218  0.3966  0.4791 -1.2170
11809TIP3    H256843   6.452   1.738  13.198  0.5948 -0.3761  0.8933
11810TIP3   OH256844   2.051   2.676   1.934 -0.2100  1.0323 -0.2338
11810TIP3    H156845   2.140   2.642   1.941 -0.5444  0.2827  0.6565
11810TIP3    H256846   2.034   2.682   1.840 -0.3084 -1.7916 -0.4579
11811TIP3   OH256847   5.930   1.658   0.610 -0.3070 -1.2742 -0.2965
11811TIP3    H156848   5.998   1.707   0.655 -0.2596  2.3955 -3.7401
11811TIP3    H256849   5.925   1.574   0.656  2.0044  0.6729  4.0391
11812TIP3   OH256850   3.843   5.994  15.536  0.1679  0.3816  0.5460
11812TIP3    H156851   3.827   5.932  15.465  0.1224  0.3816  0.5556
11812TIP3    H256852   3.908   5.951  15.592  1.1977  0.9207 -0.1886
11813TIP3   OH256853   3.645   3.265   4.263 -0.1295 -0.3377  0.1212
11813TIP3    H156854   3.740   3.254   4.269 -0.0313  0.1866 -0.3167
11813TIP3    H256855   3.617   3.197   4.202  0.4303  1.4640 -2.3466
11814TIP3   OH256856   5.961   4.842  12.516 -0.2010 -0.2547  0.0675
11814TIP3    H156857   5.896   4.895  12.562 -1.6314 -0.6026 -1.4504
11814TIP3    H256858   5.920   4.756  12.507  1.2978 -1.0811  0.8086
11815TIP3   OH256859   2.664   0.572   4.872  0.1836 -0.0120 -0.0304
11815TIP3    H156860   2.733   0.524   4.916 -0.8871 -1.4583  0.1338
11815TIP3    H256861   2.622   0.623   4.941 -0.0949 -0.5780  0.2230
11816TIP3   OH256862   6.798   0.232   0.710  0.5297 -0.0513 -0.0012
11816TIP3    H156863   6.845   0.173   0.770  0.0933 -1.0795 -0.6300
11816TIP3    H256864   6.750   0.291   0.766  1.1146 -0.1885  0.6568
11817TIP3   OH256865   6.560   1.384  14.651 -0.5902 -0.2275 -0.2133
11817TIP3    H156866   6.510   1.307  14.623  0.3308 -1.4008  1.1751
11817TIP3    H256867   6.520   1.409  14.734 -1.4421  1.3932 -1.0630
11818TIP3   OH256868   6.777   4.267  12.624 -0.0254 -0.4897 -0.3515
11818TIP3    H156869   6.698   4.219  12.650 -1.3395  1.6312 -0.1276
11818TIP3    H256870   6.818   4.290  12.707  0.0063 -0.3288 -0.4119
11819TIP3   OH256871   5.146   5.050  16.672 -0.1793  0.2972  0.4484
11819TIP3    H156872   5.197   4.998  16.609  0.6894 -0.3829  1.6662
11819TIP3    H256873   5.057   5.049  16.637  0.4755  0.9083 -1.3618
11820TIP3   OH256874   0.159   5.141   0.025 -0.0709 -0.2512 -0.2991
11820TIP3    H156875   0.173   5.104  -0.062 -0.8584  1.4679 -1.1938
11820TIP3    H256876   0.247   5.153   0.060  0.2372 -2.0034 -0.3528
11821TIP3   OH256877   0.122   4.890   1.454 -0.3050 -0.7497 -0.0533
11821TIP3    H156878   0.112   4.971   1.404  2.6195 -0.5334 -0.4544
11821TIP3    H256879   0.045   4.838   1.430 -1.5238  1.3042 -0.8999
11822TIP3   OH256880   2.445   4.681  11.201  0.3552 -0.9127 -0.5502
11822TIP3    H156881   2.463   4.642  11.116  2.6066 -0.4768 -0.3428
11822TIP3    H256882   2.505   4.755  11.207 -1.8046  0.8849  0.2418
11823TIP3   OH256883   6.732   2.242   1.015  0.3203 -0.2052 -0.7323
11823TIP3    H156884   6.706   2.265   1.104 -0.5204 -2.3544 -0.3659
11823TIP3    H256885   6.787   2.315   0.987 -2.2643  2.2992  0.1883
11824TIP3   OH256886   0.101   1.626   4.238  0.3649 -0.6679  0.5485
11824TIP3    H156887   0.186   1.607   4.277  1.1838  1.8212  0.2140
11824TIP3    H256888   0.039   1.576   4.290  1.9222 -1.6507  1.5620
11825TIP3   OH256889   0.562   6.374  14.068  0.0192  0.1713  0.1519
11825TIP3    H156890   0.553   6.468  14.054  1.0169  0.5754  1.8497
11825TIP3    H256891   0.552   6.363  14.163  0.7445 -1.3135  0.0875
11826TIP3   OH256892   3.788   5.749   1.062 -0.2239 -0.0467  0.3478
11826TIP3    H156893   3.782   5.660   1.098  3.0647 -0.9733 -1.0377
11826TIP3    H256894   3.779   5.806   1.138 -1.3730 -1.5631  1.4254
11827TIP3   OH256895   6.337   6.433   2.712 -0.5884 -0.1594 -0.3338
11827TIP3    H156896   6.319   6.346   2.748 -0.5820 -0.0886 -0.1594
11827TIP3    H256897   6.350   6.488   2.789  0.7229 -0.2775 -0.4475
11828TIP3   OH256898   2.152   4.500  12.002 -0.2661  0.1057  0.8057
11828TIP3    H156899   2.138   4.595  12.004  0.3817  0.2124  0.3744
11828TIP3    H256900   2.167   4.476  12.094 -3.5007 -0.0721  1.4020
11829TIP3   OH256901   2.649   1.344  10.738 -0.0309  0.5348 -0.2408
11829TIP3    H156902   2.729   1.314  10.694  0.7990  1.8621  0.3168
11829TIP3    H256903   2.680   1.387  10.817 -1.3720  0.2830  0.4391
11830TIP3   OH256904   3.935   2.934   3.965  0.1058 -0.4680 -0.1974
11830TIP3    H156905   3.876   2.944   4.040 -0.3404 -0.5539 -0.5340
11830TIP3    H256906   4.021   2.915   4.004 -0.2017 -0.8965  0.2764
11831TIP3   OH256907   0.887   5.045   2.101 -0.0234  0.3138  0.0662
11831TIP3    H156908   0.852   5.023   2.188 -0.6585  1.2270  0.0534
11831TIP3    H256909   0.981   5.036   2.111 -0.1405 -0.3503  0.6385
11832TIP3   OH256910   1.945   6.815  12.838  0.1243 -0.1432  0.1560
11832TIP3    H156911   2.001   6.748  12.798  1.8017 -0.4255  2.7060
11832TIP3    H256912   1.982   6.827  12.926 -2.0041  1.9435  0.8665
11833TIP3   OH256913   1.786   1.953  15.261 -0.1921  0.7700  0.4088
11833TIP3    H156914   1.715   1.917  15.208  0.1435  0.0025  0.4743
11833TIP3    H256915   1.772   1.916  15.348  1.4419 -1.0473 -0.0343
11834TIP3   OH256916   2.016   0.109  14.694  0.3137 -0.8733  0.2250
11834TIP3    H156917   2.002   0.069  14.780 -2.9723 -1.3883 -0.4244
11834TIP3    H256918   1.995   0.201  14.706  1.2493 -0.6560  0.2541
11835TIP3   OH256919   1.685   3.634   2.600 -0.0818 -0.2568 -0.2271
11835TIP3    H156920   1.627   3.707   2.622 -0.2182 -0.7049  0.9881
11835TIP3    H256921   1.642   3.588   2.529 -0.8429 -0.1286  0.1434
11836TIP3   OH256922   5.202   5.832   2.948 -0.0434  0.2919  0.5030
11836TIP3    H156923   5.143   5.760   2.924  0.7442 -0.5131  0.8940
11836TIP3    H256924   5.283   5.788   2.975  0.5070  1.3418  0.6125
11837TIP3   OH256925   6.511   6.608  14.178  0.3822  0.0400  0.4966
11837TIP3    H156926   6.553   6.617  14.092 -0.0506  0.1737  0.2923
11837TIP3    H256927   6.423   6.577  14.158  0.5695 -0.8127  0.9566
11838TIP3   OH256928   3.865   3.370   3.535  0.0812 -0.1789 -0.8636
11838TIP3    H156929   3.934   3.425   3.572  0.6078 -0.6541 -1.1184
11838TIP3    H256930   3.784   3.419   3.550  0.5268  0.6034 -0.9804
11839TIP3   OH256931   1.226   4.212   1.583 -0.1108 -0.2730  0.1678
11839TIP3    H156932   1.218   4.146   1.652 -0.9021 -1.7213 -1.2520
11839TIP3    H256933   1.279   4.169   1.515 -2.6553 -0.4475 -1.8514
11840TIP3   OH256934   2.702   5.148  13.760  0.0688  0.4781 -0.8582
11840TIP3    H156935   2.694   5.085  13.688 -0.3310  0.4634 -0.8026
11840TIP3    H256936   2.615   5.149  13.800  0.8217 -1.1266  0.9681
11841TIP3   OH256937   2.817   4.546  11.643  0.5350 -0.4768  0.2349
11841TIP3    H156938   2.732   4.589  11.640  0.8291  0.0892 -0.0296
11841TIP3    H256939   2.880   4.617  11.653  0.9582 -0.9194  0.8254
11842TIP3   OH256940   4.501   2.242  15.408  0.1726  0.4393 -0.0276
11842TIP3    H156941   4.577   2.298  15.389  0.2692  1.0109  1.8219
11842TIP3    H256942   4.438   2.301  15.451 -1.0273 -0.1974 -0.8406
11843TIP3   OH256943   2.249   6.173   1.758  0.3312  0.2000  0.4476
11843TIP3    H156944   2.242   6.267   1.741  1.4468  0.4931  1.4843
11843TIP3    H256945   2.204   6.132   1.684  1.8823  1.4725 -1.2779
11844TIP3   OH256946   4.577   0.145   6.241  0.5559  0.0019  0.5135
11844TIP3    H156947   4.606   0.060   6.275  0.8707  0.2568  0.8789
11844TIP3    H256948   4.500   0.124   6.188 -0.2064 -0.3455  1.7279
11845TIP3   OH256949   3.826   5.930   0.678  0.5817 -0.1561 -0.0684
11845TIP3    H156950   3.866   5.870   0.740 -0.2393  0.3454  0.9880
11845TIP3    H256951   3.809   5.877   0.601  1.5484 -0.8183  0.1494
11846TIP3   OH256952   2.120   5.497  11.745  0.3779 -0.2081  0.6401
11846TIP3    H156953   2.147   5.554  11.817 -0.4892  2.7116 -1.1979
11846TIP3    H256954   2.202   5.460  11.712  1.0500  0.5429  1.4370
11847TIP3   OH256955   1.156   6.569   0.559 -0.3560  0.5092 -0.3135
11847TIP3    H156956   1.249   6.581   0.578 -0.4962  0.3742  0.5022
11847TIP3    H256957   1.142   6.615   0.476  0.2302  1.3824  0.0554
11848TIP3   OH256958   5.469   3.063   1.752  0.5167 -0.2992  0.4721
11848TIP3    H156959   5.519   3.130   1.798  1.0014  1.4763 -2.3624
11848TIP3    H256960   5.378   3.091   1.759  0.8157  1.5724 -1.8059
11849TIP3   OH256961   5.223   1.307   4.604 -0.2264  0.0827  0.0710
11849TIP3    H156962   5.205   1.285   4.696 -0.1563  1.8691  0.5600
11849TIP3    H256963   5.163   1.379   4.585  2.4684  2.5078  0.0450
11850TIP3   OH256964   0.079   4.580  12.620  0.1750 -0.1571 -0.5399
11850TIP3    H156965   0.121   4.494  12.624 -0.2188 -0.3439 -0.3873
11850TIP3    H256966  -0.014   4.561  12.619  0.0886  0.2611 -0.7713
11851TIP3   OH256967   0.872   3.484  16.538  0.0236 -0.2002  0.0528
11851TIP3    H156968   0.960   3.510  16.509  0.7160  0.5574  2.5665
11851TIP3    H256969   0.885   3.401  16.584 -1.0787 -1.5060 -1.8463
11852TIP3   OH256970   2.116   0.637   4.550 -0.3251  0.4690  0.1202
11852TIP3    H156971   2.170   0.589   4.486 -1.4501 -1.0166  0.2231
11852TIP3    H256972   2.090   0.717   4.504 -1.4907 -0.7805 -1.5167
11853TIP3   OH256973   5.197   4.050  12.988  0.1246 -0.0950 -0.0971
11853TIP3    H156974   5.242   4.128  12.957  1.1147 -0.3948  0.5672
11853TIP3    H256975   5.204   3.988  12.914 -1.4810  0.7296 -0.9910
11854TIP3   OH256976   4.948   6.022  15.054 -0.5057  0.3014  0.2910
11854TIP3    H156977   4.902   6.014  15.137  0.5275 -2.0599  0.7167
11854TIP3    H256978   5.036   6.052  15.078 -0.1782 -0.4647  0.0875
11855TIP3   OH256979   3.413   1.404  11.805  0.5015  0.4435 -0.1710
11855TIP3    H156980   3.328   1.379  11.768  0.6891  0.0095 -0.3149
11855TIP3    H256981   3.429   1.340  11.874  1.1954 -0.1237 -0.8452
11856TIP3   OH256982   5.515   4.098   0.512 -0.3353 -0.4329 -0.4932
11856TIP3    H156983   5.535   4.016   0.557  0.4911  0.5575  1.0323
11856TIP3    H256984   5.475   4.153   0.580  1.5084  1.3267 -0.7382
11857TIP3   OH256985   4.042   5.161   4.626 -0.6750 -0.0601  0.3063
11857TIP3    H156986   3.949   5.182   4.620 -0.9683 -0.9505  1.3490
11857TIP3    H256987   4.085   5.224   4.568 -1.7265  1.7902  1.4199
11858TIP3   OH256988   3.026   6.695  11.424 -0.4593 -0.5511 -0.2065
11858TIP3    H156989   3.102   6.636  11.427 -0.2945 -0.3703 -0.7921
11858TIP3    H256990   3.018   6.719  11.332 -1.0918 -0.3853 -0.1108
11859TIP3   OH256991   0.452   2.322   6.183  0.5725  0.4155 -0.1283
11859TIP3    H156992   0.473   2.350   6.272  2.1181  1.5175 -0.7881
11859TIP3    H256993   0.359   2.342   6.172  0.8140  2.1200  0.5990
11860TIP3   OH256994   1.761   2.974  10.991 -0.0851 -0.1621  0.0129
11860TIP3    H156995   1.759   2.913  10.918  2.6034 -0.1434 -0.1604
11860TIP3    H256996   1.810   2.928  11.060  0.9419  1.3079  0.3130
11861TIP3   OH256997   0.634   0.629  16.383 -0.4510  0.4569  0.2141
11861TIP3    H156998   0.552   0.634  16.334 -0.5753 -1.0557  0.2393
11861TIP3    H256999   0.609   0.640  16.474 -0.7832 -1.0583  0.3246
11862TIP3   OH257000   2.210   1.241   3.065 -0.3478 -0.8076  0.2147
11862TIP3    H157001   2.293   1.252   3.111  0.4347  1.4181 -1.5466
11862TIP3    H257002   2.166   1.325   3.075  0.6948  0.6065 -4.3850
11863TIP3   OH257003   3.867   2.989  10.904 -0.2275  0.1758 -0.2099
11863TIP3    H157004   3.807   3.001  10.978 -0.0322 -0.1155 -0.0000
11863TIP3    H257005   3.810   2.990  10.827 -0.6479 -1.1857  0.0548
11864TIP3   OH257006   4.331   3.144  14.024 -0.6662  0.2732 -0.3661
11864TIP3    H157007   4.426   3.145  14.023 -0.6522 -0.6454 -0.8173
11864TIP3    H257008   4.306   3.222  14.073  0.3315  0.1229  0.3963
11865TIP3   OH257009   4.188   6.644   5.068  0.0533 -0.5663  0.0141
11865TIP3    H157010   4.141   6.562   5.057 -0.5744 -0.2745  0.4265
11865TIP3    H257011   4.213   6.670   4.980 -3.0298  0.6686 -0.6199
11866TIP3   OH257012   1.208   3.466  12.901 -0.1012  0.3040  0.8015
11866TIP3    H157013   1.118   3.493  12.881  0.3816  2.0498  0.8556
11866TIP3    H257014   1.263   3.518  12.843  0.8462 -2.3755 -0.8882
11867TIP3   OH257015   4.143   3.145   4.898  0.1593 -0.3935 -0.1129
11867TIP3    H157016   4.193   3.073   4.859 -1.2119 -0.5039 -1.7614
11867TIP3    H257017   4.202   3.180   4.966  2.0085 -1.2055 -1.2048
11868TIP3   OH257018   4.931   0.985   4.283 -0.1688 -0.0273 -0.2372
11868TIP3    H157019   4.968   1.002   4.196  2.1363 -1.2726  0.3945
11868TIP3    H257020   4.994   1.025   4.344  1.0464 -3.3458  0.9577
11869TIP3   OH257021   4.242   1.994   6.133 -0.2782  0.4982  0.2316
11869TIP3    H157022   4.154   1.979   6.168 -1.2511 -1.1024 -2.5726
11869TIP3    H257023   4.300   1.945   6.192 -1.4425  0.2424  1.1962
11870TIP3   OH257024   3.872   3.414   5.098  0.1019  0.1197 -0.5140
11870TIP3    H157025   3.905   3.335   5.141  1.3121  0.9905  0.2446
11870TIP3    H257026   3.938   3.435   5.032  0.0185  0.7178 -0.4156
11871TIP3   OH257027   2.652   2.975  13.798 -0.4161  0.4451  0.2869
11871TIP3    H157028   2.635   2.937  13.712 -0.6055  0.6228  0.2463
11871TIP3    H257029   2.640   3.069  13.786  2.4315  0.8304 -0.2247
11872TIP3   OH257030   4.704   3.228   2.465  0.4990  0.1228 -0.2020
11872TIP3    H157031   4.641   3.258   2.399  0.8014  0.6432 -0.2675
11872TIP3    H257032   4.663   3.152   2.505  1.1227 -1.4517 -2.3517
11873TIP3   OH257033   2.492   3.265  15.964  0.0259  0.6572  0.1371
11873TIP3    H157034   2.584   3.242  15.973  0.1353 -0.1581 -2.2257
11873TIP3    H257035   2.445   3.205  16.022  0.9264  0.8283  1.0650
11874TIP3   OH257036   0.864   5.988   2.495  0.3448  0.4962  0.4077
11874TIP3    H157037   0.949   5.959   2.462  0.5154  0.5194  0.8281
11874TIP3    H257038   0.800   5.944   2.438  0.5509 -1.7857  1.8159
11875TIP3   OH257039   6.402   6.165  12.718 -0.1817  0.4392 -0.4305
11875TIP3    H157040   6.315   6.128  12.732  0.3983 -1.3267 -1.1303
11875TIP3    H257041   6.397   6.253  12.755 -1.4390 -0.5715  2.0936
11876TIP3   OH257042   1.516   5.395  14.814  0.0631  0.3773 -0.3286
11876TIP3    H157043   1.600   5.365  14.780  0.8591  0.0513  1.8053
11876TIP3    H257044   1.471   5.315  14.840 -0.0375  0.6725  0.4301
11877TIP3   OH257045   1.058   3.153  11.133  0.0439 -0.6083  0.2039
11877TIP3    H157046   1.016   3.150  11.219  0.5127 -0.4246  0.4468
11877TIP3    H257047   1.000   3.207  11.080 -0.6559 -1.3820  0.1684
11878TIP3   OH257048   1.602   1.219  12.793  0.0243 -0.4309  0.1934
11878TIP3    H157049   1.609   1.131  12.830 -3.1976 -0.9975 -0.2469
11878TIP3    H257050   1.661   1.273  12.846 -0.1034 -2.2941  2.3623
11879TIP3   OH257051   0.621   3.745  13.557  0.1812 -0.0628 -0.1688
11879TIP3    H157052   0.576   3.718  13.477  0.9657 -0.2029 -0.5718
11879TIP3    H257053   0.647   3.663  13.599 -0.5672  0.0009  0.4358
11880TIP3   OH257054   0.139   1.044   4.645  0.1613  0.0916  0.4505
11880TIP3    H157055   0.167   1.066   4.734 -1.4078 -0.7266  1.1955
11880TIP3    H257056   0.068   0.981   4.658  0.5529 -0.7893 -1.4268
11881TIP3   OH257057   4.820   4.313   3.463  0.1464  0.2123 -0.0679
11881TIP3    H157058   4.873   4.296   3.542  0.8854  1.7169 -0.1924
11881TIP3    H257059   4.738   4.348   3.497 -0.8051 -2.0668  0.1247
11882TIP3   OH257060   4.785   6.412   5.978 -0.2341  0.1040  0.0894
11882TIP3    H157061   4.814   6.424   5.888 -0.7879 -0.7475 -0.2114
11882TIP3    H257062   4.751   6.498   6.004 -2.0502 -0.1552 -1.2474
11883TIP3   OH257063   5.353   2.489   5.023 -0.0678  0.0693  0.2438
11883TIP3    H157064   5.273   2.506   5.072  0.7358  0.3254  1.5222
11883TIP3    H257065   5.406   2.568   5.034  0.8756 -0.5715  0.4770
11884TIP3   OH257066   6.646   2.724   1.416 -0.3240 -0.1201 -0.0706
11884TIP3    H157067   6.693   2.791   1.365 -0.5832 -0.0671 -0.2397
11884TIP3    H257068   6.648   2.646   1.360 -3.0104  0.6749 -1.4228
11885TIP3   OH257069   2.512   4.018   2.775  0.2286  0.6779  0.1084
11885TIP3    H157070   2.430   3.970   2.762  0.5114  0.5507 -1.3802
11885TIP3    H257071   2.527   4.063   2.692  0.8254  2.0418  0.9234
11886TIP3   OH257072   3.864   4.041   0.285 -0.1523 -0.4261  0.3169
11886TIP3    H157073   3.791   4.095   0.255  0.3585  0.4494  0.6072
11886TIP3    H257074   3.861   4.048   0.381  0.3804 -0.2723  0.3277
11887TIP3   OH257075   3.096   4.772   1.554  0.0529  0.4533  0.4009
11887TIP3    H157076   3.101   4.684   1.591  0.7488 -0.8061 -2.4086
11887TIP3    H257077   3.034   4.765   1.482  0.1194  2.2811  0.1105
11888TIP3   OH257078   4.055   2.449  11.233  0.4604 -0.1978  0.4171
11888TIP3    H157079   3.995   2.510  11.191  0.1661 -1.7638 -1.5445
11888TIP3    H257080   4.000   2.376  11.261  0.8918  0.1242  2.2863
11889TIP3   OH257081   1.259   4.467  16.207 -0.1721 -0.2953  0.6742
11889TIP3    H157082   1.294   4.415  16.280  1.9791 -0.2528 -0.2450
11889TIP3    H257083   1.261   4.557  16.239 -1.9497 -0.5187  1.5319
11890TIP3   OH257084   3.589   6.376   1.682  0.3681  0.2997  0.0745
11890TIP3    H157085   3.502   6.350   1.710  1.1702 -0.3036  2.2341
11890TIP3    H257086   3.575   6.435   1.608 -1.7914 -0.8351 -0.4867
11891TIP3   OH257087   1.125   0.384   3.142  0.4421  0.2830  0.3779
11891TIP3    H157088   1.090   0.298   3.166 -0.6313  0.5075 -0.2920
11891TIP3    H257089   1.074   0.410   3.065  0.5575  1.6500  0.7314
11892TIP3   OH257090   3.686   5.427  10.914  0.0607  0.1381 -0.0357
11892TIP3    H157091   3.657   5.424  10.823 -0.3612 -0.8905  0.1175
11892TIP3    H257092   3.629   5.491  10.956  0.5713  0.9715 -0.5931
11893TIP3   OH257093   4.644   2.094   2.391 -0.0331 -0.2748  0.6655
11893TIP3    H157094   4.554   2.126   2.396  0.1430  0.0895  1.8053
11893TIP3    H257095   4.646   2.019   2.450  0.2620 -0.6854  0.1438
11894TIP3   OH257096   1.772   2.721   0.484  0.1614 -0.5650 -0.1648
11894TIP3    H157097   1.742   2.656   0.420  2.1829 -1.8243  0.0569
11894TIP3    H257098   1.823   2.783   0.433  0.5997 -0.7777  0.0076
11895TIP3   OH257099   6.611   6.811   5.305  0.0269 -0.0923  0.0577
11895TIP3    H157100   6.548   6.845   5.241  0.9224 -1.7725 -1.8404
11895TIP3    H257101   6.569   6.734   5.342 -0.7094  1.1685  2.0083
11896TIP3   OH257102   6.751   0.126   6.582 -0.1835 -0.2137  0.9701
11896TIP3    H157103   6.712   0.203   6.543 -2.8269 -1.0116  1.8638
11896TIP3    H257104   6.706   0.052   6.541  2.3614 -1.3885  0.0305
11897TIP3   OH257105   5.211   4.383  16.075 -0.0096 -0.5693  0.5469
11897TIP3    H157106   5.249   4.320  16.136 -0.6039 -0.9068  0.5833
11897TIP3    H257107   5.286   4.427  16.035  0.4073  0.8513  2.7322
11898TIP3   OH257108   5.102   4.872  15.763 -0.4602 -0.5584 -0.0102
11898TIP3    H157109   5.139   4.838  15.681 -0.6712 -2.6698  0.6958
11898TIP3    H257110   5.100   4.967  15.751 -3.3300 -0.8553 -3.6588
11899TIP3   OH257111   4.812   5.656  11.878 -0.0657  0.0976 -0.4893
11899TIP3    H157112   4.866   5.605  11.817  0.1992  0.9288 -0.9659
11899TIP3    H257113   4.774   5.726  11.824  1.1437  1.5997  0.5142
11900TIP3   OH257114   4.759   4.512  13.298  0.6538 -0.5160  0.5286
11900TIP3    H157115   4.764   4.425  13.258 -0.9227 -0.2944 -0.2314
11900TIP3    H257116   4.742   4.495  13.390  2.3086 -1.0191  0.7559
11901TIP3   OH257117   2.700   5.649   1.553 -0.1814 -0.0107  0.2803
11901TIP3    H157118   2.677   5.621   1.465  0.6388 -2.1288  0.6981
11901TIP3    H257119   2.769   5.714   1.540 -0.2051 -0.1565 -0.6256
11902TIP3   OH257120   2.727   0.642   0.765 -0.5507 -0.3779 -0.1341
11902TIP3    H157121   2.667   0.701   0.721  1.2433  0.8793 -0.9906
11902TIP3    H257122   2.692   0.554   0.746 -2.4387  0.3164 -0.0495
11903TIP3   OH257123   1.031   1.905   4.199 -0.1660 -0.4460  0.1534
11903TIP3    H157124   0.970   1.921   4.271 -1.0745  0.1796 -0.7281
11903TIP3    H257125   1.078   1.988   4.189 -1.5291  0.1976 -1.3169
11904TIP3   OH257126   5.184   1.262   0.667  0.0666 -0.0143 -0.1083
11904TIP3    H157127   5.146   1.274   0.581  1.6040  0.9858 -0.6952
11904TIP3    H257128   5.170   1.169   0.688 -2.6935  0.3117 -0.2084
11905TIP3   OH257129   6.734   0.250   1.012 -0.2762 -0.1971  0.4358
11905TIP3    H157130   6.755   0.181   1.076 -0.5013 -1.2604 -0.6104
11905TIP3    H257131   6.809   0.310   1.017  0.9664 -1.6347 -0.1218
11906TIP3   OH257132   4.189   0.912  13.943  0.4812  0.3688 -0.2781
11906TIP3    H157133   4.151   0.998  13.925 -0.6774 -0.3157 -1.2311
11906TIP3    H257134   4.138   0.852  13.890  0.0846 -1.1515  1.7273
11907TIP3   OH257135   3.704   6.435  14.902  0.4158  0.1730  0.4822
11907TIP3    H157136   3.639   6.383  14.856 -0.5468  0.8361  1.0444
11907TIP3    H257137   3.779   6.439  14.843 -0.1624 -0.3734 -0.3002
11908TIP3   OH257138   2.205   0.260   4.490 -0.5846 -0.5772  0.0276
11908TIP3    H157139   2.204   0.346   4.449 -0.4302  0.1755  1.5116
11908TIP3    H257140   2.169   0.201   4.424  0.2030  0.4502 -1.3670
11909TIP3   OH257141   4.246   0.986   2.525  0.0584  0.6590  0.1996
11909TIP3    H157142   4.202   0.993   2.440 -0.5777  1.1414  0.5546
11909TIP3    H257143   4.299   1.066   2.532 -1.3246  1.5477  1.0255
11910TIP3   OH257144   3.323   3.027  16.855  0.2370 -0.1198  0.1799
11910TIP3    H157145   3.376   3.102  16.830 -0.0661 -0.1533 -0.5653
11910TIP3    H257146   3.325   3.028  16.951  0.3492  0.7510  0.1777
11911TIP3   OH257147   1.101   1.343   2.716 -0.4232 -0.2233 -0.1303
11911TIP3    H157148   1.073   1.429   2.683 -0.3768  0.1107  0.6687
11911TIP3    H257149   1.192   1.336   2.690  0.0640  0.7175  1.2386
11912TIP3   OH257150   3.150   5.502  15.372 -0.0370 -0.7735 -0.2054
11912TIP3    H157151   3.108   5.505  15.286  0.4042 -1.9334 -0.4926
11912TIP3    H257152   3.122   5.418  15.409 -2.7081  0.9366  2.1468
11913TIP3   OH257153   2.392   6.199   0.734  0.3295  0.2750  0.1236
11913TIP3    H157154   2.386   6.140   0.809 -1.5258  0.2433 -0.0200
11913TIP3    H257155   2.346   6.278   0.761 -0.8415  0.0603 -1.1456
11914TIP3   OH257156   1.696   3.251   5.199  0.1006 -0.3931  0.3880
11914TIP3    H157157   1.703   3.181   5.263 -1.4151 -0.6235  0.3343
11914TIP3    H257158   1.691   3.331   5.251  0.8410 -0.4050  0.4820
11915TIP3   OH257159   5.198   2.247  10.446  0.1370 -0.6027  0.3053
11915TIP3    H157160   5.229   2.173  10.499 -1.5957 -1.1539  0.6191
11915TIP3    H257161   5.244   2.238  10.363  1.6009 -0.7393  1.0926
11916TIP3   OH257162   1.693   6.735  11.270 -0.1724 -0.0033 -0.1336
11916TIP3    H157163   1.598   6.744  11.279 -0.2452  0.6094 -1.2564
11916TIP3    H257164   1.705   6.662  11.209  0.1671 -1.5586  1.7225
11917TIP3   OH257165   4.573   5.357  16.816 -0.1774 -0.5617 -0.1108
11917TIP3    H157166   4.494   5.362  16.761 -1.2251 -0.4792  1.3434
11917TIP3    H257167   4.539   5.347  16.905  1.4797 -0.9193  0.5096
11918TIP3   OH257168   3.756   2.866   2.614  0.0531  0.5774 -0.1617
11918TIP3    H157169   3.732   2.957   2.631  0.5799  0.6384  0.2926
11918TIP3    H257170   3.851   2.864   2.621  0.0432 -0.0253 -0.0812
11919TIP3   OH257171   6.177   4.253   3.665 -0.0435  0.4903  0.7464
11919TIP3    H157172   6.248   4.259   3.728  0.2601  0.8344  0.3772
11919TIP3    H257173   6.128   4.175   3.691  0.4116  0.3048  1.0574
11920TIP3   OH257174   4.835   2.721  13.042  0.4747  0.0810  0.3619
11920TIP3    H157175   4.854   2.731  12.949  2.6579  1.9169  0.8951
11920TIP3    H257176   4.898   2.655  13.072  0.8183  0.5970  0.7922
11921TIP3   OH257177   2.867   3.275  16.458  0.0834  0.0907  0.4226
11921TIP3    H157178   2.834   3.338  16.393  0.7721  0.2706  0.2392
11921TIP3    H257179   2.833   3.190  16.429 -0.2810  0.2820  0.2829
11922TIP3   OH257180   1.950   3.699  13.534 -0.0038 -1.3651  0.6474
11922TIP3    H157181   2.016   3.639  13.499  1.6857  0.7763 -0.0967
11922TIP3    H257182   1.927   3.755  13.460 -1.4562 -1.0298  1.3199
11923TIP3   OH257183   0.383   5.971   4.993 -0.5352 -0.5527 -0.0769
11923TIP3    H157184   0.303   5.958   5.044  0.1520  0.5077  1.3406
11923TIP3    H257185   0.453   5.939   5.050  0.1236 -0.8109 -1.0105
11924TIP3   OH257186   4.341   4.084   2.718  0.1121 -0.2317 -0.8401
11924TIP3    H157187   4.378   4.010   2.669 -0.3906 -1.2630  0.2750
11924TIP3    H257188   4.413   4.113   2.774  0.3792  0.2876 -1.4411
11925TIP3   OH257189   4.600   4.935   3.064 -0.4249  0.3728 -0.0687
11925TIP3    H157190   4.575   4.851   3.105 -0.4801  0.0651 -0.7228
11925TIP3    H257191   4.680   4.960   3.109 -0.3215 -0.1138  0.0292
11926TIP3   OH257192   1.017   3.588  12.370 -0.2334 -0.6050  0.0082
11926TIP3    H157193   1.043   3.546  12.451 -0.4971  0.3328  0.5958
11926TIP3    H257194   1.010   3.681  12.392  0.7858 -0.1616 -1.3461
11927TIP3   OH257195   1.161   5.776  13.157 -0.8484  0.1373  0.0954
11927TIP3    H157196   1.126   5.833  13.088 -3.0092 -1.5210 -0.2999
11927TIP3    H257197   1.166   5.832  13.234  2.0229  2.1489 -1.4091
11928TIP3   OH257198   1.401   3.325  16.455  0.2449  0.5509 -0.4971
11928TIP3    H157199   1.428   3.408  16.417  0.1720  0.6072 -0.4258
11928TIP3    H257200   1.350   3.282  16.386  2.1509 -0.4318 -1.3717
11929TIP3   OH257201   3.624   2.006   3.918 -0.0505 -0.0062  0.1140
11929TIP3    H157202   3.629   1.912   3.903 -0.7911 -0.1331  0.6424
11929TIP3    H257203   3.714   2.037   3.906  0.1753 -0.7614 -0.1595
11930TIP3   OH257204   3.819   2.443  12.987  0.1683  0.0246 -0.8451
11930TIP3    H157205   3.752   2.468  13.051 -0.4069  0.8932 -1.7593
11930TIP3    H257206   3.825   2.348  12.995 -0.6579  0.0103 -0.2526
11931TIP3   OH257207   0.415   1.077   2.211 -0.1500  0.4641  0.0096
11931TIP3    H157208   0.400   1.172   2.214 -1.3961  0.4029 -2.2223
11931TIP3    H257209   0.410   1.055   2.118 -0.4008 -1.8964  0.5242
11932TIP3   OH257210   6.159   5.259  16.120 -0.2495  0.0475  0.7358
11932TIP3    H157211   6.229   5.224  16.174 -0.7442 -1.8618  0.2111
11932TIP3    H257212   6.122   5.182  16.076 -0.7052  1.3727 -1.3183
11933TIP3   OH257213   5.589   3.447   4.533 -0.6208 -0.3442 -0.0782
11933TIP3    H157214   5.682   3.425   4.545 -0.8877 -0.9709  0.9937
11933TIP3    H257215   5.584   3.481   4.444  0.5555 -0.7645 -0.3277
11934TIP3   OH257216   0.052   5.358  12.222 -0.2943  0.2661 -0.2557
11934TIP3    H157217   0.125   5.416  12.245 -0.9692  0.8578  0.4503
11934TIP3    H257218   0.093   5.275  12.198  0.7006  1.0614 -1.3958
11935TIP3   OH257219   2.617   0.665  16.161 -0.3624  0.2293 -0.6834
11935TIP3    H157220   2.546   0.601  16.162 -1.1717  1.0946  0.9876
11935TIP3    H257221   2.576   0.746  16.132 -0.6252  1.2663  2.3154
11936TIP3   OH257222   5.228   4.827  14.552 -0.1598  0.0535  0.0918
11936TIP3    H157223   5.252   4.916  14.577 -0.2621  0.6109 -1.6682
11936TIP3    H257224   5.308   4.791  14.512 -0.6761  0.0441 -0.9499
11937TIP3   OH257225   0.237   4.326  13.600  0.0911 -0.4636  0.7794
11937TIP3    H157226   0.246   4.233  13.623 -1.7946 -1.1049 -0.7778
11937TIP3    H257227   0.303   4.340  13.532  2.0826  0.0619  2.7134
11938TIP3   OH257228   6.753   2.191  14.123 -0.0878 -0.3414  0.2655
11938TIP3    H157229   6.663   2.172  14.147 -0.6831 -1.0948 -2.2178
11938TIP3    H257230   6.804   2.121  14.165 -1.1410 -2.0360 -1.1253
11939TIP3   OH257231   0.396   1.180  13.753  0.3528 -0.6852 -0.3669
11939TIP3    H157232   0.312   1.223  13.734  1.3282  2.1132  1.1263
11939TIP3    H257233   0.375   1.115  13.820 -0.4113  1.3557  1.4970
11940TIP3   OH257234   5.642   5.190  11.619 -0.3298  0.8292 -0.6294
11940TIP3    H157235   5.709   5.245  11.659  1.3909 -1.6664  0.2010
11940TIP3    H257236   5.570   5.190  11.681  0.2956  0.8820  0.1030
11941TIP3   OH257237   0.565   0.537  11.256  0.3423 -0.1559  0.4203
11941TIP3    H157238   0.481   0.552  11.298  0.2232  1.0024 -0.2131
11941TIP3    H257239   0.574   0.442  11.253 -1.0569 -0.2939  0.2620
11942TIP3   OH257240   2.947   5.824   0.141 -0.5338 -0.4757  0.3200
11942TIP3    H157241   3.008   5.758   0.175 -2.8283 -2.8310  0.1435
11942TIP3    H257242   2.888   5.842   0.214  0.2799  1.8127  0.5021
11943TIP3   OH257243   0.415   4.278   5.554 -0.2437  0.1812 -0.5636
11943TIP3    H157244   0.454   4.279   5.466  1.4558 -1.3548  0.1161
11943TIP3    H257245   0.391   4.370   5.570  0.7776  0.7481 -2.0377
11944TIP3   OH257246   4.739   5.930   3.799 -0.8889 -0.5773 -0.3885
11944TIP3    H157247   4.803   5.934   3.870 -0.9186 -0.0068 -0.3895
11944TIP3    H257248   4.786   5.968   3.724 -1.2469 -0.0836 -0.3699
11945TIP3   OH257249   0.925   6.704   3.858 -0.0623 -0.4767  0.2097
11945TIP3    H157250   0.850   6.749   3.819  0.4797  1.1177  0.8944
11945TIP3    H257251   0.992   6.772   3.866  0.6046 -1.2516  1.8693
11946TIP3   OH257252   6.391   1.106   4.569  0.3403 -0.2192 -0.7897
11946TIP3    H157253   6.477   1.145   4.553  0.6031 -1.0324 -1.4430
11946TIP3    H257254   6.330   1.179   4.566  1.0709  0.4720  0.3639
11947TIP3   OH257255   6.657   1.503   0.639  0.0679  0.2701  0.7630
11947TIP3    H157256   6.689   1.424   0.683  0.3331 -0.3888 -0.5451
11947TIP3    H257257   6.572   1.477   0.603  0.1802  0.5542  0.2849
11948TIP3   OH257258   6.659   3.665  14.975 -0.1478 -0.3539  0.4100
11948TIP3    H157259   6.746   3.633  14.998 -0.0704 -2.3638 -2.1459
11948TIP3    H257260   6.600   3.595  15.002 -0.6274 -0.2330 -0.2874
11949TIP3   OH257261   4.861   1.387  12.618 -0.1168 -0.6648 -0.0374
11949TIP3    H157262   4.774   1.351  12.634 -1.6694  1.7468 -2.4791
11949TIP3    H257263   4.862   1.470  12.666  0.0772  0.2550 -1.5936
11950TIP3   OH257264   6.089   0.795   1.389 -0.3341 -0.0062  0.0921
11950TIP3    H157265   6.083   0.760   1.478 -1.5881  0.7676  0.3267
11950TIP3    H257266   6.093   0.717   1.333  0.8211 -0.5006  0.8172
11951TIP3   OH257267   4.751   0.987  16.639  0.4665 -0.5395  0.3801
11951TIP3    H157268   4.794   1.070  16.619  0.5284 -0.4300  0.9614
11951TIP3    H257269   4.743   0.943  16.554 -0.5451  0.5177 -0.0811
11952TIP3   OH257270   2.156   5.637  13.887  0.3245  0.1661  0.2498
11952TIP3    H157271   2.132   5.614  13.976 -1.0014  2.0499  0.4386
11952TIP3    H257272   2.077   5.676  13.850  1.3265  0.9335 -1.2119
11953TIP3   OH257273   4.397   1.142   5.946 -0.1537 -0.4366 -0.4673
11953TIP3    H157274   4.453   1.219   5.954  2.1144 -1.7799 -2.0357
11953TIP3    H257275   4.308   1.176   5.952  0.7599  2.2134 -0.6219
11954TIP3   OH257276   4.389   2.113   4.577 -0.8956 -0.6467 -0.0907
11954TIP3    H157277   4.362   2.204   4.588  1.0900 -0.2467  2.2205
11954TIP3    H257278   4.327   2.063   4.631 -1.5619 -0.6030 -0.8067
11955TIP3   OH257279   4.232   3.748   5.293 -0.9494 -0.1359 -0.6456
11955TIP3    H157280   4.274   3.679   5.242 -0.1058 -0.5728  0.5833
11955TIP3    H257281   4.152   3.707   5.328 -0.5127 -0.4787 -0.0183
11956TIP3   OH257282   0.803   6.791   4.133 -0.2957  0.3097 -0.2069
11956TIP3    H157283   0.882   6.782   4.186 -2.2859 -1.3335  2.7998
11956TIP3    H257284   0.782   6.701   4.106 -1.8379  0.5019  0.2369
11957TIP3   OH257285   4.154   0.290  15.526  0.2620  0.3759  0.5487
11957TIP3    H157286   4.136   0.319  15.437  1.5584  0.2191  0.2235
11957TIP3    H257287   4.229   0.231  15.518 -0.2512 -0.4631  1.6174
11958TIP3   OH257288   5.829   2.276   3.497  0.4926 -0.0505 -0.3899
11958TIP3    H157289   5.874   2.312   3.421  0.3099 -2.4238 -1.6971
11958TIP3    H257290   5.892   2.285   3.569  1.2997  0.7209 -1.1701
11959TIP3   OH257291   0.602   3.298  10.613 -0.2373  0.4582 -0.0056
11959TIP3    H157292   0.558   3.262  10.690 -0.0445  0.3004  0.0297
11959TIP3    H257293   0.561   3.383  10.600 -1.6064 -0.2726 -0.8334
11960TIP3   OH257294   4.614   0.036   3.833 -0.2054  0.0991 -0.4157
11960TIP3    H157295   4.653   0.080   3.758 -1.0534  3.0480  0.7186
11960TIP3    H257296   4.559   0.102   3.874 -1.5461 -2.0555  1.5569
11961TIP3   OH257297   5.428   5.474  10.952 -0.6952  0.7863  0.3865
11961TIP3    H157298   5.477   5.487  10.871 -0.6283 -0.4463  0.2041
11961TIP3    H257299   5.337   5.493  10.929 -0.6506  0.6066  0.0664
11962TIP3   OH257300   3.208   1.408  13.839 -0.3009  0.0662  0.3266
11962TIP3    H157301   3.254   1.324  13.842 -1.9856 -0.9883 -1.5740
11962TIP3    H257302   3.141   1.400  13.907 -1.0686 -0.5175 -0.4920
11963TIP3   OH257303   5.256   3.910  14.529  0.0735 -0.3138 -0.0117
11963TIP3    H157304   5.176   3.885  14.576 -1.5114  0.6651 -2.0525
11963TIP3    H257305   5.250   4.005  14.519  1.5657 -0.2084 -0.0984
11964TIP3   OH257306   1.879   2.298   3.221  0.1123  0.1349 -0.1603
11964TIP3    H157307   1.940   2.356   3.267 -0.2962 -0.4637  1.2053
11964TIP3    H257308   1.875   2.332   3.132  0.7945  1.4703  0.2933
11965TIP3   OH257309   5.670   2.456   0.326  0.1480  0.6384 -0.4028
11965TIP3    H157310   5.763   2.477   0.323  0.2392  0.3269  0.1487
11965TIP3    H257311   5.655   2.406   0.245  0.4492  0.7239 -0.5149
11966TIP3   OH257312   3.294   2.786   0.384  0.0530  0.1764  0.1851
11966TIP3    H157313   3.207   2.789   0.423  1.1939 -1.6106  3.2302
11966TIP3    H257314   3.335   2.868   0.410 -0.3825  0.6390 -0.5293
11967TIP3   OH257315   3.980   0.345   2.615 -0.4555  0.9419 -0.1477
11967TIP3    H157316   3.986   0.396   2.696  2.5651  1.4392 -0.5941
11967TIP3    H257317   3.987   0.254   2.643 -1.5327  0.9669  0.2729
11968TIP3   OH257318   2.808   2.396   3.444  0.0350  0.3131  0.5869
11968TIP3    H157319   2.721   2.432   3.428 -0.3812 -0.2516  1.5031
11968TIP3    H257320   2.793   2.322   3.503  1.2990  1.2406  2.1523
11969TIP3   OH257321   2.362   3.384   0.127  0.1643  0.3702  0.7814
11969TIP3    H157322   2.375   3.304   0.076 -1.2979  0.5597  0.0615
11969TIP3    H257323   2.376   3.357   0.218 -0.4570 -0.7448  0.5649
11970TIP3   OH257324   2.290   1.487  11.434  0.0290 -0.3419 -0.1041
11970TIP3    H157325   2.373   1.443  11.452 -0.1926 -0.6200  0.2783
11970TIP3    H257326   2.302   1.529  11.349  1.5798  2.1603  1.2574
11971TIP3   OH257327   6.416   3.306   1.127  0.1110 -0.4018 -0.0759
11971TIP3    H157328   6.454   3.313   1.039  0.8466 -0.2389  0.2477
11971TIP3    H257329   6.480   3.256   1.177 -1.6318 -3.1620 -0.3826
11972TIP3   OH257330   5.499   4.735   3.940  0.1884 -0.0569  0.0704
11972TIP3    H157331   5.513   4.757   4.032 -1.3173 -1.8060  0.7784
11972TIP3    H257332   5.549   4.655   3.927 -2.3678 -1.8117  0.4172
11973TIP3   OH257333   6.000   4.984  16.040 -0.1955  0.2810 -0.4709
11973TIP3    H157334   6.064   4.993  15.970  0.7676  0.0395  0.3459
11973TIP3    H257335   5.990   4.889  16.051 -0.5081  0.3175 -0.4312
11974TIP3   OH257336   4.517   2.580   2.378  0.4581 -0.7330 -0.2431
11974TIP3    H157337   4.513   2.610   2.287 -0.2981 -1.8191 -0.6048
11974TIP3    H257338   4.556   2.492   2.372 -1.3923 -1.6475  0.2016
11975TIP3   OH257339   4.402   3.459   3.885  0.1482  0.0011 -0.1242
11975TIP3    H157340   4.313   3.423   3.880  0.5900 -1.1550 -0.0733
11975TIP3    H257341   4.418   3.494   3.797 -0.8297  1.4533  0.2415
11976TIP3   OH257342   0.029   6.323   3.734 -0.5866  0.2066 -0.4052
11976TIP3    H157343  -0.065   6.306   3.731 -0.6247  0.4096 -0.4000
11976TIP3    H257344   0.044   6.384   3.661 -0.2835 -0.6545 -1.0746
11977TIP3   OH257345   1.833   1.086  13.442 -0.2300 -0.0965  0.3590
11977TIP3    H157346   1.769   1.016  13.455  0.6536 -0.7587  1.3682
11977TIP3    H257347   1.819   1.144  13.517  1.8167 -1.4592  1.9035
11978TIP3   OH257348   4.722   5.266  11.147  0.2128  0.0797 -0.6727
11978TIP3    H157349   4.798   5.325  11.145  0.0994  0.2036 -1.4785
11978TIP3    H257350   4.747   5.192  11.091  1.1271 -1.6307  1.8188
11979TIP3   OH257351   1.877   0.818  15.602 -0.0641  0.1311  0.0553
11979TIP3    H157352   1.883   0.909  15.575  0.8629  0.0213 -0.1464
11979TIP3    H257353   1.953   0.805  15.659 -1.1686 -0.0350  1.5698
11980TIP3   OH257354   3.684   0.657   5.364  0.1565 -0.3684 -0.6853
11980TIP3    H157355   3.626   0.684   5.292 -1.8149 -0.0552  0.9384
11980TIP3    H257356   3.767   0.702   5.346 -0.9648  1.4424 -1.5957
11981TIP3   OH257357   1.142   6.428   4.231  0.8873  0.2188  0.0585
11981TIP3    H157358   1.100   6.502   4.275 -0.9685 -0.5750 -0.2697
11981TIP3    H257359   1.173   6.373   4.303  1.7633  1.0202  0.3075
11982TIP3   OH257360   4.267   0.361  12.692 -0.0053  0.6433 -0.1071
11982TIP3    H157361   4.208   0.431  12.722 -0.3524  0.9073 -1.3310
11982TIP3    H257362   4.334   0.407  12.642 -0.1832  0.1125 -0.8428
11983TIP3   OH257363   4.559   5.232   6.931 -0.3695 -0.3340 -0.1953
11983TIP3    H157364   4.481   5.218   6.878  0.9143 -1.0584 -2.0149
11983TIP3    H257365   4.586   5.144   6.958  0.4168 -0.2092 -0.5340
11984TIP3   OH257366   1.884   3.690   1.580  0.2190  0.1647 -0.2065
11984TIP3    H157367   1.887   3.598   1.603  0.4549 -0.0834 -1.1854
11984TIP3    H257368   1.970   3.708   1.541 -0.8448 -0.0251 -2.9044
11985TIP3   OH257369   2.278   0.460   3.382  0.7227  0.2976 -0.5590
11985TIP3    H157370   2.320   0.480   3.299  0.9440  1.0855 -0.2632
11985TIP3    H257371   2.292   0.538   3.436 -2.1182  1.1239 -0.8439
11986TIP3   OH257372   3.479   3.099  11.370 -0.6884 -0.5047  0.1335
11986TIP3    H157373   3.541   3.086  11.442  0.5124  0.7983 -0.6222
11986TIP3    H257374   3.490   3.022  11.315 -0.7152 -0.9153  0.6908
11987TIP3   OH257375   5.548   2.059   0.091  0.1202  0.0076  0.1137
11987TIP3    H157376   5.464   2.097   0.115  0.5472  0.0491  1.6436
11987TIP3    H257377   5.553   1.978   0.141  0.4159 -0.6998 -1.0186
11988TIP3   OH257378   3.132   2.776  10.446 -0.6484  0.1746 -0.1385
11988TIP3    H157379   3.097   2.743  10.363 -2.2201  2.0549 -0.2935
11988TIP3    H257380   3.063   2.757  10.509 -0.2418  0.4035  0.3731
11989TIP3   OH257381   2.128   6.339  11.265  0.3565 -0.2765 -0.3229
11989TIP3    H157382   2.194   6.393  11.222  0.9057 -0.4221  0.3296
11989TIP3    H257383   2.053   6.343  11.206  0.3262  1.3226 -0.2303
11990TIP3   OH257384   5.593   6.236   6.090 -0.2828  0.3024 -0.6343
11990TIP3    H157385   5.643   6.201   6.017 -0.8225 -0.6183 -0.5825
11990TIP3    H257386   5.522   6.285   6.049 -0.8847 -0.6422 -0.7568
11991TIP3   OH257387   5.545   6.032   0.266  0.0937  0.1430  0.2764
11991TIP3    H157388   5.557   6.123   0.239  0.6302 -0.1581 -0.5395
11991TIP3    H257389   5.629   5.990   0.248 -1.2635 -1.4525 -3.3306
11992TIP3   OH257390   2.010   6.799  14.923  0.2569  0.0800 -0.7441
11992TIP3    H157391   2.071   6.794  14.997  1.0070 -0.5756 -1.3924
11992TIP3    H257392   1.996   6.708  14.897  0.0781  0.3104 -1.4767
11993TIP3   OH257393   1.123   0.219   5.488 -0.1786  0.3238 -0.5287
11993TIP3    H157394   1.057   0.284   5.511 -1.5615 -0.8538 -0.9444
11993TIP3    H257395   1.112   0.206   5.394  0.9283  0.3814 -0.6804
11994TIP3   OH257396   2.203   4.317  11.278 -0.0739  0.1384  0.3704
11994TIP3    H157397   2.139   4.275  11.335 -0.3870  1.1572  0.8040
11994TIP3    H257398   2.215   4.256  11.205  0.4210 -1.2386  1.5615
11995TIP3   OH257399   5.912   1.546   1.749  0.5506 -0.1318 -0.3796
11995TIP3    H157400   5.861   1.622   1.775 -1.3214 -0.8763 -1.6825
11995TIP3    H257401   5.867   1.471   1.789  1.3824 -0.7140 -0.4906
11996TIP3   OH257402   0.671   4.616   1.370 -0.4850  0.4377  0.2321
11996TIP3    H157403   0.589   4.665   1.375 -1.7030 -1.1909 -1.8340
11996TIP3    H257404   0.718   4.657   1.297 -0.5424 -0.1160 -0.1171
11997TIP3   OH257405   1.751   3.082   5.420  0.5054  0.2461 -0.3546
11997TIP3    H157406   1.766   2.993   5.387  1.3267  0.0327  0.5502
11997TIP3    H257407   1.839   3.116   5.438  0.1331 -0.1197  2.7738
11998TIP3   OH257408   1.379   4.931   5.284 -0.4107 -0.1273  0.1615
11998TIP3    H157409   1.378   4.961   5.193  0.9683  0.3670  0.2754
11998TIP3    H257410   1.396   4.837   5.278  5.1930  0.5705 -0.1474
11999TIP3   OH257411   2.116   4.530  17.037  0.4431  0.1653  0.0484
11999TIP3    H157412   2.176   4.605  17.031 -1.3029  1.7037  1.0421
11999TIP3    H257413   2.121   4.501  17.128 -1.3554  1.2588  0.5429
12000TIP3   OH257414   3.697   0.144  15.026  0.1572  0.3264  0.3376
12000TIP3    H157415   3.675   0.166  14.935 -0.5116 -0.1858  0.3643
12000TIP3    H257416   3.740   0.059  15.020 -0.6059 -0.0904  0.5575
12001TIP3   OH257417   6.728   5.742   5.197 -0.0691 -0.1607  0.3545
12001TIP3    H157418   6.765   5.707   5.278 -0.1477  0.3680  0.6212
12001TIP3    H257419   6.700   5.831   5.219  1.2869  0.5486 -0.6455
12002TIP3   OH257420   3.514   0.760   4.600  0.0771  0.6889  0.0661
12002TIP3    H157421   3.513   0.826   4.670 -0.8597  0.9326 -0.1613
12002TIP3    H257422   3.465   0.686   4.636 -0.0708  0.6632 -0.1842
12003TIP3   OH257423   3.706   0.109  15.633  0.1825  0.3363  0.9533
12003TIP3    H157424   3.625   0.127  15.681  0.5080  1.8673  1.0039
12003TIP3    H257425   3.733   0.022  15.663 -1.2500 -0.0605  1.1797
12004TIP3   OH257426   6.018   3.417  11.351 -0.2280  0.4351 -0.0442
12004TIP3    H157427   5.950   3.453  11.408  0.9565  0.5222  1.3536
12004TIP3    H257428   6.037   3.487  11.289  0.0780  1.1976  0.8977
12005TIP3   OH257429   5.713   2.534   1.006  0.0507  0.3168  0.0459
12005TIP3    H157430   5.724   2.467   0.938 -0.4134  2.3744 -2.1812
12005TIP3    H257431   5.801   2.551   1.037  0.1008 -2.0147  1.4898
12006TIP3   OH257432   2.692   4.763  12.278  0.1431 -0.1008 -0.3562
12006TIP3    H157433   2.608   4.793  12.243  0.2242 -0.3867 -0.7958
12006TIP3    H257434   2.757   4.819  12.236  0.2561 -0.5723 -0.8138
12007TIP3   OH257435   3.189   5.425   4.264  0.2617  0.1492  0.2703
12007TIP3    H157436   3.173   5.331   4.271 -1.9554  0.5077  0.8110
12007TIP3    H257437   3.256   5.442   4.330 -0.9926 -0.7356  1.8499
12008TIP3   OH257438   6.364   6.184   0.983 -0.3849  0.2018 -0.5744
12008TIP3    H157439   6.274   6.214   0.979  0.0548  1.4310 -1.6941
12008TIP3    H257440   6.417   6.259   0.956  1.0512 -0.2008  0.9405
12009TIP3   OH257441   3.738   2.869  13.446 -0.2937  0.1873 -0.4928
12009TIP3    H157442   3.767   2.948  13.491 -2.0632  0.1601  0.7934
12009TIP3    H257443   3.675   2.829  13.506  2.8745 -4.0374  0.5184
12010TIP3   OH257444   0.400   1.058   3.542 -0.3041  0.5157 -0.0029
12010TIP3    H157445   0.389   1.098   3.456 -1.7869  0.6018  0.2043
12010TIP3    H257446   0.384   0.965   3.527 -0.8011  0.5649  0.2182
12011TIP3   OH257447   3.452   6.425   2.115  0.1060 -0.3596 -0.1030
12011TIP3    H157448   3.381   6.392   2.060  0.0290 -0.9375  0.3367
12011TIP3    H257449   3.408   6.478   2.182  0.0483 -1.0500  0.4119
12012TIP3   OH257450   6.332   1.630   2.544 -0.4298 -0.3049 -0.6040
12012TIP3    H157451   6.348   1.628   2.638 -0.4173 -0.4711 -0.6104
12012TIP3    H257452   6.366   1.716   2.516 -0.9640 -0.0146 -0.3640
12013TIP3   OH257453   3.564   5.086   0.913 -0.0762  0.0934  0.0973
12013TIP3    H157454   3.612   5.048   0.986  0.9207  1.1619  0.0152
12013TIP3    H257455   3.560   5.179   0.931  1.0919  0.5420 -1.6920
12014TIP3   OH257456   0.188   5.290   2.751  0.3850  0.1700 -0.1994
12014TIP3    H157457   0.155   5.200   2.750  0.0567  0.2840 -1.1115
12014TIP3    H257458   0.175   5.319   2.841 -1.5109  0.0168 -0.3703
12015TIP3   OH257459   5.586   1.827   5.208 -0.0672 -0.3709 -0.1423
12015TIP3    H157460   5.546   1.887   5.145 -0.1934 -0.2975  0.0086
12015TIP3    H257461   5.574   1.869   5.293  3.5908  1.5483 -0.3594
12016TIP3   OH257462   0.871   5.711  13.860 -0.8570  0.2054  0.1066
12016TIP3    H157463   0.801   5.764  13.898 -1.2822  1.3674 -2.1099
12016TIP3    H257464   0.945   5.722  13.920 -1.5753  1.6596  0.7853
12017TIP3   OH257465   2.600   3.237  13.803 -0.0541 -0.2197  0.1020
12017TIP3    H157466   2.589   3.305  13.737  1.7439  1.2363  1.1882
12017TIP3    H257467   2.577   3.279  13.885 -1.1893 -1.6684  0.5572
12018TIP3   OH257468   1.937   2.293   4.779  0.1769 -0.0866 -0.1141
12018TIP3    H157469   1.964   2.303   4.870  1.1876 -0.0463 -0.4076
12018TIP3    H257470   2.012   2.326   4.728 -0.1054 -0.7306 -0.9671
12019TIP3   OH257471   6.608   4.505   2.419  0.1752 -0.0639  0.4152
12019TIP3    H157472   6.624   4.555   2.500 -0.0803  1.8022 -0.6421
12019TIP3    H257473   6.538   4.444   2.442  0.1920  0.3380  1.6247
12020TIP3   OH257474   0.213   6.353  14.620  0.4139  0.1565  0.1800
12020TIP3    H157475   0.260   6.413  14.679 -0.3131 -0.6006  1.5705
12020TIP3    H257476   0.214   6.398  14.535  0.5267  1.8088  1.0077
12021TIP3   OH257477   5.312   5.581   1.741  0.1484 -0.1957  0.3420
12021TIP3    H157478   5.339   5.664   1.780 -1.5308  0.3973  0.3177
12021TIP3    H257479   5.361   5.576   1.659  0.1199  0.8767  0.2424
12022TIP3   OH257480   1.751   2.311   0.313 -0.1366 -0.5075  0.0788
12022TIP3    H157481   1.823   2.366   0.280 -0.4508  0.4478  0.9149
12022TIP3    H257482   1.787   2.271   0.392 -0.6112  0.2648  0.7088
12023TIP3   OH257483   4.453   0.282  14.249  0.4929  0.2633  0.4801
12023TIP3    H157484   4.522   0.346  14.269 -0.1403  0.5920  1.6926
12023TIP3    H257485   4.425   0.304  14.160  2.7155 -0.6015 -0.5246
12024TIP3   OH257486   1.455   5.580  17.030  0.2653  0.5386  0.2193
12024TIP3    H157487   1.466   5.659  16.976  1.5697  0.3463  0.1600
12024TIP3    H257488   1.527   5.523  17.002 -1.7316 -1.5080 -1.1334
12025TIP3   OH257489   1.376   3.312  13.580 -0.1921  0.3616  0.5657
12025TIP3    H157490   1.355   3.404  13.568  1.3757  0.5747 -0.9915
12025TIP3    H257491   1.445   3.312  13.647  1.2299  0.5675 -0.8332
12026TIP3   OH257492   2.409   2.437  16.860  0.1277  0.0857 -1.0897
12026TIP3    H157493   2.331   2.483  16.828  0.5876  0.2249 -2.0245
12026TIP3    H257494   2.387   2.345  16.852  0.5580  0.0967 -2.6723
12027TIP3   OH257495   2.077   2.739   4.272  0.2324  0.1264  0.2604
12027TIP3    H157496   2.093   2.647   4.294  1.2512  0.1396 -0.3709
12027TIP3    H257497   2.026   2.736   4.191 -0.6454  0.1170  0.8019
12028TIP3   OH257498   0.031   4.314  11.971 -0.1622  0.5440  0.0570
12028TIP3    H157499  -0.000   4.245  11.913 -0.7205 -0.5013  1.5407
12028TIP3    H257500   0.015   4.395  11.923  0.0139 -0.3084 -1.5073
12029TIP3   OH257501   0.015   5.754   0.723 -0.6122  0.2608 -0.5610
12029TIP3    H157502   0.094   5.718   0.763  0.6212  1.1248 -2.1223
12029TIP3    H257503   0.027   5.849   0.725  0.4242  0.3859 -4.4687
12030TIP3   OH257504   1.457   1.912   0.523  0.4114  0.4454  0.2073
12030TIP3    H157505   1.497   1.961   0.451 -1.6440 -0.1945 -1.4426
12030TIP3    H257506   1.381   1.964   0.548  2.0730  1.6363  3.2887
12031TIP3   OH257507   3.484   5.631  14.115 -0.3639 -0.1448 -0.1506
12031TIP3    H157508   3.569   5.637  14.159 -0.6036  0.1621  0.2721
12031TIP3    H257509   3.506   5.600  14.027  0.2800  0.6911 -0.3128
12032TIP3   OH257510   5.372   3.074  16.547 -0.1600 -0.2015  0.0588
12032TIP3    H157511   5.342   3.111  16.630 -1.1478  0.4056 -0.5430
12032TIP3    H257512   5.360   3.145  16.484 -0.3411 -0.9560 -0.7765
12033TIP3   OH257513   1.064   2.274   2.427  0.8994 -0.0829  0.5064
12033TIP3    H157514   1.158   2.292   2.434  0.7753  1.1381 -0.5334
12033TIP3    H257515   1.035   2.329   2.354 -0.6873 -0.2219  1.0036
12034TIP3   OH257516   5.453   5.430  16.862  0.9942 -0.5629 -0.3137
12034TIP3    H157517   5.423   5.377  16.936  0.4711 -0.2140 -0.2712
12034TIP3    H257518   5.426   5.382  16.784 -1.5051  0.6761 -0.3140
12035TIP3   OH257519   3.649   6.376  11.872 -0.6698 -0.0781 -0.5472
12035TIP3    H157520   3.657   6.315  11.945 -1.5405 -0.6868 -0.9362
12035TIP3    H257521   3.739   6.399  11.849 -0.3270 -1.2007 -0.3660
12036TIP3   OH257522   3.297   5.270   5.901 -0.3739 -0.1418  0.7165
12036TIP3    H157523   3.213   5.252   5.858  0.3406  1.0396 -1.2880
12036TIP3    H257524   3.295   5.364   5.918  0.7452 -0.0038  0.1583
12037TIP3   OH257525   0.606   6.639   3.049 -0.6246 -0.4533  0.2654
12037TIP3    H157526   0.693   6.632   3.010 -0.5338  0.6319  0.2533
12037TIP3    H257527   0.622   6.664   3.140 -0.9079 -0.9657  0.4617
12038TIP3   OH257528   6.361   0.891  16.643 -0.1483 -0.7935  0.4938
12038TIP3    H157529   6.290   0.919  16.586  0.3049 -1.8986 -0.6563
12038TIP3    H257530   6.386   0.805  16.610  1.2838 -0.7144  1.2771
12039TIP3   OH257531   1.576   3.805  14.252 -0.3250 -0.2236 -0.2930
12039TIP3    H157532   1.605   3.839  14.337 -0.6105 -0.5551 -0.0583
12039TIP3    H257533   1.623   3.857  14.187 -1.7765  1.5918  0.0221
12040TIP3   OH257534   1.231   0.437  14.978 -0.2212  0.2556  0.0096
12040TIP3    H157535   1.149   0.460  14.935  0.8636  0.6432 -1.9517
12040TIP3    H257536   1.244   0.506  15.043 -0.9193  0.7820 -0.3944
12041TIP3   OH257537   0.872   5.694  12.499 -0.6009 -0.3802  0.4430
12041TIP3    H157538   0.855   5.607  12.535  0.2322 -0.8292 -0.2019
12041TIP3    H257539   0.786   5.735  12.490 -1.2276 -1.9247 -1.1772
12042TIP3   OH257540   3.012   1.528   2.864 -0.1334  0.1844  0.2264
12042TIP3    H157541   3.088   1.576   2.899  0.3729 -1.0377  0.8540
12042TIP3    H257542   2.939   1.554   2.921 -0.1393  1.1283 -0.1889
12043TIP3   OH257543   5.724   2.232  16.020  0.0636  0.4469  0.5223
12043TIP3    H157544   5.653   2.295  16.034  1.6931  2.7269 -0.7925
12043TIP3    H257545   5.681   2.155  15.983 -1.5991  2.4457 -2.1077
12044TIP3   OH257546   2.748   1.024  11.827  0.5793  0.1827  0.0922
12044TIP3    H157547   2.742   1.099  11.768 -1.0703 -1.2604 -1.6838
12044TIP3    H257548   2.829   1.038  11.876  1.8684  1.6049 -2.2856
12045TIP3   OH257549   4.500   3.262   1.482  0.4695 -0.2046 -0.5558
12045TIP3    H157550   4.562   3.321   1.525  2.1799 -0.7381 -2.1438
12045TIP3    H257551   4.472   3.201   1.551  2.2189 -0.3324  0.0871
12046TIP3   OH257552   0.021   4.742  11.538 -0.4578 -0.2419 -0.4631
12046TIP3    H157553  -0.007   4.655  11.565 -0.4142  0.0874  0.7200
12046TIP3    H257554   0.096   4.762  11.595 -0.3355  0.4854 -0.8624
12047TIP3   OH257555   3.232   4.616   4.778  0.0696  0.3442  0.7622
12047TIP3    H157556   3.325   4.609   4.801  0.2510  0.6290  0.1501
12047TIP3    H257557   3.209   4.529   4.743 -0.0738  0.0691  1.5257
12048TIP3   OH257558   4.707   2.671  11.956 -0.6917 -0.2473  0.0123
12048TIP3    H157559   4.639   2.623  12.004 -0.6651 -0.6546 -0.3448
12048TIP3    H257560   4.731   2.743  12.013  1.4997 -2.3945  2.0141
12049TIP3   OH257561   5.413   1.228   1.801 -0.4915 -0.2171  0.0786
12049TIP3    H157562   5.376   1.316   1.789  0.2544  0.1950  0.6875
12049TIP3    H257563   5.357   1.171   1.749 -0.7350  0.6828 -0.6795
12050TIP3   OH257564   6.478   4.986   4.078  0.1182 -0.3371 -0.0066
12050TIP3    H157565   6.563   4.963   4.043  0.7245  1.0570  0.5089
12050TIP3    H257566   6.415   4.940   4.022  1.1783 -0.9671 -0.6951
12051TIP3   OH257567   1.861   2.795  15.575  0.4172  0.0969 -0.4414
12051TIP3    H157568   1.811   2.876  15.558 -0.9160 -1.2451 -3.9135
12051TIP3    H257569   1.941   2.825  15.618 -1.4958  2.8320  1.5589
12052TIP3   OH257570   2.992   3.161   2.097 -0.4883 -0.0723  0.3250
12052TIP3    H157571   3.047   3.123   2.028  0.6781  0.3424  0.9960
12052TIP3    H257572   3.039   3.239   2.125  0.1900 -1.2991  2.9999
12053TIP3   OH257573   4.421   2.998   2.954  0.2293 -0.6112  0.2314
12053TIP3    H157574   4.483   2.929   2.930 -0.0224 -0.4545 -0.8972
12053TIP3    H257575   4.443   3.018   3.045  3.2532  0.9020 -0.7181
12054TIP3   OH257576   2.477   5.662  16.198  0.3421  0.4076  0.5621
12054TIP3    H157577   2.528   5.589  16.162  0.0713  0.5663 -0.1588
12054TIP3    H257578   2.533   5.738  16.187 -0.0283  0.5768 -0.2011
12055TIP3   OH257579   5.953   4.440  15.625 -0.2111  0.0224  0.0414
12055TIP3    H157580   5.922   4.512  15.569 -1.1990  0.8554  1.5861
12055TIP3    H257581   6.043   4.462  15.645 -0.0655  0.0738 -0.6346
12056TIP3   OH257582   5.968   5.775   0.499  0.0708 -0.6364  0.0597
12056TIP3    H157583   5.957   5.871   0.497 -0.5091 -0.7016 -1.5338
12056TIP3    H257584   5.965   5.749   0.406 -1.4836 -2.3705  0.5359
12057TIP3   OH257585   2.045   4.239   2.591 -0.2960  0.2568  0.4043
12057TIP3    H157586   2.077   4.191   2.668  1.1830 -0.6850 -0.7383
12057TIP3    H257587   1.985   4.178   2.548  0.7118 -0.1750 -0.4363
12058TIP3   OH257588   2.266   0.538   5.459 -0.3231 -0.2231 -0.2257
12058TIP3    H157589   2.174   0.546   5.482 -0.1576  0.0649  0.3382
12058TIP3    H257590   2.313   0.561   5.538  0.2377 -0.3709 -0.5108
12059TIP3   OH257591   4.088   0.607   4.195 -0.5807 -0.2672 -0.0368
12059TIP3    H157592   4.183   0.614   4.181 -0.5114 -0.4096  0.3461
12059TIP3    H257593   4.060   0.698   4.207 -0.0528 -0.3772  2.5554
12060TIP3   OH257594   3.830   4.351   4.636  0.7222 -0.6719 -0.3859
12060TIP3    H157595   3.746   4.353   4.682  1.0718 -0.5692  0.2633
12060TIP3    H257596   3.883   4.418   4.680  1.1041 -0.6521 -0.8672
12061TIP3   OH257597   5.726   1.875  13.411  0.0283 -0.3319 -0.3098
12061TIP3    H157598   5.815   1.873  13.446 -1.0779 -0.7179  2.7954
12061TIP3    H257599   5.695   1.785  13.421 -0.8724 -0.0989 -0.9321
12062TIP3   OH257600   2.911   0.622   0.295  0.0036 -0.4252  0.4793
12062TIP3    H157601   2.917   0.597   0.203  0.7108  0.3837  0.2952
12062TIP3    H257602   2.991   0.588   0.335  1.2096  1.8158  0.1290
12063TIP3   OH257603   0.853   6.087   4.784 -0.2085  0.5124 -0.2974
12063TIP3    H157604   0.847   6.096   4.689 -0.9041 -2.6742 -0.6804
12063TIP3    H257605   0.794   6.015   4.805  1.6223 -0.4214  2.2266
12064TIP3   OH257606   4.624   0.374   1.156 -0.3671 -0.1832  0.6932
12064TIP3    H157607   4.529   0.362   1.147 -0.5047  0.1297  1.6139
12064TIP3    H257608   4.655   0.291   1.192 -0.0581 -0.8321 -0.9849
12065TIP3   OH257609   1.135   0.113   0.312 -0.0534  0.4082  0.3541
12065TIP3    H157610   1.133   0.206   0.289 -2.2135  0.7723  1.6689
12065TIP3    H257611   1.221   0.100   0.353  0.9130  1.4085 -1.2719
12066TIP3   OH257612   0.602   4.698   0.836  0.4851  0.1695 -0.1823
12066TIP3    H157613   0.541   4.715   0.908  0.0944  0.4214 -0.5724
12066TIP3    H257614   0.582   4.765   0.771  0.9320  0.0258 -0.4696
12067TIP3   OH257615   6.476   6.788   1.103  0.1620 -0.2883 -0.5892
12067TIP3    H157616   6.442   6.831   1.181  1.0386 -2.5852  1.1594
12067TIP3    H257617   6.403   6.789   1.041 -0.8512  0.7752  0.5849
12068TIP3   OH257618   3.902   6.566  16.975 -0.1219 -0.3669  0.1629
12068TIP3    H157619   3.917   6.498  16.908  0.5730 -0.0078 -0.0561
12068TIP3    H257620   3.973   6.629  16.961  0.2142 -0.4452  1.4396
12069TIP3   OH257621   6.701   0.020  14.481 -0.1136 -0.4702 -0.0932
12069TIP3    H157622   6.763   0.093  14.482  0.3516 -0.8524 -0.4422
12069TIP3    H257623   6.658   0.026  14.396  0.6811 -1.2146 -0.5647
12070TIP3   OH257624   2.252   6.362   5.090 -0.3958 -0.1417 -0.0249
12070TIP3    H157625   2.299   6.438   5.124 -2.5108  0.4120  1.9348
12070TIP3    H257626   2.247   6.302   5.164  0.7054 -1.9631 -1.3712
12071TIP3   OH257627   6.493   1.332   5.312  0.7532 -0.0938 -0.1839
12071TIP3    H157628   6.478   1.252   5.361 -2.2259  1.1080  1.1172
12071TIP3    H257629   6.550   1.306   5.239  0.0242 -3.3060  0.2603
12072TIP3   OH257630   5.501   4.729  13.238 -0.1581 -0.0155  0.3708
12072TIP3    H157631   5.413   4.767  13.234 -0.3758 -0.1610  2.4267
12072TIP3    H257632   5.520   4.704  13.148 -2.1498  0.1662 -0.1644
12073TIP3   OH257633   5.186   0.459  11.760  0.3916  0.6486 -0.0595
12073TIP3    H157634   5.213   0.373  11.729  0.1994  0.5192  0.1247
12073TIP3    H257635   5.195   0.453  11.856 -3.6801 -0.6628  0.4830
12074TIP3   OH257636   2.498   0.357   0.487  0.3569  0.1269  0.4078
12074TIP3    H157637   2.454   0.404   0.557  0.3898  0.1554  0.4092
12074TIP3    H257638   2.575   0.410   0.467 -0.8180  1.3253 -1.1744
12075TIP3   OH257639   0.107   5.730   4.304  0.2530 -0.3421  0.4271
12075TIP3    H157640   0.028   5.706   4.352  0.1845  0.1345  0.5559
12075TIP3    H257641   0.170   5.753   4.372  0.4293 -0.4950  0.3163
12076TIP3   OH257642   3.407   2.515   2.435 -0.0317  0.0261  0.3763
12076TIP3    H157643   3.320   2.501   2.397 -0.2170  2.0815 -0.0507
12076TIP3    H257644   3.442   2.426   2.446 -1.0422 -0.7731 -2.1015
12077TIP3   OH257645   3.647   0.906  14.764 -0.6738 -0.6515  1.0071
12077TIP3    H157646   3.579   0.965  14.797  0.2547  0.5103  0.8757
12077TIP3    H257647   3.729   0.953  14.775 -0.1084 -0.9924 -1.1232
12078TIP3   OH257648   3.039   3.958  14.424  0.1364  0.0610  0.1461
12078TIP3    H157649   3.013   3.873  14.459 -2.5780  0.6324 -0.2354
12078TIP3    H257650   3.043   4.015  14.501  0.4350 -0.0734  0.2304
12079TIP3   OH257651   5.201   4.566   4.248 -0.1790  0.1489  0.1094
12079TIP3    H157652   5.268   4.584   4.313  0.1231 -2.5489  0.6644
12079TIP3    H257653   5.146   4.499   4.288 -0.1521 -1.4203 -2.2534
12080TIP3   OH257654   0.794   3.592   4.648 -0.0314  0.7601 -0.1690
12080TIP3    H157655   0.793   3.497   4.661  0.2997  0.4107 -2.3224
12080TIP3    H257656   0.887   3.615   4.656  0.3018  0.4058 -2.3987
12081TIP3   OH257657   3.282   6.659   0.562  0.7168  0.0537 -0.0690
12081TIP3    H157658   3.263   6.749   0.587 -0.8373 -0.6469  1.4303
12081TIP3    H257659   3.357   6.633   0.616  0.3313  0.0325  0.4538
12082TIP3   OH257660   0.592   6.811   5.469  0.2929  0.0371 -0.0751
12082TIP3    H157661   0.577   6.855   5.385  1.3899 -0.7573 -0.7258
12082TIP3    H257662   0.660   6.863   5.512  1.8636 -1.1281 -1.0081
12083TIP3   OH257663   3.878   3.403  12.943  0.2926 -1.1147  1.0041
12083TIP3    H157664   3.803   3.458  12.965  0.9826 -0.5316  1.9606
12083TIP3    H257665   3.898   3.424  12.852  0.1435 -0.2619  1.1614
12084TIP3   OH257666   1.726   2.450   2.462 -0.6669 -0.0499 -0.2460
12084TIP3    H157667   1.740   2.541   2.489 -3.4349  0.6748 -0.9151
12084TIP3    H257668   1.684   2.409   2.538 -0.9391 -0.3085 -0.5334
12085TIP3   OH257669   1.997   0.083   2.669  0.1684  0.2881  0.2474
12085TIP3    H157670   1.958   0.089   2.756 -0.3115 -2.1203  0.2777
12085TIP3    H257671   1.959   0.156   2.620 -0.2262  1.1542  1.7823
12086TIP3   OH257672   1.321   2.641  12.255  0.2166 -0.2056  0.3994
12086TIP3    H157673   1.330   2.611  12.346  2.1761 -0.1873  0.2467
12086TIP3    H257674   1.312   2.736  12.261  3.2913  0.1738  0.5217
12087TIP3   OH257675   1.220   3.811  12.499  0.1387  0.4111 -0.1085
12087TIP3    H157676   1.306   3.845  12.474  0.1923  1.1671  1.0235
12087TIP3    H257677   1.192   3.867  12.571 -0.5872 -0.8332  0.6212
12088TIP3   OH257678   2.714   0.061  12.211  0.0629  0.4971  0.1748
12088TIP3    H157679   2.754   0.142  12.241 -0.3755  0.9970 -0.5592
12088TIP3    H257680   2.621   0.072  12.230 -0.2735  0.9463 -1.5618
12089TIP3   OH257681   0.360   1.829  16.478  0.1383 -0.2187 -0.2159
12089TIP3    H157682   0.279   1.778  16.474  1.4899 -2.5595  0.0725
12089TIP3    H257683   0.401   1.802  16.560  2.0563 -0.5311 -1.2135
12090TIP3   OH257684   5.465   0.863   1.874  0.5281  0.1441 -0.0208
12090TIP3    H157685   5.466   0.958   1.885  1.2725  0.1413 -0.0439
12090TIP3    H257686   5.557   0.837   1.877  0.4357 -0.4186 -1.2913
12091TIP3   OH257687   1.747   4.677   3.121 -0.1775  0.4174 -0.5917
12091TIP3    H157688   1.789   4.758   3.150  1.4680 -0.2619 -0.9588
12091TIP3    H257689   1.753   4.680   3.026 -0.1104 -0.1205 -0.6079
12092TIP3   OH257690   0.296   1.243  12.822 -0.4378  0.0891 -0.0542
12092TIP3    H157691   0.299   1.222  12.729 -0.8750 -0.9035  0.1470
12092TIP3    H257692   0.273   1.161  12.865 -0.1722  0.5160  0.9420
12093TIP3   OH257693   4.654   3.909  13.034 -0.4959  0.6764 -0.7799
12093TIP3    H157694   4.617   3.843  12.976 -0.3425  1.6211 -2.0011
12093TIP3    H257695   4.709   3.963  12.977  2.1226 -0.1592  0.7818
12094TIP3   OH257696   2.263   5.054   3.034 -0.0198  0.3602 -0.0153
12094TIP3    H157697   2.250   5.076   3.127  1.1863  0.2429  0.2033
12094TIP3    H257698   2.232   4.964   3.027 -1.9695  1.0046 -0.1910
12095TIP3   OH257699   2.511   1.211  11.919 -0.3323 -0.1001 -0.6073
12095TIP3    H157700   2.425   1.207  11.878 -0.6098  0.4472 -0.0925
12095TIP3    H257701   2.562   1.143  11.874 -1.3933 -1.2998 -0.0548
12096TIP3   OH257702   6.223   5.126  12.362  0.5483 -0.7377  0.1153
12096TIP3    H157703   6.312   5.093  12.377  0.1815 -1.5884  0.4820
12096TIP3    H257704   6.182   5.123  12.448 -0.0485 -0.9825 -0.1759
12097TIP3   OH257705   3.551   2.894   3.818  0.1645 -0.2668 -0.1238
12097TIP3    H157706   3.494   2.890   3.895 -1.0814 -0.4811 -1.0261
12097TIP3    H257707   3.532   2.813   3.770 -0.3496  0.6471 -1.5178
12098TIP3   OH257708   6.473   1.755  11.725 -0.0894 -0.1359  0.4759
12098TIP3    H157709   6.395   1.809  11.739 -0.1298  0.5985 -2.0074
12098TIP3    H257710   6.452   1.700  11.649  1.2356 -1.0861  0.7522
12099TIP3   OH257711   2.848   5.464   5.007  0.2802  0.1636  0.0476
12099TIP3    H157712   2.941   5.486   5.009  0.7074 -1.2553 -1.4628
12099TIP3    H257713   2.831   5.422   5.092  0.4859  2.1796  1.1402
12100TIP3   OH257714   5.895   6.050   0.015 -0.0867 -0.0039  0.0075
12100TIP3    H157715   5.939   5.968  -0.005 -0.8890 -0.2715 -0.7080
12100TIP3    H257716   5.846   6.032   0.096  0.0620 -0.0984  0.0768
12101TIP3   OH257717   5.145   4.447  11.643 -0.3041 -0.0168 -0.2187
12101TIP3    H157718   5.093   4.520  11.677 -0.9189 -0.3837 -0.3522
12101TIP3    H257719   5.176   4.401  11.721 -0.7356 -0.1791 -0.1408
12102TIP3   OH257720   3.913   4.583  11.892  0.2820 -0.0123  0.1837
12102TIP3    H157721   3.946   4.521  11.827  0.6659 -0.0563  0.4126
12102TIP3    H257722   3.868   4.650  11.841  0.3543 -0.1827 -0.1081
12103TIP3   OH257723   3.483   2.182  12.307 -0.0860 -0.5671  0.1027
12103TIP3    H157724   3.567   2.206  12.347  0.3605 -0.6890 -0.7333
12103TIP3    H257725   3.503   2.104  12.255 -0.4388  0.1084 -1.0887
12104TIP3   OH257726   2.643   0.236   4.225  0.0695  0.1910 -0.1620
12104TIP3    H157727   2.592   0.214   4.303  1.7902  1.2687  1.3584
12104TIP3    H257728   2.721   0.181   4.231  1.2623  1.8294  0.1227
12105TIP3   OH257729   4.834   6.377   5.172  0.0688 -0.0027  0.3202
12105TIP3    H157730   4.785   6.330   5.104  0.4255  0.4341 -0.2543
12105TIP3    H257731   4.920   6.335   5.172 -0.2286 -0.6538  1.2052
12106TIP3   OH257732   1.438   0.739  11.631 -0.1368  0.4988 -0.2551
12106TIP3    H157733   1.371   0.781  11.577 -0.4432 -0.3576 -0.5397
12106TIP3    H257734   1.520   0.760  11.586 -0.2440  1.1773 -0.1465
12107TIP3   OH257735   6.535   5.870  13.307  0.0570  0.0695 -0.1946
12107TIP3    H157736   6.556   5.779  13.328 -0.4567  0.0120  0.0858
12107TIP3    H257737   6.607   5.899  13.251  0.3965 -0.4054 -0.0119
12108TIP3   OH257738   2.797   3.939   4.245  0.1304  0.0379 -0.1556
12108TIP3    H157739   2.793   4.007   4.313 -1.8073  1.0249 -1.1944
12108TIP3    H257740   2.881   3.954   4.202  0.1053  1.2662  0.1624
12109TIP3   OH257741   5.127   1.739   2.714 -0.6638 -0.4014 -0.2016
12109TIP3    H157742   5.107   1.676   2.645 -0.7201 -0.8039  0.1767
12109TIP3    H257743   5.223   1.744   2.714 -0.6773 -0.1265 -0.5499
12110TIP3   OH257744   1.435   1.731   0.144  0.1989 -0.1198 -0.2743
12110TIP3    H157745   1.360   1.679   0.173 -0.3315 -0.0033 -1.3586
12110TIP3    H257746   1.435   1.807   0.202  0.8961 -1.2295  1.2361
12111TIP3   OH257747   1.726   6.267  13.499  0.7420  0.4391  0.7328
12111TIP3    H157748   1.706   6.281  13.407  0.4453 -1.0300  0.5501
12111TIP3    H257749   1.818   6.290  13.508  0.5438  1.4938  0.2993
12112TIP3   OH257750   0.803   2.376  15.291  0.5495  1.0195  0.0237
12112TIP3    H157751   0.799   2.464  15.253 -0.6467  0.6666 -0.7263
12112TIP3    H257752   0.747   2.380  15.368  0.3828  0.8804 -0.0893
12113TIP3   OH257753   1.036   0.247   2.072  0.1177  0.0880 -0.0170
12113TIP3    H157754   0.989   0.330   2.074  2.8253  1.7765  3.2760
12113TIP3    H257755   0.976   0.185   2.113 -1.8091  0.3446 -2.2151
12114TIP3   OH257756   6.569   1.534  11.836  0.3227 -0.4454  0.5913
12114TIP3    H157757   6.551   1.621  11.800  2.6952 -0.1019  0.0931
12114TIP3    H257758   6.652   1.507  11.795  0.9966 -1.8269  2.6889
12115TIP3   OH257759   2.439   6.629  13.786  0.2448 -0.4555 -0.3106
12115TIP3    H157760   2.469   6.716  13.814 -0.8519  0.3432 -1.4879
12115TIP3    H257761   2.435   6.578  13.867  0.9681  0.5675  0.4009
12116TIP3   OH257762   4.648   6.589   1.104  0.3431  0.4398 -0.2115
12116TIP3    H157763   4.704   6.535   1.049  1.0743 -0.2329  1.1474
12116TIP3    H257764   4.704   6.663   1.128  0.8276 -0.4311  1.4685
12117TIP3   OH257765   5.028   6.097   6.221  0.0357  0.2031 -0.2316
12117TIP3    H157766   5.028   6.174   6.278  2.0122  0.0207  0.0974
12117TIP3    H257767   5.086   6.035   6.265  3.0875  0.6815 -3.1644
12118TIP3   OH257768   3.705   2.969  13.795 -0.3766 -0.4279  0.4291
12118TIP3    H157769   3.628   3.016  13.763  0.1114 -0.5348 -0.9547
12118TIP3    H257770   3.773   3.035  13.801 -0.0196 -0.7181 -0.3482
12119TIP3   OH257771   2.895   1.975  16.193  0.0063  0.4328  0.3749
12119TIP3    H157772   2.866   1.923  16.118 -1.5448  0.6550  0.7919
12119TIP3    H257773   2.911   1.910  16.262  0.8636  0.2794  0.0414
12120TIP3   OH257774   3.458   4.166   2.620  0.1830 -0.2658 -0.8206
12120TIP3    H157775   3.550   4.154   2.599  0.5066  0.4251  0.1176
12120TIP3    H257776   3.431   4.242   2.567 -0.0316 -0.8484 -1.5696
12121TIP3   OH257777   3.780   0.553   4.946 -0.0775  0.3044  0.2993
12121TIP3    H157778   3.774   0.564   4.851 -0.6968  1.2285  0.4320
12121TIP3    H257779   3.709   0.494   4.968  1.0384 -1.2221  0.0229
12122TIP3   OH257780   5.258   0.838   4.287 -0.1037 -0.1265  0.0371
12122TIP3    H157781   5.266   0.930   4.313 -0.2385 -0.1317  0.1000
12122TIP3    H257782   5.168   0.814   4.312 -0.6353  0.1914 -1.4415
12123TIP3   OH257783   0.450   6.266  11.680 -0.1251 -0.2843  0.4375
12123TIP3    H157784   0.465   6.281  11.774 -0.5076  0.4598  0.3839
12123TIP3    H257785   0.355   6.269  11.671 -0.0363  2.9194 -0.4830
12124TIP3   OH257786   1.568   0.698   2.020  0.3183 -0.3415  0.2116
12124TIP3    H157787   1.477   0.729   2.019  0.5899  0.5313  1.0386
12124TIP3    H257788   1.619   0.774   2.051  1.1820 -1.1803  0.8947
12125TIP3   OH257789   4.585   0.232   2.757  0.1068 -0.6113 -0.0995
12125TIP3    H157790   4.658   0.280   2.796 -1.5958  2.4031 -0.3380
12125TIP3    H257791   4.566   0.162   2.819  0.6757  0.9774  1.9683
12126TIP3   OH257792   5.714   2.796  12.271 -0.2301  0.1574  0.0947
12126TIP3    H157793   5.642   2.744  12.307 -0.6954  0.0138 -1.0084
12126TIP3    H257794   5.734   2.755  12.187  0.3757  0.8839 -0.1285
12127TIP3   OH257795   5.196   4.329  16.878 -0.1079  0.2320  0.4559
12127TIP3    H157796   5.288   4.331  16.853 -0.1356  2.6622  0.3354
12127TIP3    H257797   5.168   4.239  16.859  2.2561 -0.6336  0.6910
12128TIP3   OH257798   2.457   5.766  12.189 -0.2284 -0.0469 -0.1454
12128TIP3    H157799   2.367   5.749  12.218 -0.2142 -1.3592 -0.8223
12128TIP3    H257800   2.448   5.787  12.096  0.1258  0.2722 -0.1092
12129TIP3   OH257801   1.107   5.553  13.353 -0.1335  0.0221  0.0573
12129TIP3    H157802   1.174   5.548  13.421 -1.0957  0.6813  1.0813
12129TIP3    H257803   1.137   5.624  13.296  0.1885  0.1027  0.3218
12130TIP3   OH257804   5.689   3.379  16.537  0.4426  0.1395  0.7584
12130TIP3    H157805   5.711   3.286  16.541  1.8203  0.4409  0.6685
12130TIP3    H257806   5.724   3.409  16.454  0.8384  0.9402  1.2027
12131TIP3   OH257807   5.273   6.223   5.736 -0.2126  0.5467 -0.0202
12131TIP3    H157808   5.305   6.216   5.826 -0.2857 -0.5984 -0.0769
12131TIP3    H257809   5.209   6.294   5.739  1.3250  1.9753  0.3717
12132TIP3   OH257810   3.038   1.835   1.742 -0.4000  0.2003 -0.4782
12132TIP3    H157811   3.123   1.867   1.772 -0.2255 -0.9756  0.3658
12132TIP3    H257812   3.048   1.739   1.739 -1.0628  0.1503 -2.3671
12133TIP3   OH257813   3.285   3.199  16.620 -0.7229  0.4299 -1.1093
12133TIP3    H157814   3.208   3.148  16.645  1.2944 -1.1032  2.7676
12133TIP3    H257815   3.292   3.267  16.686  1.1409  0.6695 -1.4954
12134TIP3   OH257816   2.277   3.934   3.786  0.2787 -0.0664  0.0923
12134TIP3    H157817   2.332   4.012   3.783  0.6827 -0.2759  1.4105
12134TIP3    H257818   2.328   3.871   3.838  0.2373 -1.4324 -1.4603
12135TIP3   OH257819   3.878   0.704   5.688 -0.2277  0.1482  0.1000
12135TIP3    H157820   3.908   0.790   5.717  0.2869  0.3017 -0.8471
12135TIP3    H257821   3.927   0.642   5.743 -0.4060  0.4419  0.6024
12136TIP3   OH257822   0.096   3.779   2.134 -0.1503  0.0406  0.4710
12136TIP3    H157823   0.116   3.759   2.225  0.1969  0.6624  0.5399
12136TIP3    H257824   0.164   3.735   2.084  0.4812  0.8347  0.6064
12137TIP3   OH257825   3.109   2.337  15.156 -0.3988 -0.5744  0.0180
12137TIP3    H157826   3.074   2.422  15.127 -0.7167 -0.8994 -0.5614
12137TIP3    H257827   3.124   2.349  15.250  2.2067  1.0430 -0.4771
12138TIP3   OH257828   5.611   1.054   3.906  0.1116 -0.5446 -0.2456
12138TIP3    H157829   5.674   1.028   3.839  2.2846  1.3391  0.8958
12138TIP3    H257830   5.565   1.130   3.868 -0.1968 -0.8105 -0.4054
12139TIP3   OH257831   4.774   0.547   4.857  0.2308  0.7083 -0.4824
12139TIP3    H157832   4.822   0.616   4.811  2.3456 -0.6326 -0.3930
12139TIP3    H257833   4.820   0.538   4.941 -0.6658 -0.1015 -0.0631
12140TIP3   OH257834   6.667   1.965  13.952 -1.0575  0.9821  0.1669
12140TIP3    H157835   6.637   1.915  14.028 -0.6636  0.4712 -0.0068
12140TIP3    H257836   6.619   1.927  13.878 -1.1857  1.2503  0.1101
12141TIP3   OH257837   2.178   1.954   5.228 -0.1301  0.2239 -0.6724
12141TIP3    H157838   2.255   1.992   5.186  1.1413 -1.9480 -0.4774
12141TIP3    H257839   2.126   1.918   5.155  0.5532 -0.8846 -0.6342
12142TIP3   OH257840   4.738   2.009  14.803 -0.2158 -0.6352  0.0688
12142TIP3    H157841   4.719   1.922  14.768 -1.4908  0.3931 -2.0551
12142TIP3    H257842   4.827   2.028  14.773 -0.3094 -0.8273 -0.3384
12143TIP3   OH257843   0.116   4.856  14.313 -0.0605 -0.0256  0.4559
12143TIP3    H157844   0.072   4.800  14.377 -0.5297  0.6399  0.7372
12143TIP3    H257845   0.209   4.835  14.322 -0.3024 -1.4284 -0.1186
12144TIP3   OH257846   1.766   0.149  12.708 -0.3875  0.4633 -0.6374
12144TIP3    H157847   1.837   0.089  12.732 -1.9242 -2.0154 -1.8666
12144TIP3    H257848   1.716   0.160  12.788 -1.6444 -2.2724 -0.9267
12145TIP3   OH257849   4.560   0.754  12.439 -0.4902  0.8006  1.1893
12145TIP3    H157850   4.629   0.690  12.453 -1.8747 -0.6972  1.5021
12145TIP3    H257851   4.575   0.786  12.350  0.4780  0.3788  1.1886
12146TIP3   OH257852   6.582   5.518  10.612  0.5785 -0.2589  1.1519
12146TIP3    H157853   6.620   5.432  10.627 -0.9296 -1.1889  0.0441
12146TIP3    H257854   6.488   5.500  10.603  0.2472  1.5029  0.8752
12147TIP3   OH257855   6.118   4.878   1.001  0.2619  0.2174 -0.4974
12147TIP3    H157856   6.179   4.891   1.074 -0.9133  1.8434  0.2436
12147TIP3    H257857   6.038   4.921   1.029 -0.5625 -0.0393 -2.3442
12148TIP3   OH257858   2.189   3.426  10.949 -0.6427 -0.2352  0.4459
12148TIP3    H157859   2.152   3.514  10.949 -0.1669  0.0366  2.5255
12148TIP3    H257860   2.268   3.434  11.003  1.2920 -1.2505 -2.0206
12149TIP3   OH257861   0.985   2.594   0.338 -0.1333 -0.1203  1.2723
12149TIP3    H157862   0.895   2.609   0.369 -0.7981 -1.1282 -0.0636
12149TIP3    H257863   0.998   2.500   0.346 -0.1734 -0.3590 -0.9761
12150TIP3   OH257864   2.528   5.730   1.805 -0.0926 -0.4721 -0.1820
12150TIP3    H157865   2.457   5.792   1.819 -0.5719 -0.8498 -0.8807
12150TIP3    H257866   2.555   5.744   1.715  1.8337  0.7778  0.5389
12151TIP3   OH257867   3.039   3.585   2.743  0.1825 -0.2241 -0.6562
12151TIP3    H157868   2.991   3.654   2.697  0.5098  0.6856  0.3074
12151TIP3    H257869   2.980   3.510   2.741 -1.8071  1.1371  1.3521
12152TIP3   OH257870   4.147   4.214   4.145  0.1550  0.5425  0.3171
12152TIP3    H157871   4.223   4.259   4.183  1.4704 -1.7477  0.5601
12152TIP3    H257872   4.177   4.125   4.129 -1.5130  0.3790 -2.6647
12153TIP3   OH257873   6.456   1.622   4.751  0.1372 -0.1791  0.3987
12153TIP3    H157874   6.515   1.549   4.732  0.9330 -0.3557  3.0470
12153TIP3    H257875   6.386   1.613   4.687 -0.1023 -3.6785  0.9182
12154TIP3   OH257876   4.544   6.626  11.973 -1.2261 -1.0645  0.3045
12154TIP3    H157877   4.471   6.688  11.984 -0.1380  0.4294 -0.5626
12154TIP3    H257878   4.527   6.558  12.038 -1.9898  0.6187  1.9792
12155TIP3   OH257879   0.470   0.476   2.456 -0.2031 -0.1739  1.0759
12155TIP3    H157880   0.492   0.564   2.484 -0.0443  0.2293 -0.2269
12155TIP3    H257881   0.389   0.486   2.406  0.8899 -0.3881 -0.8677
12156TIP3   OH257882   5.368   1.231   2.931 -0.4083 -0.4870  0.0655
12156TIP3    H157883   5.428   1.252   3.002  1.4718 -2.9986 -0.6163
12156TIP3    H257884   5.418   1.247   2.851 -1.2029 -1.1368 -0.5913
12157TIP3   OH257885   3.451   0.176   5.644  0.0898  0.3254 -0.3227
12157TIP3    H157886   3.514   0.189   5.715 -1.1133 -1.1427  1.1000
12157TIP3    H257887   3.373   0.141   5.687 -1.3614  1.0849 -2.1464
12158TIP3   OH257888   0.282   4.992   1.665 -0.2695  0.3219 -0.3405
12158TIP3    H157889   0.294   5.082   1.636 -1.3619 -0.0100 -1.9281
12158TIP3    H257890   0.223   4.953   1.601 -1.7463 -0.8517  1.5898
12159TIP3   OH257891   0.438   5.810  11.154 -0.2759  0.2647  0.2335
12159TIP3    H157892   0.370   5.815  11.087  1.6948  0.1845 -1.8945
12159TIP3    H257893   0.439   5.718  11.180  0.6064 -0.2597 -1.5314
12160TIP3   OH257894   4.584   6.233   0.453  0.2595 -0.2015 -0.1508
12160TIP3    H157895   4.605   6.143   0.478 -0.7104 -0.0190  1.4720
12160TIP3    H257896   4.645   6.287   0.502 -0.1404  0.0806  0.0414
12161TIP3   OH257897   0.838   1.529  16.105 -0.1622 -0.5087 -0.1836
12161TIP3    H157898   0.864   1.576  16.184  1.7389 -1.7901  0.0091
12161TIP3    H257899   0.787   1.593  16.055  0.5077  1.0454  1.0369
12162TIP3   OH257900   5.306   3.248  11.164 -0.1833 -0.7842 -0.4172
12162TIP3    H157901   5.363   3.215  11.233 -1.1560 -1.0722  0.2641
12162TIP3    H257902   5.250   3.174  11.141 -3.4626  0.6157  2.2109
12163TIP3   OH257903   3.008   5.429  12.782  0.0186 -0.2935 -0.4626
12163TIP3    H157904   3.031   5.450  12.872  0.0904 -0.2771 -0.4862
12163TIP3    H257905   2.913   5.443  12.778  0.0142 -0.3035 -0.3875
12164TIP3   OH257906   5.269   2.934   2.627 -0.1906  0.1039 -0.4307
12164TIP3    H157907   5.333   2.868   2.655  0.2840  0.9548  0.5785
12164TIP3    H257908   5.184   2.892   2.642  0.1053 -0.7863 -1.1413
12165TIP3   OH257909   3.880   5.242  11.515 -0.0097 -0.3474 -0.5436
12165TIP3    H157910   3.790   5.253  11.486 -0.6738  0.7941  1.7547
12165TIP3    H257911   3.918   5.330  11.512  0.2852 -0.4100  0.6898
12166TIP3   OH257912   1.292   4.451   4.118  0.7063  0.5918 -0.0074
12166TIP3    H157913   1.342   4.422   4.042 -0.1324 -0.3921 -0.2042
12166TIP3    H257914   1.210   4.402   4.113  0.2655  1.1947  1.0307
12167TIP3   OH257915   3.484   4.960  11.522  0.9592 -0.0863  0.0655
12167TIP3    H157916   3.448   4.938  11.608  0.8413  2.4284  0.7189
12167TIP3    H257917   3.461   4.885  11.467 -1.4453 -0.5275  1.5266
12168TIP3   OH257918   0.579   2.297   0.205  0.0288  0.3855 -0.2519
12168TIP3    H157919   0.589   2.373   0.147  1.5624 -1.3063 -2.3629
12168TIP3    H257920   0.490   2.267   0.190 -0.1224  0.9252 -0.4704
12169TIP3   OH257921   0.258   0.064  13.853  0.0699 -0.0637  0.0906
12169TIP3    H157922   0.266   0.142  13.909 -2.5808  0.9382 -0.7886
12169TIP3    H257923   0.237  -0.006  13.914 -0.5385  0.5457  0.6020
12170TIP3   OH257924   4.672   4.260  15.280 -0.1080  0.3640 -0.1796
12170TIP3    H157925   4.742   4.321  15.305 -0.3851  0.8055 -0.4692
12170TIP3    H257926   4.615   4.312  15.223  1.3542 -1.0125 -3.1151
12171TIP3   OH257927   5.377   6.326  11.804  0.5796  0.0905 -0.0327
12171TIP3    H157928   5.435   6.395  11.836  0.5940  1.1373 -2.1911
12171TIP3    H257929   5.389   6.255  11.867  3.9964  0.3673 -0.1611
12172TIP3   OH257930   1.444   5.167  14.928  0.3341  0.7334 -0.1730
12172TIP3    H157931   1.440   5.080  14.968  0.0883  0.0288 -1.6834
12172TIP3    H257932   1.364   5.211  14.959  1.3522  1.1518  2.0931
12173TIP3   OH257933   5.292   6.770   1.673  0.3064 -0.2671 -0.0086
12173TIP3    H157934   5.210   6.743   1.715  0.8229  0.5285  1.5979
12173TIP3    H257935   5.322   6.844   1.726  0.9275  0.9161 -1.9196
12174TIP3   OH257936   3.980   5.887  15.268  0.2633  0.3382 -0.2442
12174TIP3    H157937   3.986   5.942  15.346 -0.6751 -2.1530  1.7308
12174TIP3    H257938   4.041   5.815  15.284 -1.5496 -1.4044 -0.6984
12175TIP3   OH257939   3.616   2.408  16.567  0.0758 -0.3220  0.7036
12175TIP3    H157940   3.527   2.384  16.593  0.0994 -0.0154  1.0590
12175TIP3    H257941   3.606   2.446  16.479  0.0348 -1.6351  0.1144
12176TIP3   OH257942   5.100   4.791   4.091 -0.5739 -0.1864  0.0879
12176TIP3    H157943   5.127   4.723   4.151 -0.3096  0.0464  0.2380
12176TIP3    H257944   5.013   4.765   4.062 -0.5938 -0.4343  0.3660
12177TIP3   OH257945   5.804   2.415  16.816  0.0885  0.3689  0.2798
12177TIP3    H157946   5.750   2.396  16.893 -0.8302  0.4476 -0.3346
12177TIP3    H257947   5.769   2.498  16.782  1.5848  1.2231  0.7341
12178TIP3   OH257948   3.431   2.085   2.636 -0.2288  0.1103  0.5320
12178TIP3    H157949   3.464   2.018   2.696  1.3746  1.3676  1.1435
12178TIP3    H257950   3.446   2.049   2.549 -1.1215 -1.0854  0.8595
12179TIP3   OH257951   5.030   6.724   2.114 -0.3169 -0.2048  0.5984
12179TIP3    H157952   5.018   6.693   2.204  1.8999 -0.9989  0.6804
12179TIP3    H257953   5.059   6.647   2.065  1.4750  0.8367 -0.0866
12180TIP3   OH257954   2.272   2.144   4.559  0.0252 -0.2593 -0.2803
12180TIP3    H157955   2.349   2.112   4.607 -0.0748 -0.9970 -0.5997
12180TIP3    H257956   2.309   2.186   4.482  0.1299 -0.2210 -0.2102
12181TIP3   OH257957   4.576   2.143  11.568  0.6665 -0.7272 -0.4253
12181TIP3    H157958   4.632   2.219  11.556 -1.7843  1.1094 -1.1646
12181TIP3    H257959   4.573   2.130  11.663  0.4491  0.6715 -0.2279
12182TIP3   OH257960   6.744   6.409  13.644  0.1142  0.1133  0.3364
12182TIP3    H157961   6.809   6.468  13.606  2.2831 -1.9479  0.6499
12182TIP3    H257962   6.673   6.409  13.580  1.5312  0.4770 -1.3262
12183TIP3   OH257963   6.256   2.844  14.314 -0.5185  0.2498 -0.2645
12183TIP3    H157964   6.242   2.755  14.282 -1.6068  0.5781 -0.7635
12183TIP3    H257965   6.349   2.861  14.298 -0.6034 -0.2889 -1.5031
12184TIP3   OH257966   4.755   0.830  16.400 -0.3701 -0.3251  0.2025
12184TIP3    H157967   4.784   0.740  16.411 -0.6625 -0.1123  3.7319
12184TIP3    H257968   4.695   0.827  16.325  0.3055 -2.8489 -0.3209
12185TIP3   OH257969   1.666   2.890   0.250  0.1893 -0.1361  0.4094
12185TIP3    H157970   1.683   2.796   0.243 -0.0392 -0.1567  0.1400
12185TIP3    H257971   1.572   2.899   0.236 -0.0525 -0.0181  1.9230
12186TIP3   OH257972   6.699   0.754   2.139  0.8428  0.0723  0.3526
12186TIP3    H157973   6.672   0.683   2.082  1.4995 -1.1135  1.4669
12186TIP3    H257974   6.674   0.726   2.227  2.2191  0.6268  0.9661
12187TIP3   OH257975   5.182   4.167   1.160  0.0482 -0.0031 -0.1727
12187TIP3    H157976   5.233   4.155   1.240  1.0299  3.1390 -0.1670
12187TIP3    H257977   5.219   4.105   1.098 -0.1233 -1.8556  1.4892
12188TIP3   OH257978   4.101   6.042   5.564  0.2753  0.0304 -0.1923
12188TIP3    H157979   4.050   5.963   5.583  0.7626 -0.4416 -0.8173
12188TIP3    H257980   4.187   6.010   5.539  0.1697  0.6944 -1.5115
12189TIP3   OH257981   6.679   4.391  15.242  0.3129  0.0227  0.0316
12189TIP3    H157982   6.680   4.393  15.337  0.2134 -2.8824  0.1773
12189TIP3    H257983   6.700   4.481  15.216 -2.8964  1.7598  2.7159
12190TIP3   OH257984   5.889   3.777   2.214 -0.4400 -0.5116 -0.3227
12190TIP3    H157985   5.894   3.763   2.309 -1.3886  1.2397  0.0089
12190TIP3    H257986   5.796   3.785   2.195 -0.1739  1.1833 -1.0730
12191TIP3   OH257987   5.512   5.904  14.068  0.1173  0.1464  0.7749
12191TIP3    H157988   5.551   5.991  14.077  1.0350  0.2054 -2.5186
12191TIP3    H257989   5.425   5.920  14.031  0.6922 -0.2884 -0.8707
12192TIP3   OH257990   4.963   3.343  12.078 -0.1671  0.9075 -0.1219
12192TIP3    H157991   5.024   3.363  12.148 -0.3723 -0.3861  0.4572
12192TIP3    H257992   4.888   3.303  12.122  0.3469 -1.4031 -1.1616
12193TIP3   OH257993   3.990   0.951  12.526  0.2737  0.6466  0.0127
12193TIP3    H157994   3.920   1.008  12.496 -1.1770 -1.1941 -0.2672
12193TIP3    H257995   3.948   0.892  12.588  1.7472 -0.0334  0.4040
12194TIP3   OH257996   5.689   1.224   2.259  0.4412 -0.2286  0.4871
12194TIP3    H157997   5.685   1.258   2.170  0.6555 -1.0884  0.1436
12194TIP3    H257998   5.605   1.250   2.299 -0.2842 -1.1014 -0.4269
12195TIP3   OH257999   1.538   6.611   1.675  0.1596  0.6937  0.6359
12195TIP3    H158000   1.522   6.686   1.618  1.8675  1.3860  1.0004
12195TIP3    H258001   1.515   6.535   1.621  0.9889  1.3679 -0.7325
12196TIP3   OH258002   3.674   2.741  11.097 -1.3898 -0.4565 -0.4460
12196TIP3    H158003   3.741   2.691  11.050  0.6288  1.0580  0.6534
12196TIP3    H258004   3.629   2.676  11.150  0.0911 -1.3877 -0.2565
12197TIP3   OH258005   1.833   3.083  11.683  0.1364 -0.4027 -0.0200
12197TIP3    H158006   1.845   3.063  11.590  2.2229  1.8792 -0.3440
12197TIP3    H258007   1.741   3.109  11.691  0.6120  2.4707 -2.2200
12198TIP3   OH258008   5.295   2.037  10.622  1.1466  0.3407 -0.1409
12198TIP3    H158009   5.387   2.055  10.642  0.8676 -0.7387  2.6405
12198TIP3    H258010   5.269   1.971  10.686 -1.2016 -0.4760 -1.7839
12199TIP3   OH258011   5.182   2.339  16.080 -0.9250  0.5823 -0.1597
12199TIP3    H158012   5.219   2.277  16.017  2.0597  2.5671 -0.5259
12199TIP3    H258013   5.152   2.284  16.152  0.4644 -1.3947 -0.9936
12200TIP3   OH258014   3.804   1.847   4.872  0.2993  0.2204 -0.0554
12200TIP3    H158015   3.843   1.915   4.818  0.0162 -0.4230 -1.0927
12200TIP3    H258016   3.755   1.792   4.811  1.2314 -1.4257  0.5913
12201TIP3   OH258017   4.322   0.712   3.080  0.5971  0.3434 -0.2966
12201TIP3    H158018   4.336   0.757   3.163  0.4463 -0.3126  0.0901
12201TIP3    H258019   4.299   0.782   3.019 -2.9016  0.5506  1.0197
12202TIP3   OH258020   5.462   6.382   3.266 -0.4045 -0.2442  0.1341
12202TIP3    H158021   5.406   6.343   3.334 -0.4844  0.1950  0.3231
12202TIP3    H258022   5.437   6.474   3.265  0.6099  0.0502  0.5223
12203TIP3   OH258023   2.176   4.463  11.684 -0.2477  0.0217  0.0564
12203TIP3    H158024   2.198   4.443  11.775 -1.2164 -0.0529  0.2848
12203TIP3    H258025   2.150   4.378  11.647 -1.3566  0.3051  0.1536
12204TIP3   OH258026   5.692   5.139   4.780  1.1194  0.0015 -0.2460
12204TIP3    H158027   5.715   5.112   4.869  0.8079  0.2900 -0.0768
12204TIP3    H258028   5.619   5.081   4.756  0.7699  0.3611 -0.0646
12205TIP3   OH258029   2.484   3.233  16.550  0.0215  0.0914 -0.0826
12205TIP3    H158030   2.443   3.148  16.565 -0.5517  0.0126 -1.8882
12205TIP3    H258031   2.503   3.234  16.456 -0.1943  2.0515 -0.1450
12206TIP3   OH258032   1.054   3.195   5.553 -0.2622 -0.1073  0.0476
12206TIP3    H158033   0.967   3.233   5.567 -0.3620  0.4223 -1.8154
12206TIP3    H258034   1.041   3.127   5.488  0.9808  1.2735 -1.7409
12207TIP3   OH258035   4.283   3.564  16.908  0.4799  0.6598  0.1552
12207TIP3    H158036   4.221   3.545  16.979  1.3494 -1.2986  0.4437
12207TIP3    H258037   4.232   3.615  16.845 -0.6595  1.3856  1.5907
12208TIP3   OH258038   1.743   5.523  14.246  0.4532 -0.6900 -0.0613
12208TIP3    H158039   1.678   5.588  14.274 -0.4628 -1.5944 -0.0056
12208TIP3    H258040   1.798   5.569  14.182  0.1202  0.2649  0.3297
12209TIP3   OH258041   2.695   3.820   0.409  0.1736  0.4410  0.1144
12209TIP3    H158042   2.760   3.879   0.370  0.0611  0.1925 -0.4649
12209TIP3    H258043   2.638   3.796   0.335 -0.4550  0.4999  0.5720
12210TIP3   OH258044   5.860   6.630  15.102  0.8563  0.4458 -0.2411
12210TIP3    H158045   5.927   6.568  15.133 -0.3307 -0.4075  0.7019
12210TIP3    H258046   5.865   6.702  15.164 -1.5371 -1.2756  2.1969
12211TIP3   OH258047   3.324   0.438  11.976 -0.2410  0.1568 -0.0829
12211TIP3    H158048   3.285   0.378  11.913 -0.0542 -0.3416  0.2720
12211TIP3    H258049   3.270   0.517  11.970  0.0202  0.2646 -1.1429
12212TIP3   OH258050   4.288   4.566   0.931 -0.2746 -0.2400 -0.3599
12212TIP3    H158051   4.378   4.535   0.944  0.9734  2.3254 -1.9681
12212TIP3    H258052   4.244   4.494   0.885  0.7571 -1.7631  0.9509
12213TIP3   OH258053   4.289   1.371   1.656 -0.5117 -0.4003  0.0365
12213TIP3    H158054   4.286   1.276   1.646 -2.2030 -0.2208 -1.9397
12213TIP3    H258055   4.205   1.393   1.697  0.2244  0.2127  1.2797
12214TIP3   OH258056   2.357   4.541   2.706 -0.1108 -0.1854 -0.1975
12214TIP3    H158057   2.295   4.498   2.648 -0.2653  1.5814 -1.4293
12214TIP3    H258058   2.382   4.621   2.660  1.0526  0.4735  1.4501
12215TIP3   OH258059   2.911   6.143   4.620  0.3972 -0.4051 -0.9956
12215TIP3    H158060   2.934   6.135   4.713  0.2786  1.0247 -0.8173
12215TIP3    H258061   2.816   6.130   4.618  0.2913  0.2619 -0.7958
12216TIP3   OH258062   0.634   5.496  14.194 -0.0370  0.6607  0.1581
12216TIP3    H158063   0.683   5.493  14.112  0.2395  4.2568  0.0647
12216TIP3    H258064   0.701   5.495  14.262 -0.1472  0.1863  0.2644
12217TIP3   OH258065   0.936   5.199  15.772  0.3633 -0.4284 -0.3074
12217TIP3    H158066   1.008   5.169  15.827  0.7265  0.0112 -0.5380
12217TIP3    H258067   0.890   5.119  15.747  0.8386 -0.7224 -0.2505
12218TIP3   OH258068   0.288   6.391   6.309 -0.0606 -0.2570  0.6461
12218TIP3    H158069   0.264   6.398   6.217  0.0308 -1.0221  0.5578
12218TIP3    H258070   0.287   6.482   6.341 -2.8375 -0.1748  0.6031
12219TIP3   OH258071   3.710   3.419   4.590  0.0384  0.3329 -0.0859
12219TIP3    H158072   3.639   3.411   4.654  0.2406 -1.0388 -0.0092
12219TIP3    H258073   3.665   3.443   4.508 -0.6414 -1.2994 -0.2295
12220TIP3   OH258074   4.838   1.119   2.305  0.2378 -0.1338 -0.2001
12220TIP3    H158075   4.852   1.155   2.392 -2.1082 -0.9038  0.5676
12220TIP3    H258076   4.796   1.034   2.320 -1.5369  0.3180 -2.0350
12221TIP3   OH258077   5.998   4.719   6.200  0.0415 -0.2730 -0.5262
12221TIP3    H158078   5.911   4.679   6.192  0.0742 -0.3912 -0.3081
12221TIP3    H258079   6.035   4.679   6.278 -1.3012  2.6929  1.8587
12222TIP3   OH258080   4.224   4.780  12.910  0.0464  0.1050 -0.2282
12222TIP3    H158081   4.164   4.851  12.934 -0.7813 -0.2243 -1.2462
12222TIP3    H258082   4.278   4.817  12.841 -0.2610 -0.1854 -0.6301
12223TIP3   OH258083   1.889   2.099   0.451  0.5951 -0.0853 -0.0920
12223TIP3    H158084   1.935   2.120   0.370 -0.7006 -1.7251 -1.3545
12223TIP3    H258085   1.956   2.104   0.519  2.0082  0.1815 -1.4355
12224TIP3   OH258086   2.352   2.026  14.116 -0.3477 -0.3877  0.2859
12224TIP3    H158087   2.324   2.096  14.176  0.8931  0.5187 -0.1430
12224TIP3    H258088   2.384   1.957  14.174 -0.5419 -0.1460  0.6919
12225TIP3   OH258089   1.051   1.909  12.749 -0.0010  0.2023 -0.0015
12225TIP3    H158090   1.142   1.919  12.778  0.4355  0.8251 -1.4790
12225TIP3    H258091   1.048   1.954  12.665 -1.1864 -1.5533 -0.9442
12226TIP3   OH258092   3.445   4.561   1.963 -0.0432  0.4317  0.3702
12226TIP3    H158093   3.514   4.627   1.969  0.4179 -0.1372  1.6532
12226TIP3    H258094   3.433   4.548   1.869  1.1031  1.0503  0.1147
12227TIP3   OH258095   1.700   1.071   4.341 -0.2364  0.2985  0.2492
12227TIP3    H158096   1.614   1.079   4.300 -0.1056  2.1752  0.2698
12227TIP3    H258097   1.692   1.117   4.424  0.0531 -1.8485  1.5626
12228TIP3   OH258098   6.199   3.018  12.510  0.2609  0.1513  0.3185
12228TIP3    H158099   6.228   2.999  12.599  0.4653 -1.3054 -0.0311
12228TIP3    H258100   6.153   2.939  12.483  0.9995  0.2093 -1.1925
12229TIP3   OH258101   5.083   4.011   2.346 -0.1078 -0.5374 -0.2408
12229TIP3    H158102   5.009   4.007   2.405  0.3078 -1.6317  0.2252
12229TIP3    H258103   5.061   3.952   2.274 -0.2650  0.1781 -0.8001
12230TIP3   OH258104   1.640   3.083   1.763 -0.2539  0.3689  0.3280
12230TIP3    H158105   1.659   3.176   1.779  0.6602  0.3517 -0.5700
12230TIP3    H258106   1.722   3.047   1.729 -0.2239 -1.0569  1.7917
12231TIP3   OH258107   2.496   6.766  13.532  0.4660 -0.5280  0.5364
12231TIP3    H158108   2.543   6.686  13.555  1.7291 -0.1727 -0.5977
12231TIP3    H258109   2.562   6.819  13.486 -0.5234  0.8737  0.6707
12232TIP3   OH258110   3.050   4.088   2.480  0.0206 -0.4336 -0.3185
12232TIP3    H158111   3.021   4.036   2.405  2.9786 -1.0837 -1.1311
12232TIP3    H258112   3.144   4.101   2.465  0.3571  0.9124  2.4263
12233TIP3   OH258113   2.110   5.073   1.672 -0.1898 -0.1925  0.0366
12233TIP3    H158114   2.184   5.066   1.731 -0.5475 -1.7138  0.3504
12233TIP3    H258115   2.065   5.154   1.698  0.8861  0.3043  0.3758
12234TIP3   OH258116   1.803   0.717  10.067 -0.1158  0.0748  0.0032
12234TIP3    H158117   1.876   0.668  10.104 -1.1106 -1.5277 -0.0722
12234TIP3    H258118   1.768   0.768  10.141  0.1090 -0.3562  0.4083
12235TIP3   OH258119   6.629   0.505  16.180  0.5263 -0.2561 -0.0222
12235TIP3    H158120   6.551   0.551  16.148  0.4853  0.3789  0.9389
12235TIP3    H258121   6.680   0.486  16.101 -0.4847 -0.4741 -0.6411
12236TIP3   OH258122   6.167   1.464  13.501  0.4172 -0.3094 -0.0984
12236TIP3    H158123   6.236   1.468  13.568  0.3984  1.0382 -0.1291
12236TIP3    H258124   6.215   1.474  13.419  0.1858  0.9062 -0.1044
12237TIP3   OH258125   3.532   0.586   0.012  0.4253 -0.2825  0.3008
12237TIP3    H158126   3.578   0.640   0.076  0.1839  0.3124 -0.0192
12237TIP3    H258127   3.573   0.607  -0.072  1.0575 -1.4124  0.3116
12238TIP3   OH258128   3.866   1.446  15.227 -0.0601  0.1960 -0.3426
12238TIP3    H158129   3.797   1.415  15.168  0.2278  0.2703 -0.7212
12238TIP3    H258130   3.899   1.525  15.186  1.3099 -0.6718 -0.9889
12239TIP3   OH258131   3.876   3.162   5.953  0.0511 -0.5524  0.5081
12239TIP3    H158132   3.872   3.127   5.865  1.2608  1.8489 -0.6140
12239TIP3    H258133   3.963   3.201   5.959 -0.1742 -0.2434  2.6094
12240TIP3   OH258134   5.355   0.069  15.855 -0.2582  0.0968 -0.1326
12240TIP3    H158135   5.298   0.113  15.918 -0.5929  1.3623 -1.2633
12240TIP3    H258136   5.299   0.006  15.811 -0.0125 -0.8203  0.8511
12241TIP3   OH258137   5.114   3.865  13.210  0.0926 -0.6509  0.5175
12241TIP3    H158138   5.146   3.922  13.140 -1.8946  0.1790  0.2252
12241TIP3    H258139   5.165   3.784  13.199  1.2293  0.1723 -0.6174
12242TIP3   OH258140   1.431   3.284   3.473 -0.0116 -0.0741 -0.3663
12242TIP3    H158141   1.524   3.302   3.459  0.2329 -2.4254 -2.2890
12242TIP3    H258142   1.386   3.357   3.430  0.8951  0.9010  0.2729
12243TIP3   OH258143   3.259   0.056   0.746 -0.2523  0.0902 -0.0798
12243TIP3    H158144   3.222   0.099   0.823  0.0363  0.6299 -0.2411
12243TIP3    H258145   3.270   0.126   0.681  0.1785 -0.2276 -0.3607
12244TIP3   OH258146   1.576   2.472   5.858  0.1459  0.1634  0.0658
12244TIP3    H158147   1.567   2.480   5.763 -0.2660  0.2710  0.1091
12244TIP3    H258148   1.548   2.557   5.892 -0.4628 -0.1249  0.3209
12245TIP3   OH258149   2.452   5.255  13.290 -0.3576  0.1234 -0.3414
12245TIP3    H158150   2.447   5.202  13.370  0.8684 -1.1151 -1.0571
12245TIP3    H258151   2.370   5.236  13.244 -0.6597  0.1395  0.1787
12246TIP3   OH258152   1.422   4.225   1.168 -0.2349 -0.1569 -0.4392
12246TIP3    H158153   1.448   4.309   1.208 -3.0536  0.7127 -0.2136
12246TIP3    H258154   1.342   4.246   1.119 -1.5034 -2.8542  0.2958
12247TIP3   OH258155   0.200   3.468   3.680  0.0197 -0.1139  0.3374
12247TIP3    H158156   0.272   3.460   3.742 -0.9028 -1.3259  1.3060
12247TIP3    H258157   0.158   3.382   3.680 -1.2992  0.4872 -0.3573
12248TIP3   OH258158   4.148   2.869   4.113 -0.3355  0.3712 -0.7636
12248TIP3    H158159   4.240   2.848   4.097 -0.3227  0.2464 -0.5373
12248TIP3    H258160   4.144   2.887   4.207 -0.5970  0.0900 -0.7178
12249TIP3   OH258161   5.448   5.880  14.588  0.4428 -0.1618  0.0508
12249TIP3    H158162   5.400   5.947  14.540  0.4222 -0.4948 -0.4013
12249TIP3    H258163   5.395   5.863  14.665 -1.0163 -1.6498 -1.1911
12250TIP3   OH258164   0.753   6.231   1.917 -0.3585 -0.9690  0.1875
12250TIP3    H158165   0.678   6.179   1.946 -0.9130  0.3524  1.2039
12250TIP3    H258166   0.781   6.278   1.995 -0.2885  0.7502 -0.8324
12251TIP3   OH258167   3.703   4.505  12.631 -0.3253  0.1310 -0.0177
12251TIP3    H158168   3.638   4.517  12.700  1.1208 -0.6440  1.5655
12251TIP3    H258169   3.784   4.484  12.678  1.1103  1.1535 -1.8990
12252TIP3   OH258170   0.758   4.607   5.151 -0.0721  0.0923 -0.3146
12252TIP3    H158171   0.780   4.564   5.233 -0.6305  1.0997  0.3786
12252TIP3    H258172   0.663   4.616   5.153 -0.0454  0.5846 -0.8346
12253TIP3   OH258173   5.801   2.346   5.141 -0.1044  0.6571  0.0071
12253TIP3    H158174   5.871   2.386   5.192 -0.6312  0.6980  0.7045
12253TIP3    H258175   5.769   2.273   5.195 -0.0806  0.1494 -0.6438
12254TIP3   OH258176   5.676   3.246   3.957  0.1324  0.1829  0.5710
12254TIP3    H158177   5.703   3.168   3.908 -0.7560  0.9686 -1.2792
12254TIP3    H258178   5.727   3.243   4.038  0.9827 -1.6798  0.0164
12255TIP3   OH258179   1.462   2.443  14.704 -0.0195 -0.0352  0.6565
12255TIP3    H158180   1.511   2.522  14.724 -1.7155  2.1195 -2.7514
12255TIP3    H258181   1.515   2.398  14.638 -1.5526  1.3836 -1.6980
12256TIP3   OH258182   1.711   4.606   1.598 -0.1395  0.5878 -0.1028
12256TIP3    H158183   1.662   4.525   1.578 -0.7252  1.1564 -1.0841
12256TIP3    H258184   1.644   4.674   1.602  0.1301  0.7980  2.4523
12257TIP3   OH258185   0.901   1.106  11.824 -0.0265  0.6360 -0.1985
12257TIP3    H158186   0.875   1.134  11.912 -0.3154  0.0412 -0.0926
12257TIP3    H258187   0.877   1.014  11.820 -0.6680  0.8327 -1.1502
12258TIP3   OH258188   0.899   1.481  15.508  0.3567 -0.1499  0.0150
12258TIP3    H158189   0.853   1.398  15.515  0.2022 -0.3284 -2.2030
12258TIP3    H258190   0.933   1.498  15.595 -0.6668 -1.9113  0.8066
12259TIP3   OH258191   1.994   3.412  15.792  0.1779  0.7365 -0.2949
12259TIP3    H158192   2.083   3.378  15.803  0.3501  1.3398  0.2865
12259TIP3    H258193   2.003   3.484  15.729 -0.3770 -1.0019 -2.4462
12260TIP3   OH258194   2.863   4.790  11.419  0.1422  0.2188 -0.3226
12260TIP3    H158195   2.884   4.781  11.326  0.9975  2.1482 -0.3575
12260TIP3    H258196   2.773   4.823  11.420  0.1995  0.3807 -0.4625
12261TIP3   OH258197   3.745   1.449   0.797  0.1800  0.0720 -0.4213
12261TIP3    H158198   3.799   1.378   0.762 -0.9793 -0.5490 -1.0135
12261TIP3    H258199   3.663   1.443   0.747 -0.5698  0.7675  0.6890
12262TIP3   OH258200   4.141   4.573   3.884 -0.2581 -0.6684 -0.0368
12262TIP3    H158201   4.234   4.553   3.874  0.0974  0.5126  0.6820
12262TIP3    H258202   4.127   4.575   3.979 -1.2490 -1.7805 -0.1400
12263TIP3   OH258203   2.251   6.480  11.031  0.5110  0.1361  0.2729
12263TIP3    H158204   2.342   6.464  11.008  0.6515  1.0639  0.1556
12263TIP3    H258205   2.204   6.403  10.999  1.2801 -0.4584  0.5494
12264TIP3   OH258206   5.348   1.980  13.233  0.2793  0.0186  0.5827
12264TIP3    H158207   5.373   1.937  13.151 -0.3187 -0.8737  0.8585
12264TIP3    H258208   5.299   2.058  13.205  1.8328  0.8518  0.0751
12265TIP3   OH258209   0.179   2.570   1.343 -0.3039 -0.0502 -0.2546
12265TIP3    H158210   0.255   2.605   1.296 -0.3494 -0.0388 -0.3202
12265TIP3    H258211   0.177   2.618   1.425 -0.3604  0.0965 -0.3411
12266TIP3   OH258212   3.304   5.126  15.183  0.5298  0.0951  0.4813
12266TIP3    H158213   3.352   5.065  15.239 -0.2728  0.2322  1.3376
12266TIP3    H258214   3.221   5.082  15.166  0.3294  0.5366  0.3134
12267TIP3   OH258215   5.775   6.794   3.970  0.6197  0.2183  0.0745
12267TIP3    H158216   5.861   6.826   3.943  0.1474  1.4712 -0.0377
12267TIP3    H258217   5.714   6.861   3.939 -0.2834 -0.0557  1.1897
12268TIP3   OH258218   1.173   1.363  15.687 -0.4300 -0.9721  0.2470
12268TIP3    H158219   1.191   1.382  15.595 -0.4730  0.4630  0.5011
12268TIP3    H258220   1.091   1.315  15.686  0.0917 -1.8712 -0.5223
12269TIP3   OH258221   5.258   1.096  14.748 -0.5628  0.4480 -0.3167
12269TIP3    H158222   5.273   1.001  14.756 -1.2557  0.4028  0.6036
12269TIP3    H258223   5.342   1.135  14.774  0.2371  0.0900 -2.1655
12270TIP3   OH258224   3.063   0.510  16.246 -0.0629 -0.2401  0.3728
12270TIP3    H158225   3.158   0.520  16.253  0.3514 -2.6792 -0.8674
12270TIP3    H258226   3.034   0.586  16.196  1.3537  0.0895  0.0175
12271TIP3   OH258227   1.755   4.678   2.832  0.3051  0.2914  0.6111
12271TIP3    H158228   1.781   4.752   2.777  0.4167 -0.4091 -0.3055
12271TIP3    H258229   1.821   4.611   2.814 -0.8170 -0.6838  0.0296
12272TIP3   OH258230   5.835   4.792  11.391  0.1118  0.2776 -0.4933
12272TIP3    H158231   5.778   4.716  11.375  1.7502 -1.0315 -0.3933
12272TIP3    H258232   5.784   4.867  11.359 -2.1790 -0.6310  0.7682
12273TIP3   OH258233   4.321   5.569  15.028  0.6823 -0.5134 -0.3984
12273TIP3    H158234   4.347   5.658  15.055  0.9257 -0.3092 -1.2857
12273TIP3    H258235   4.382   5.512  15.075  1.1148 -0.1593 -0.5201
12274TIP3   OH258236   1.706   5.164  14.081 -0.6378 -0.2718 -0.5512
12274TIP3    H158237   1.638   5.228  14.064  1.7660  1.7679 -3.4697
12274TIP3    H258238   1.759   5.204  14.150  0.1324  0.3316 -1.4739
12275TIP3   OH258239   1.449   1.560  15.261  0.1910  0.3942 -0.2778
12275TIP3    H158240   1.543   1.551  15.245  0.5785 -0.4288  2.1059
12275TIP3    H258241   1.443   1.628  15.328 -1.2239  2.7323 -2.5867
12276TIP3   OH258242   5.629   4.116   3.204 -0.0360  0.0166 -0.2060
12276TIP3    H158243   5.535   4.124   3.223 -0.3499  0.6838 -1.8467
12276TIP3    H258244   5.666   4.075   3.282 -1.5600  0.4739  0.7969
12277TIP3   OH258245   4.267   3.032  12.942  0.0794  0.3431  0.4113
12277TIP3    H158246   4.211   3.105  12.916 -0.0018  0.5624  1.1717
12277TIP3    H258247   4.207   2.966  12.975  0.1629 -0.0202 -0.1518
12278TIP3   OH258248   4.034   5.567  16.328 -0.1297 -0.2716  0.7975
12278TIP3    H158249   4.037   5.471  16.333  0.3958 -0.3645 -0.7529
12278TIP3    H258250   4.028   5.585  16.235  1.7095  1.2521  0.9283
12279TIP3   OH258251   3.822   4.864  16.416  0.1184 -0.4586  0.3501
12279TIP3    H158252   3.914   4.870  16.389 -0.0440  0.0618 -0.1143
12279TIP3    H258253   3.825   4.858  16.511  0.7197 -2.4394  0.2610
12280TIP3   OH258254   0.321   3.665   2.009 -0.2827  0.0511 -0.3206
12280TIP3    H158255   0.411   3.638   2.024  0.3950  0.7069 -2.7511
12280TIP3    H258256   0.276   3.585   1.982 -0.2186 -0.1216  0.0848
12281TIP3   OH258257   1.963   1.782   1.344 -0.4227  0.2441  0.1532
12281TIP3    H158258   2.002   1.766   1.259 -0.5546  0.6245  0.0186
12281TIP3    H258259   1.918   1.866   1.335  0.2255  0.6782  0.8287
12282TIP3   OH258260   1.286   5.706  12.294  0.4918 -0.1721  0.5352
12282TIP3    H158261   1.218   5.740  12.236  0.4902 -0.0793  0.5930
12282TIP3    H258262   1.256   5.727  12.382  0.2303 -0.7947  0.5980
12283TIP3   OH258263   2.880   1.369   3.294 -0.1605  0.4067  0.6069
12283TIP3    H158264   2.878   1.400   3.384 -2.5791  1.9534  0.1087
12283TIP3    H258265   2.931   1.434   3.246  0.9800 -0.3254  0.7985
12284TIP3   OH258266   2.699   3.072   1.218  0.7193  0.4811 -0.3464
12284TIP3    H158267   2.668   3.016   1.290  2.5008 -1.4215 -0.9632
12284TIP3    H258268   2.643   3.149   1.223  1.1613  0.7737  3.4733
12285TIP3   OH258269   3.396   5.643   1.081 -0.5299  0.6777 -0.0350
12285TIP3    H158270   3.444   5.695   1.145  2.1719 -0.4425 -1.0371
12285TIP3    H258271   3.346   5.580   1.134 -0.4699  1.4959  1.0282
12286TIP3   OH258272   3.672   5.297   3.100  0.8600 -0.4093  0.4505
12286TIP3    H158273   3.714   5.331   3.022  0.9584 -0.1108  0.6305
12286TIP3    H258274   3.741   5.295   3.167  0.7615 -0.5963  0.5501
12287TIP3   OH258275   4.525   4.519  16.038 -0.1436  0.0308 -0.4418
12287TIP3    H158276   4.449   4.483  15.992  0.4972 -0.0262 -1.4856
12287TIP3    H258277   4.600   4.475  15.998  0.4925  0.7352 -0.0364
12288TIP3   OH258278   5.994   5.109   5.994 -0.4899 -0.3752 -0.2491
12288TIP3    H158279   5.990   5.198   6.030 -0.3637 -0.2956 -0.4240
12288TIP3    H258280   5.981   5.052   6.069 -0.9772 -0.2023 -0.2010
12289TIP3   OH258281   3.200   4.451  14.857 -0.2330  0.1879  0.4232
12289TIP3    H158282   3.140   4.489  14.921 -1.8573  0.1548 -1.0102
12289TIP3    H258283   3.207   4.359  14.883  0.3783  0.5121  1.4507
12290TIP3   OH258284   3.919   1.954   3.965  0.0434 -0.1490 -0.0737
12290TIP3    H158285   4.009   1.975   3.993 -0.5413 -0.3290  2.1241
12290TIP3    H258286   3.922   1.861   3.943  0.2950 -0.2670  0.4471
12291TIP3   OH258287   2.169   2.844   3.607  0.2648  0.4525 -0.1706
12291TIP3    H158288   2.240   2.788   3.575  0.9138  1.1771 -0.0148
12291TIP3    H258289   2.178   2.925   3.556  0.7184  1.2590  1.1542
12292TIP3   OH258290   1.866   1.723  15.740 -0.6098 -0.1900  0.5202
12292TIP3    H158291   1.940   1.757  15.791 -0.8935  0.2734  0.6332
12292TIP3    H258292   1.844   1.641  15.783 -0.7546  0.1287  1.0648
12293TIP3   OH258293   3.597   3.312  13.477  0.5074 -0.4896  0.2186
12293TIP3    H158294   3.584   3.372  13.404  1.9516  0.3408  0.5927
12293TIP3    H258295   3.641   3.236  13.439 -0.6416 -0.9981 -0.1236
12294TIP3   OH258296   1.798   2.365  11.993  0.2070 -0.0060 -0.3552
12294TIP3    H158297   1.880   2.378  12.041  0.0236  0.5779 -0.1882
12294TIP3    H258298   1.736   2.424  12.036  0.0759  0.6381 -1.4048
12295TIP3   OH258299   5.496   6.446   6.280  0.0376  0.2524  0.4215
12295TIP3    H158300   5.516   6.530   6.320 -1.8234  2.7576 -3.2874
12295TIP3    H258301   5.401   6.438   6.286  0.1404 -1.4226  0.3426
12296TIP3   OH258302   5.511   2.175  15.519 -0.1659  0.2569 -0.1700
12296TIP3    H158303   5.585   2.173  15.580 -0.7061  1.2688  0.5510
12296TIP3    H258304   5.472   2.088  15.525  0.3484  0.0503  0.2154
12297TIP3   OH258305   2.606   1.040  14.922  0.0261  0.3087 -0.4775
12297TIP3    H158306   2.545   1.111  14.902 -1.3693 -0.5017  0.7337
12297TIP3    H258307   2.554   0.976  14.970  1.7003 -0.7132  0.0613
12298TIP3   OH258308   3.905   3.998  10.762 -0.4076  0.0404 -0.1883
12298TIP3    H158309   3.935   3.982  10.851 -0.0977  0.3684 -0.2302
12298TIP3    H258310   3.810   4.004  10.769 -0.6123 -2.1944 -0.2304
12299TIP3   OH258311   2.015   4.923  11.828 -0.2555  0.9758 -0.1428
12299TIP3    H158312   2.023   5.018  11.837 -1.6162  1.0556  0.6344
12299TIP3    H258313   1.970   4.911  11.744  2.2193  0.8342 -1.5470
12300TIP3   OH258314   3.957   2.464   0.571 -0.0132  0.4214 -0.4065
12300TIP3    H158315   3.888   2.473   0.505  0.0600 -0.2202 -0.5818
12300TIP3    H258316   4.028   2.420   0.525  0.3379  0.6614 -0.1019
12301TIP3   OH258317   0.491   4.467  16.758 -0.2450 -0.2088 -0.0349
12301TIP3    H158318   0.489   4.392  16.818 -1.2444 -0.1415  0.0401
12301TIP3    H258319   0.522   4.431  16.675 -0.8009 -0.7316 -0.0229
12302TIP3   OH258320   4.299   2.142   6.445  0.2167 -0.0123 -0.6152
12302TIP3    H158321   4.388   2.119   6.418  0.2184  1.3423 -1.8876
12302TIP3    H258322   4.259   2.059   6.470  1.8344 -0.6405 -0.0126
12303TIP3   OH258323   3.892   4.411   5.893 -0.3833  0.3576  0.4673
12303TIP3    H158324   3.881   4.397   5.987  2.3524  4.0529  1.5726
12303TIP3    H258325   3.829   4.480   5.871  0.5907  1.1700  0.1649
12304TIP3   OH258326   3.531   6.401   3.235  0.0249  0.5409 -0.1424
12304TIP3    H158327   3.508   6.384   3.143 -0.8333  0.4407  0.0813
12304TIP3    H258328   3.540   6.314   3.274 -1.8121  0.5416  0.3827
12305TIP3   OH258329   0.348   2.032  13.602  0.5315  0.0052 -0.0970
12305TIP3    H158330   0.376   1.954  13.650 -0.2723 -0.1205  0.1805
12305TIP3    H258331   0.427   2.086  13.595  0.4795  0.4724  2.1852
12306TIP3   OH258332   2.249   4.844   5.115  0.3940 -0.3420 -0.1272
12306TIP3    H158333   2.333   4.865   5.075  0.8945 -1.5895  0.2088
12306TIP3    H258334   2.223   4.924   5.160  1.8882 -0.2174  0.5911
12307TIP3   OH258335   5.865   6.228   2.606  0.1533  0.3082  0.1758
12307TIP3    H158336   5.917   6.151   2.583 -3.0973 -2.1600  0.4599
12307TIP3    H258337   5.791   6.193   2.655 -0.7436  3.8318  1.6048
12308TIP3   OH258338   2.484   5.682  14.634  0.4698  0.7621 -0.0384
12308TIP3    H158339   2.556   5.737  14.604  0.7050 -0.8108 -2.6952
12308TIP3    H258340   2.445   5.648  14.553 -1.0926 -1.1492  1.4259
12309TIP3   OH258341   6.148   1.241   0.165  0.3486 -0.2651 -0.1505
12309TIP3    H158342   6.219   1.212   0.107 -0.3600  0.8644 -1.6714
12309TIP3    H258343   6.098   1.303   0.112 -0.9187  0.0955  1.3832
12310TIP3   OH258344   6.638   3.123  14.377 -0.7848 -0.1657 -0.3607
12310TIP3    H158345   6.598   3.200  14.337  1.1889 -0.0360 -2.2981
12310TIP3    H258346   6.645   3.060  14.305  0.5724 -0.9186  0.3907
12311TIP3   OH258347   3.325   6.248   6.166  0.2346 -0.9067  0.1290
12311TIP3    H158348   3.375   6.319   6.207 -0.9584 -0.3492  0.6612
12311TIP3    H258349   3.264   6.220   6.233 -0.7331 -1.0023 -0.7715
12312TIP3   OH258350   4.841   4.319   2.300 -0.5683  0.0925  0.2458
12312TIP3    H158351   4.899   4.388   2.270  0.9328 -1.3466 -0.3376
12312TIP3    H258352   4.855   4.247   2.238 -2.5259 -0.5250  0.4676
12313TIP3   OH258353   2.000   3.217   4.833 -0.1596  0.6741 -0.0019
12313TIP3    H158354   2.045   3.296   4.862 -2.3530  1.4759  1.4759
12313TIP3    H258355   2.031   3.202   4.744  1.4377  2.3178  0.2415
12314TIP3   OH258356   1.760   2.100  11.372 -0.7541 -0.4459  0.1850
12314TIP3    H158357   1.849   2.120  11.345 -0.2840  0.4833  2.2511
12314TIP3    H258358   1.739   2.166  11.438 -2.0332 -2.1710  1.5962
12315TIP3   OH258359   3.336   3.937  13.081 -0.4463 -0.4280  0.1258
12315TIP3    H158360   3.269   3.984  13.130 -0.7185  0.4754 -1.0558
12315TIP3    H258361   3.294   3.917  12.997  0.4038 -0.8275 -0.2131
12316TIP3   OH258362   1.256   5.614  15.957  0.5332 -0.1707  0.6515
12316TIP3    H158363   1.211   5.699  15.963 -1.1246 -0.3420 -4.4285
12316TIP3    H258364   1.348   5.636  15.947  0.1248  1.0991 -0.6386
12317TIP3   OH258365   6.057   1.526  16.144  0.1269 -0.3028 -0.2249
12317TIP3    H158366   6.011   1.608  16.128 -2.0331 -1.6003 -1.2285
12317TIP3    H258367   6.041   1.474  16.065  0.3576 -2.1198  0.8609
12318TIP3   OH258368   1.326   3.607  12.685 -0.5191 -0.1089 -0.2533
12318TIP3    H158369   1.356   3.607  12.594 -0.1306  0.8089 -0.1408
12318TIP3    H258370   1.280   3.690  12.695 -0.0693  0.0548  0.5423
12319TIP3   OH258371   0.390   1.009  16.730  0.0664  0.3072  0.4787
12319TIP3    H158372   0.397   1.059  16.649 -0.7867  0.7501  0.6637
12319TIP3    H258373   0.386   1.075  16.799 -2.7544  0.1222  0.6106
12320TIP3   OH258374   0.744   6.459  13.678  0.1563  0.5188 -0.2076
12320TIP3    H158375   0.658   6.492  13.652  0.0839  0.4245 -0.0867
12320TIP3    H258376   0.788   6.536  13.716 -0.1464  0.3981  0.4108
12321TIP3   OH258377   5.384   6.410   5.200  0.3318 -0.4301  0.8570
12321TIP3    H158378   5.403   6.476   5.134  0.7136 -0.6590  0.7362
12321TIP3    H258379   5.301   6.371   5.172  0.4902 -0.5222  0.5162
12322TIP3   OH258380   1.643   3.924   1.962  0.1953 -0.1390  0.3145
12322TIP3    H158381   1.610   3.884   2.042  2.3157  1.3218  2.0683
12322TIP3    H258382   1.723   3.875   1.942 -0.2621 -0.4225 -0.8590
12323TIP3   OH258383   1.422   1.784  13.988 -0.4697 -0.0590 -0.3161
12323TIP3    H158384   1.348   1.760  13.931 -0.1980 -2.1344  0.1036
12323TIP3    H258385   1.497   1.739  13.949 -0.1960 -1.1321  1.3607
12324TIP3   OH258386   4.989   0.302  13.402  0.2469 -0.9348  0.5450
12324TIP3    H158387   5.079   0.279  13.380  0.6586  0.4432  0.6617
12324TIP3    H258388   4.994   0.329  13.494  0.1183  1.0001  0.0187
12325TIP3   OH258389   4.268   4.989   3.450  0.3716  0.1512  0.0438
12325TIP3    H158390   4.256   5.000   3.355 -0.7669 -0.6490  0.0689
12325TIP3    H258391   4.318   4.908   3.458 -0.3352 -0.2857  0.1379
12326TIP3   OH258392   3.826   5.213  10.726  0.2197 -0.3788 -0.0432
12326TIP3    H158393   3.831   5.246  10.816 -2.4133  0.2015 -0.0389
12326TIP3    H258394   3.741   5.241  10.694  1.5728  0.5761 -3.2315
12327TIP3   OH258395   0.514   0.481   0.574 -0.1682  0.6342  0.0464
12327TIP3    H158396   0.501   0.387   0.568 -0.7619  0.6518  0.8548
12327TIP3    H258397   0.608   0.494   0.561  0.0405 -0.1519  0.7028
12328TIP3   OH258398   1.827   0.649  12.924 -0.8225 -0.2819 -0.5967
12328TIP3    H158399   1.752   0.595  12.948 -1.2110  0.1616 -0.7742
12328TIP3    H258400   1.902   0.591  12.929 -1.3203 -1.0302 -1.5042
12329TIP3   OH258401   1.599   5.491   6.845 -0.0244 -0.2624  0.9285
12329TIP3    H158402   1.631   5.462   6.930  1.8842 -0.2437  0.2711
12329TIP3    H258403   1.646   5.437   6.781 -0.1231  0.8721 -0.1526
12330TIP3   OH258404   3.338   3.512  14.966 -0.0784  0.5567 -0.2934
12330TIP3    H158405   3.284   3.567  15.022  0.4172  1.0488 -0.2964
12330TIP3    H258406   3.328   3.424  15.003 -1.7098  0.4347 -0.9084
12331TIP3   OH258407   2.000   3.171   1.906  0.2268  0.1521 -0.0083
12331TIP3    H158408   2.083   3.209   1.878  0.3642  0.2561  0.5199
12331TIP3    H258409   2.025   3.102   1.967 -0.0899  1.1563  1.3199
12332TIP3   OH258410   1.456   2.956  10.848  1.3403 -0.5217 -0.3948
12332TIP3    H158411   1.521   2.978  10.914  0.4474  0.7803  0.0981
12332TIP3    H258412   1.449   3.035  10.794 -1.3001  0.2221  0.8586
12333TIP3   OH258413   5.326   0.981  15.956  0.1461  0.4402  0.3295
12333TIP3    H158414   5.338   0.994  16.050 -2.2120  0.1372  0.7398
12333TIP3    H258415   5.402   0.931  15.929  1.0865  0.8837  1.9916
12334TIP3   OH258416   4.648   4.257   1.906  0.5971  0.1635  0.0334
12334TIP3    H158417   4.608   4.336   1.942  0.3885  1.0387 -1.9993
12334TIP3    H258418   4.739   4.280   1.892  0.9032 -0.4930  0.8809
12335TIP3   OH258419   6.763   1.818   1.867 -0.4443  0.0599 -0.8385
12335TIP3    H158420   6.814   1.896   1.847 -0.5229 -0.1938 -2.1404
12335TIP3    H258421   6.677   1.851   1.892 -0.5766  0.3910 -1.6983
12336TIP3   OH258422   1.781   2.392  13.387 -0.1313 -0.0703 -0.2021
12336TIP3    H158423   1.874   2.384  13.368 -0.3556 -0.7289 -1.0773
12336TIP3    H258424   1.742   2.311  13.354 -0.8060 -0.5226  1.5819
12337TIP3   OH258425   0.436   2.578   4.736  0.2898  0.2605  0.5867
12337TIP3    H158426   0.463   2.633   4.809 -0.3261  1.0133  0.2652
12337TIP3    H258427   0.378   2.513   4.775  2.5238 -1.4221  1.2949
12338TIP3   OH258428   5.162   0.227  15.998 -0.0482  0.2808  1.1340
12338TIP3    H158429   5.122   0.291  15.940 -1.4117 -1.7446 -0.2729
12338TIP3    H258430   5.211   0.280  16.062 -0.7274  2.6623 -0.2034
12339TIP3   OH258431   0.996   1.471   3.159  0.2677  0.4620  0.0991
12339TIP3    H158432   1.083   1.499   3.185  0.6572 -1.6022  1.1934
12339TIP3    H258433   0.952   1.448   3.240 -1.2388  1.2234 -0.4558
12340TIP3   OH258434   5.344   6.802  12.431  0.1547  0.9036  0.5645
12340TIP3    H158435   5.295   6.857  12.370  1.6201  0.8614 -0.7154
12340TIP3    H258436   5.347   6.716  12.389  0.4542  0.6450  1.1027
12341TIP3   OH258437   1.887   4.571   0.887 -0.2638  0.4228 -0.1258
12341TIP3    H158438   1.813   4.517   0.916 -0.2736 -0.5659 -1.8636
12341TIP3    H258439   1.963   4.512   0.893 -0.3629 -0.0756 -2.6055
12342TIP3   OH258440   6.778   5.000   4.143 -0.2348  0.0363 -0.0409
12342TIP3    H158441   6.805   4.964   4.228 -0.3189 -2.3121 -0.9397
12342TIP3    H258442   6.860   5.029   4.103 -0.1771  1.0410  0.7668
12343TIP3   OH258443   0.620   0.478   3.147  0.5922  0.2639 -0.2820
12343TIP3    H158444   0.542   0.479   3.091  0.6667 -1.4547 -0.4748
12343TIP3    H258445   0.652   0.568   3.145  0.2127  0.4053 -2.4766
12344TIP3   OH258446   2.509   2.902  12.267  0.4494 -0.5787 -0.4638
12344TIP3    H158447   2.453   2.852  12.207  0.0865 -1.0443  0.2553
12344TIP3    H258448   2.572   2.839  12.299 -0.8777 -0.9725  1.5473
12345TIP3   OH258449   5.654   5.603  13.838 -0.9297  0.0213 -0.2104
12345TIP3    H158450   5.696   5.634  13.918  0.5042 -0.6871 -0.6537
12345TIP3    H258451   5.686   5.661  13.770 -0.7086 -0.4856 -0.5460
12346TIP3   OH258452   5.940   0.209   0.597  0.4136  0.5685 -0.6173
12346TIP3    H158453   5.905   0.121   0.586  1.6234 -0.2040  1.2081
12346TIP3    H258454   5.866   0.261   0.628  0.3886 -0.6527  1.6160
12347TIP3   OH258455   3.089   0.447   2.221 -0.4938  0.0941  0.2550
12347TIP3    H158456   3.113   0.378   2.284 -1.7447  1.0559  1.8641
12347TIP3    H258457   3.066   0.399   2.142 -1.2368 -1.3554  1.2972
12348TIP3   OH258458   4.595   6.576   2.586  0.1015  0.3307  0.0272
12348TIP3    H158459   4.586   6.670   2.595  0.0104  0.2692  0.6343
12348TIP3    H258460   4.595   6.560   2.492  1.6844  1.0866 -0.1216
12349TIP3   OH258461   2.519   1.345   5.283  0.1221 -0.2137  0.0858
12349TIP3    H158462   2.444   1.294   5.252  0.7760 -0.7538 -0.6588
12349TIP3    H258463   2.493   1.378   5.369 -0.7954 -0.7611  0.0210
12350TIP3   OH258464   2.247   2.620  15.291  0.4559  0.0196  0.3634
12350TIP3    H158465   2.298   2.674  15.231 -0.4918  0.6444  0.0889
12350TIP3    H258466   2.291   2.629  15.375  0.3984  1.1222  0.2894
12351TIP3   OH258467   6.018   2.078  12.411  0.0028 -0.5179  0.0340
12351TIP3    H158468   6.056   2.140  12.473 -1.2542  1.8655 -1.4198
12351TIP3    H258469   6.084   2.071  12.341  0.1442 -0.8055  0.1974
12352TIP3   OH258470   6.310   3.455   0.285  0.0012 -0.0900  0.2947
12352TIP3    H158471   6.234   3.398   0.273 -0.0351  0.0168  0.0228
12352TIP3    H258472   6.309   3.514   0.210 -0.4326  0.8203  1.0035
12353TIP3   OH258473   5.016   4.986  14.246 -0.0522  0.4093 -0.2596
12353TIP3    H158474   5.093   4.977  14.189  1.2919 -0.8051  1.6120
12353TIP3    H258475   5.030   5.068  14.293  0.7284 -0.3382  0.8737
12354TIP3   OH258476   5.058   6.808   3.448  0.2017  0.2609  0.2281
12354TIP3    H158477   4.967   6.828   3.426 -0.3718 -1.6580  0.6810
12354TIP3    H258478   5.054   6.772   3.537  1.4525  0.4771  0.3869
12355TIP3   OH258479   6.758   0.887   0.456 -0.3286 -0.1223  0.3951
12355TIP3    H158480   6.775   0.945   0.383  1.5948 -0.8525  0.2011
12355TIP3    H258481   6.663   0.875   0.457 -0.6454  2.0538 -0.2601
12356TIP3   OH258482   6.472   6.725  13.528  0.8270  0.0460  0.4575
12356TIP3    H158483   6.518   6.763  13.453  0.5379  0.4573  0.4831
12356TIP3    H258484   6.495   6.632  13.526  3.9072  0.6249  2.0827
12357TIP3   OH258485   1.923   3.699   3.317  0.4388  0.1658 -0.1024
12357TIP3    H158486   1.846   3.706   3.373  0.9789 -0.4259  0.7445
12357TIP3    H258487   1.888   3.698   3.228 -0.5863 -0.7704  0.2833
12358TIP3   OH258488   5.861   6.231   1.127  0.2943  0.5621 -0.2086
12358TIP3    H158489   5.913   6.177   1.187  0.3364  0.0056 -0.7382
12358TIP3    H258490   5.801   6.279   1.184 -1.3129 -1.7394  0.1467
12359TIP3   OH258491   0.279   3.761  12.509  0.3382 -0.2868  1.0103
12359TIP3    H158492   0.235   3.704  12.572 -2.1221  0.0798 -0.2604
12359TIP3    H258493   0.327   3.701  12.452  1.4372 -0.7133  2.3186
12360TIP3   OH258494   4.290   4.986   2.314  0.1029  0.1548  0.2849
12360TIP3    H158495   4.271   4.973   2.407  0.4999  1.6562  0.5923
12360TIP3    H258496   4.345   4.912   2.290 -1.1392 -1.0039  0.8795
12361TIP3   OH258497   2.179   5.827   0.108 -0.3631  0.0105  0.1034
12361TIP3    H158498   2.095   5.840   0.153 -0.4536  1.1651 -0.3733
12361TIP3    H258499   2.222   5.912   0.112 -0.2090  0.0587 -1.6355
12362TIP3   OH258500   4.748   5.168  13.745  0.1772  0.3262  0.1238
12362TIP3    H158501   4.843   5.153  13.745  0.3608  1.1392 -1.7725
12362TIP3    H258502   4.716   5.120  13.821  1.9774 -0.8469  0.2085
12363TIP3   OH258503   3.816   0.990   2.545 -0.0051 -0.4630 -0.0012
12363TIP3    H158504   3.853   0.923   2.603  0.2891 -1.7964 -1.6357
12363TIP3    H258505   3.722   0.975   2.548  0.0086 -0.5274  0.1229
12364TIP3   OH258506   6.331   3.452  11.077  0.0528  0.3459 -0.4162
12364TIP3    H158507   6.315   3.436  10.984  1.0064 -0.1489 -0.5098
12364TIP3    H258508   6.413   3.407  11.095  1.2347  2.5439  0.0754
12365TIP3   OH258509   5.513   4.940  11.574  0.4157  0.2958  0.2731
12365TIP3    H158510   5.523   4.884  11.497  0.9296  1.1428 -0.2853
12365TIP3    H258511   5.601   4.974  11.591  0.1018  0.9874  0.5588
12366TIP3   OH258512   2.082   4.268  16.974 -0.1752  0.1962 -0.1537
12366TIP3    H158513   1.988   4.284  16.982 -0.2751  0.1507 -1.1918
12366TIP3    H258514   2.123   4.349  17.003 -0.5158  0.0635  0.7226
12367TIP3   OH258515   3.572   6.713  13.186  0.1460  0.0187  0.4138
12367TIP3    H158516   3.608   6.759  13.262  0.6346  0.2950  0.0229
12367TIP3    H258517   3.555   6.783  13.122  1.6432 -0.4003 -0.4878
12368TIP3   OH258518   4.917   2.342   4.342  0.1030  0.1634 -0.2891
12368TIP3    H158519   4.879   2.390   4.268 -0.6555  1.2105  0.7376
12368TIP3    H258520   4.845   2.290   4.376  1.3720 -3.4793 -2.6171
12369TIP3   OH258521   5.432   5.259   2.619  0.3577  0.5267  0.7162
12369TIP3    H158522   5.416   5.353   2.630  1.1523  0.7364  0.1560
12369TIP3    H258523   5.527   5.250   2.623  0.3679 -0.0933 -0.3904
12370TIP3   OH258524   2.391   1.018  11.699  0.5712 -0.0972  0.3977
12370TIP3    H158525   2.475   0.994  11.661  0.7166  0.2258  0.5127
12370TIP3    H258526   2.345   0.935  11.711  0.8807 -0.2751  0.3534
12371TIP3   OH258527   3.318   2.224  13.028  0.1006  0.4300 -0.2780
12371TIP3    H158528   3.312   2.225  12.932  1.2941  0.9294 -0.3699
12371TIP3    H258529   3.345   2.313  13.051  0.8528  0.0301  0.4370
12372TIP3   OH258530   1.100   0.300  11.956 -0.9007  0.2008  1.3631
12372TIP3    H158531   1.092   0.380  12.007 -0.1790  1.2537 -0.0966
12372TIP3    H258532   1.040   0.312  11.882 -1.5945 -1.0934  1.6750
12373TIP3   OH258533   1.343   5.805   0.531 -0.4512 -0.4084  0.1839
12373TIP3    H158534   1.317   5.808   0.623 -0.0664 -1.5695  0.3534
12373TIP3    H258535   1.370   5.894   0.509 -4.1043  0.8367  0.1183
12374TIP3   OH258536   2.820   1.814  12.178 -0.2118 -0.2269  0.8374
12374TIP3    H158537   2.774   1.815  12.094 -0.9762 -0.9512  1.2378
12374TIP3    H258538   2.908   1.847  12.157 -0.3379 -0.5483 -0.2750
12375TIP3   OH258539   2.382   0.968   0.509 -0.3966  0.0508  0.0176
12375TIP3    H158540   2.303   1.016   0.532 -1.4440 -1.0422 -1.1340
12375TIP3    H258541   2.382   0.967   0.413  1.1995  0.2834 -0.0218
12376TIP3   OH258542   5.307   6.059   3.084  0.6614 -0.7485  0.6265
12376TIP3    H158543   5.270   5.991   3.028 -0.7216 -0.9105  1.6873
12376TIP3    H258544   5.265   6.140   3.055 -0.2799 -0.8738  1.5637
12377TIP3   OH258545   5.354   4.230   2.078 -0.6760  0.0054  0.5172
12377TIP3    H158546   5.407   4.242   1.999 -1.1652 -1.8839 -0.1483
12377TIP3    H258547   5.295   4.305   2.079 -0.2190  0.3950 -0.5404
12378TIP3   OH258548   5.711   1.920   2.964 -0.4351 -0.0185  0.0376
12378TIP3    H158549   5.770   1.925   3.040  0.4895  1.4145 -0.7288
12378TIP3    H258550   5.674   2.008   2.957 -2.8092 -0.8922  0.5519
12379TIP3   OH258551   3.451   1.260   5.163 -0.0135 -0.0198  0.4649
12379TIP3    H158552   3.510   1.324   5.203 -1.9635  2.5538 -0.5025
12379TIP3    H258553   3.374   1.259   5.220 -0.5142 -0.6079 -0.1956
12380TIP3   OH258554   6.503   6.018  13.688 -0.1382  0.3539  0.3141
12380TIP3    H158555   6.597   6.000  13.679 -0.2934  0.0486 -0.8098
12380TIP3    H258556   6.494   6.050  13.778  0.9150 -0.3995  0.7154
12381TIP3   OH258557   1.783   6.009   0.072  0.0169 -0.8297 -0.8487
12381TIP3    H158558   1.812   6.021   0.162 -2.3204  1.7903 -0.2926
12381TIP3    H258559   1.741   5.923   0.071  0.9090 -1.2950  0.2907
12382TIP3   OH258560   3.203   4.745   2.352  0.4676 -0.6133  0.1363
12382TIP3    H158561   3.244   4.764   2.437  0.0165 -1.6232  0.6099
12382TIP3    H258562   3.276   4.742   2.290  1.1704 -2.4381  0.9693
12383TIP3   OH258563   1.422   2.848  14.963 -0.1587 -0.0540  0.2876
12383TIP3    H158564   1.508   2.881  14.936  0.3669 -2.4767 -1.3098
12383TIP3    H258565   1.364   2.871  14.890 -0.0320 -1.5008 -0.3087
12384TIP3   OH258566   0.263   4.600  14.213 -0.1802  0.1463 -0.3633
12384TIP3    H158567   0.245   4.578  14.122  0.5038 -0.8727 -0.2639
12384TIP3    H258568   0.336   4.543  14.238 -0.7475 -0.0183  0.9985
12385TIP3   OH258569   3.811   6.733  15.192 -0.2647 -0.1472  0.4850
12385TIP3    H158570   3.897   6.692  15.200 -0.2389  0.0176  1.1445
12385TIP3    H258571   3.792   6.766  15.280 -2.2211 -2.5517  1.0567
12386TIP3   OH258572   5.875   3.939  13.976  0.0137 -0.3483 -0.0305
12386TIP3    H158573   5.840   4.028  13.970 -1.4972 -0.9760 -1.2594
12386TIP3    H258574   5.858   3.911  14.065 -0.6867  0.1363 -0.0114
12387TIP3   OH258575   3.150   0.626  12.425 -0.0565 -0.2693 -0.0614
12387TIP3    H158576   3.059   0.631  12.455 -0.4093 -0.5902 -1.0458
12387TIP3    H258577   3.201   0.633  12.505 -0.9233  0.6602  0.4398
12388TIP3   OH258578   5.251   4.481   6.116  0.4097  0.0900  0.4648
12388TIP3    H158579   5.324   4.419   6.113  0.6588  0.4029 -1.1494
12388TIP3    H258580   5.292   4.567   6.126  0.1263  0.1077  1.6056
12389TIP3   OH258581   1.666   5.131  11.582 -0.3504  0.1104 -0.6813
12389TIP3    H158582   1.612   5.055  11.562 -1.9158  0.5119  1.6983
12389TIP3    H258583   1.635   5.162  11.667  1.7921  2.0446 -0.4946
12390TIP3   OH258584   6.748   5.435  14.564  0.1602  0.4819  0.1564
12390TIP3    H158585   6.737   5.530  14.560  1.7187  0.7872  1.8109
12390TIP3    H258586   6.808   5.415  14.492 -0.5758  0.6642 -0.5179
12391TIP3   OH258587   6.081   5.280   0.240  0.0958 -0.1684 -0.1494
12391TIP3    H158588   5.988   5.259   0.228  0.6495 -1.3651 -3.4015
12391TIP3    H258589   6.126   5.197   0.226  1.7044  0.4528  1.0510
12392TIP3   OH258590   0.501   5.469   3.705 -0.0871 -0.5715  0.1586
12392TIP3    H158591   0.536   5.558   3.698 -1.6060 -0.0707 -3.0365
12392TIP3    H258592   0.414   5.480   3.743 -0.9455 -0.3926 -1.7445
12393TIP3   OH258593   5.014   3.677   3.032 -0.0832 -0.5422  0.6508
12393TIP3    H158594   5.084   3.628   3.075  0.8390  0.1934  0.0396
12393TIP3    H258595   5.060   3.736   2.971 -1.2368 -0.0670  0.2094
12394TIP3   OH258596   1.602   2.832  16.943 -0.2837 -0.0892  0.2458
12394TIP3    H158597   1.637   2.811  16.856 -0.3758  1.5841 -0.2265
12394TIP3    H258598   1.525   2.776  16.952  0.0921 -0.7462 -0.4688
12395TIP3   OH258599   1.524   6.765  14.503 -0.1556 -0.4628  0.1309
12395TIP3    H158600   1.473   6.685  14.488  1.1657 -1.2511 -0.2465
12395TIP3    H258601   1.594   6.761  14.438  0.5753  0.4542  0.8389
12396TIP3   OH258602   3.907   5.594   2.610  0.4680 -0.2737 -0.2290
12396TIP3    H158603   3.834   5.600   2.549  0.5949 -2.1314 -0.6144
12396TIP3    H258604   3.958   5.518   2.580  2.2711  0.6532  0.3394
12397TIP3   OH258605   2.894   5.165   2.962 -0.0884 -0.3474  0.3978
12397TIP3    H158606   2.831   5.093   2.964  1.6718 -1.9244  0.8328
12397TIP3    H258607   2.937   5.162   3.048  1.5415 -0.1767 -0.3822
12398TIP3   OH258608   6.434   4.529   2.751  0.3204  0.0336  0.5307
12398TIP3    H158609   6.478   4.522   2.836  0.7565  0.0527  0.3051
12398TIP3    H258610   6.432   4.440   2.718 -0.0249 -0.0045  0.6433
12399TIP3   OH258611   4.396   5.590   1.529  0.4428  0.4456 -0.6719
12399TIP3    H158612   4.353   5.506   1.547  2.7778 -1.2710 -2.4289
12399TIP3    H258613   4.363   5.616   1.443 -0.7205  1.6936  0.1228
12400TIP3   OH258614   3.236   5.343  13.398 -0.3693  1.1693  0.2283
12400TIP3    H158615   3.331   5.333  13.394 -0.4341 -0.4062  1.5348
12400TIP3    H258616   3.209   5.352  13.307  1.0179  1.5557 -0.1688
12401TIP3   OH258617   4.546   6.367  12.655 -0.1051  0.3203 -0.1410
12401TIP3    H158618   4.501   6.283  12.654  0.1387  0.1822  0.3201
12401TIP3    H258619   4.634   6.347  12.625 -0.2247  0.5216 -0.6421
12402TIP3   OH258620   5.660   6.080   3.526 -0.0627  0.2687  0.3690
12402TIP3    H158621   5.667   6.173   3.506  0.6131  0.2017  0.2788
12402TIP3    H258622   5.566   6.062   3.523 -0.2651  1.1215  1.1896
12403TIP3   OH258623   2.587   5.034   3.252 -0.2317 -0.1690 -0.0744
12403TIP3    H158624   2.581   5.000   3.163 -1.1797 -1.1465  0.3478
12403TIP3    H258625   2.526   5.108   3.254 -0.1822 -0.1250 -0.2443
12404TIP3   OH258626   1.867   6.592   3.857 -0.2445 -0.1053 -0.4440
12404TIP3    H158627   1.954   6.588   3.817 -0.4804 -1.7204 -0.8825
12404TIP3    H258628   1.819   6.655   3.803 -0.0222 -0.9470 -1.6749
12405TIP3   OH258629   0.148   3.342   3.175  0.6342  0.3199 -0.0221
12405TIP3    H158630   0.105   3.310   3.255 -0.4084 -0.9304 -1.0210
12405TIP3    H258631   0.224   3.285   3.165  1.2141  0.9925  0.4843
12406TIP3   OH258632   5.224   2.875   0.855 -0.0874 -0.6292  0.4494
12406TIP3    H158633   5.232   2.810   0.785  0.6962 -1.7998  1.5800
12406TIP3    H258634   5.271   2.952   0.822 -0.4494 -0.8620 -0.6381
12407TIP3   OH258635   3.092   3.050  12.719 -0.1728  0.0667 -0.5522
12407TIP3    H158636   3.167   3.083  12.669  0.5774 -1.7609 -0.7011
12407TIP3    H258637   3.016   3.086  12.674  0.5565  3.0662  0.3753
12408TIP3   OH258638   6.725   5.475   0.198  0.3028 -0.6026 -0.2296
12408TIP3    H158639   6.787   5.456   0.269 -1.5354 -1.7853  1.1744
12408TIP3    H258640   6.777   5.473   0.118  2.1201 -1.1501  0.9186
12409TIP3   OH258641   4.711   0.388   6.778  0.1332 -0.2337  0.5119
12409TIP3    H158642   4.794   0.363   6.817 -0.3410  0.5494  2.1452
12409TIP3    H258643   4.734   0.443   6.703  1.0980  0.1100  1.0474
12410TIP3   OH258644   0.530   5.811   5.759 -0.2671 -0.5911  0.2229
12410TIP3    H158645   0.600   5.871   5.785 -2.4836  1.5750  1.6221
12410TIP3    H258646   0.525   5.747   5.830 -0.9571  0.4223  1.1023
12411TIP3   OH258647   3.259   0.601   0.119 -0.2478  0.1143 -0.4787
12411TIP3    H158648   3.337   0.591   0.064 -0.5867 -1.5396 -0.7188
12411TIP3    H258649   3.192   0.637   0.061  0.2282  1.2156 -0.3590
12412TIP3   OH258650   0.796   6.083   1.695 -0.4711  0.8068  0.2130
12412TIP3    H158651   0.802   6.122   1.782  0.5831  0.6930  0.2018
12412TIP3    H258652   0.702   6.070   1.681 -0.9297  3.6747  0.0447
12413TIP3   OH258653   3.400   0.897   0.226 -0.1795 -0.3160 -0.2713
12413TIP3    H158654   3.452   0.961   0.275 -0.3701 -1.9551  2.2010
12413TIP3    H258655   3.314   0.937   0.217  0.2226  0.5385 -0.4710
12414TIP3   OH258656   1.474   0.550  12.569 -0.1141  0.0167 -0.3648
12414TIP3    H158657   1.426   0.497  12.506 -0.2932  0.0650 -0.2705
12414TIP3    H258658   1.545   0.493  12.599  0.1620  0.1052 -0.8430
12415TIP3   OH258659   6.082   0.323  15.786  0.7242 -0.1062 -0.4261
12415TIP3    H158660   6.034   0.267  15.725 -0.4074  0.5359 -0.1647
12415TIP3    H258661   6.132   0.263  15.841 -1.3377 -0.9854  0.5970
12416TIP3   OH258662   3.341   4.797   4.399 -0.3923 -0.0457 -0.0650
12416TIP3    H158663   3.363   4.887   4.374  1.1936 -0.4474 -0.2149
12416TIP3    H258664   3.306   4.758   4.319  1.0864 -0.2087 -0.6686
12417TIP3   OH258665   6.188   2.891  15.470 -0.5498  0.1090  0.1700
12417TIP3    H158666   6.268   2.942  15.453  0.6273 -1.0638  1.8708
12417TIP3    H258667   6.175   2.840  15.390  0.8368 -0.2253  0.1342
12418TIP3   OH258668   4.800   5.956   2.243 -0.7598  0.7253  0.1512
12418TIP3    H158669   4.719   5.986   2.283 -0.7345  1.0428 -0.0319
12418TIP3    H258670   4.855   6.034   2.240  0.8014 -0.0894  3.2289
12419TIP3   OH258671   1.924   4.813   1.612 -0.0383  0.2094 -0.5583
12419TIP3    H158672   1.877   4.845   1.535  0.3789  2.0724 -0.0840
12419TIP3    H258673   1.892   4.723   1.624 -0.9115  0.2555 -2.2410
12420TIP3   OH258674   3.398   2.455   6.740  0.2291 -0.5877  0.0562
12420TIP3    H158675   3.423   2.429   6.651  4.0586 -0.8437  1.0151
12420TIP3    H258676   3.414   2.550   6.742 -0.0800 -0.5412  0.4201
12421TIP3   OH258677   2.701   2.086  15.824 -0.3451 -0.3901 -0.0831
12421TIP3    H158678   2.646   2.080  15.902  1.6083  1.1322  1.5134
12421TIP3    H258679   2.700   2.180  15.801  2.1338 -0.1751  0.4788
12422TIP3   OH258680   2.550   2.131  11.822 -0.1158 -0.6746 -0.4312
12422TIP3    H158681   2.459   2.102  11.820 -0.4731  0.2153  1.0813
12422TIP3    H258682   2.552   2.197  11.891  1.1490  1.2092 -2.1598
12423TIP3   OH258683   6.111   0.215   5.259  0.2139  0.1887  0.5412
12423TIP3    H158684   6.184   0.166   5.297  0.8427 -0.8724 -1.8744
12423TIP3    H258685   6.083   0.163   5.184 -0.8377  2.2472 -0.5868
12424TIP3   OH258686   4.269   5.015  11.500  0.2491 -0.1746 -0.3156
12424TIP3    H158687   4.262   5.103  11.535 -0.8319 -0.8641  1.3191
12424TIP3    H258688   4.199   5.009  11.435  1.2881  0.6179 -1.5570
12425TIP3   OH258689   1.517   0.006   1.462  0.0873  0.4397  0.1427
12425TIP3    H158690   1.495   0.071   1.529  0.1670  0.8397 -0.2137
12425TIP3    H258691   1.613   0.004   1.462  0.0775 -0.4722  0.9052
12426TIP3   OH258692   2.703   3.880  14.870 -0.1243  0.0974  0.5395
12426TIP3    H158693   2.733   3.795  14.840 -0.4693  0.1546  0.0155
12426TIP3    H258694   2.675   3.865  14.960 -0.3992 -0.3984  0.3739
12427TIP3   OH258695   2.897   5.062   5.533  0.5675  0.0442 -0.0389
12427TIP3    H158696   2.841   5.109   5.595  1.5435  1.1867  0.0188
12427TIP3    H258697   2.960   5.015   5.587  2.5197  2.4136 -0.0936
12428TIP3   OH258698   0.419   6.654   0.542 -0.3637 -0.1671  0.5705
12428TIP3    H158699   0.400   6.674   0.634  0.4984 -1.6751  1.1254
12428TIP3    H258700   0.513   6.637   0.540 -0.0559  1.4908 -0.9552
12429TIP3   OH258701   1.013   5.952   3.779 -0.0584  0.3889  0.1636
12429TIP3    H158702   0.972   6.021   3.830  1.0337  0.9129  0.3765
12429TIP3    H258703   0.987   5.871   3.821  0.7671  0.8020  1.5483
12430TIP3   OH258704   0.805   2.964   3.755 -0.6275 -0.0494 -0.4438
12430TIP3    H158705   0.744   2.955   3.828  0.6341 -1.4813  0.5166
12430TIP3    H258706   0.821   2.874   3.726  0.7776  0.3060 -0.8446
12431TIP3   OH258707   0.262   4.605   0.278 -0.5695  0.1579 -0.3609
12431TIP3    H158708   0.357   4.619   0.289 -0.2536 -1.0983 -1.3032
12431TIP3    H258709   0.233   4.574   0.364  0.1271 -0.6675 -0.4038
12432TIP3   OH258710   4.352   0.231  13.367 -0.0503  0.2027  0.2119
12432TIP3    H158711   4.371   0.321  13.395  0.7686  0.0888  0.0513
12432TIP3    H258712   4.425   0.209  13.308 -0.6441 -0.2959 -0.3510
12433TIP3   OH258713   5.176   4.994   6.207 -0.3322  0.3847  0.5262
12433TIP3    H158714   5.137   4.971   6.123 -0.7740  1.4759  0.4188
12433TIP3    H258715   5.142   4.930   6.268 -1.0562  0.3818  0.1258
12434TIP3   OH258716   1.014   4.350  15.087 -0.6578 -0.0765  0.9841
12434TIP3    H158717   0.995   4.294  15.012 -0.2269  0.0110  0.8129
12434TIP3    H258718   0.928   4.364  15.128 -0.8198 -0.5446  0.8076
12435TIP3   OH258719   2.988   5.504  11.546 -0.1933  0.0632  0.8174
12435TIP3    H158720   3.077   5.497  11.581 -0.0271  0.8402  0.5686
12435TIP3    H258721   2.935   5.531  11.621 -0.4264 -1.4708  1.2271
12436TIP3   OH258722   6.147   2.422   2.797 -0.2611  0.7088  0.2304
12436TIP3    H158723   6.213   2.383   2.740  0.9104  1.4584  1.0440
12436TIP3    H258724   6.103   2.347   2.837 -0.3077  0.1965 -0.7519
12437TIP3   OH258725   3.334   1.209   2.616 -0.2645 -0.0358  0.0638
12437TIP3    H158726   3.315   1.122   2.581 -0.8921  0.0515  0.1681
12437TIP3    H258727   3.259   1.262   2.590  0.4110  0.6425 -0.5400
12438TIP3   OH258728   4.411   6.103  14.790 -0.2162  0.4041  0.3446
12438TIP3    H158729   4.361   6.057  14.723 -0.8298  2.8978 -1.0029
12438TIP3    H258730   4.498   6.063  14.787 -0.5657 -0.3018 -1.1391
12439TIP3   OH258731   4.539   2.426  16.973 -0.1568 -0.4904  0.3284
12439TIP3    H158732   4.472   2.494  16.973  0.9426  0.6317 -0.0548
12439TIP3    H258733   4.497   2.351  16.930 -1.1931  0.1406  0.2085
12440TIP3   OH258734   4.350   3.518  15.821 -0.1868  0.2101  0.1222
12440TIP3    H158735   4.318   3.607  15.806  0.1387  0.2339 -0.4343
12440TIP3    H258736   4.409   3.501  15.748  0.3059 -0.1983  0.6098
12441TIP3   OH258737   4.930   2.478   5.319  0.1287  0.2146 -0.2890
12441TIP3    H158738   4.880   2.534   5.378 -2.3733 -2.7623  0.6873
12441TIP3    H258739   5.004   2.447   5.372 -1.0797 -0.9840  0.7732
12442TIP3   OH258740   4.626   4.795  15.555 -0.0145  0.3095 -0.6684
12442TIP3    H158741   4.554   4.752  15.601  1.3319 -1.7447 -0.3756
12442TIP3    H258742   4.705   4.753  15.588  1.1374  0.1722 -3.3208
12443TIP3   OH258743   0.592   5.058   2.858  0.3349 -0.3994 -0.3128
12443TIP3    H158744   0.667   5.115   2.838  0.3614  0.8799  2.7804
12443TIP3    H258745   0.629   4.970   2.864  1.3779  0.0441 -0.0190
12444TIP3   OH258746   2.999   1.732  16.357  0.1305 -0.3535 -0.0018
12444TIP3    H158747   3.083   1.755  16.396  0.1625 -0.8330  0.2213
12444TIP3    H258748   2.962   1.666  16.415  0.3377 -1.3370 -0.9399
12445TIP3   OH258749   1.727   0.419  11.668  0.3446 -0.2561  0.3691
12445TIP3    H158750   1.763   0.479  11.603 -0.3983  0.1783  0.3475
12445TIP3    H258751   1.760   0.333  11.643  0.7875  0.0348 -0.0556
12446TIP3   OH258752   6.241   2.439   0.287  0.1932  0.2564 -0.2275
12446TIP3    H158753   6.277   2.522   0.317  0.1807  0.5778 -1.0817
12446TIP3    H258754   6.148   2.444   0.309  0.2382  0.3684 -0.0637
12447TIP3   OH258755   5.037   2.803  14.608  0.0537  0.0530 -0.4726
12447TIP3    H158756   5.127   2.830  14.588  0.6052 -0.3186  1.2585
12447TIP3    H258757   5.042   2.707  14.617 -0.3760  0.0797  0.1609
12448TIP3   OH258758   1.224   1.254   4.943  0.3757  0.2726 -0.3606
12448TIP3    H158759   1.244   1.240   5.035 -0.0064  1.2541 -0.1242
12448TIP3    H258760   1.232   1.167   4.904  1.1933 -0.0338  0.4629
12449TIP3   OH258761   2.061   3.098   5.112 -0.9262  0.1711 -0.2772
12449TIP3    H158762   2.150   3.095   5.078  0.0998 -2.4012  2.2187
12449TIP3    H258763   2.053   3.185   5.152  1.7140 -0.5605  2.1764
12450TIP3   OH258764   3.722   2.064  12.012 -0.8232 -0.0043  0.1144
12450TIP3    H158765   3.654   2.003  11.982 -0.1281 -0.9910  0.5306
12450TIP3    H258766   3.736   2.122  11.937 -1.3448 -0.4733 -0.3536
12451TIP3   OH258767   1.285   0.663   0.601  0.0710  0.3229 -0.3728
12451TIP3    H158768   1.294   0.584   0.549 -1.0882 -1.0226  1.3389
12451TIP3    H258769   1.230   0.721   0.549 -0.3745 -0.6473 -0.9998
12452TIP3   OH258770   5.350   4.442  15.249  0.5129  0.3647 -0.4623
12452TIP3    H158771   5.291   4.516  15.239  0.6061  0.3654 -1.0288
12452TIP3    H258772   5.434   4.473  15.218  0.6228  0.1144 -0.4211
12453TIP3   OH258773   2.606   3.462   6.371 -0.2220  0.3704  0.0114
12453TIP3    H158774   2.635   3.549   6.344 -1.0113  0.7956  0.5150
12453TIP3    H258775   2.683   3.406   6.356 -0.5050  0.5878 -2.8783
12454TIP3   OH258776   5.342   6.713   2.071 -0.1483 -0.4158 -1.0580
12454TIP3    H158777   5.332   6.656   2.148  2.0688 -0.2354 -0.5743
12454TIP3    H258778   5.291   6.791   2.093 -0.2416 -0.7234 -0.1343
12455TIP3   OH258779   6.142   2.674  15.231  0.3075 -0.3039 -0.1141
12455TIP3    H158780   6.090   2.652  15.154  1.1240  0.4654 -0.9202
12455TIP3    H258781   6.149   2.593  15.280 -2.7948 -0.1727  0.7830
12456TIP3   OH258782   6.488   1.084  16.840  0.1907  0.0768  0.6893
12456TIP3    H158783   6.496   1.052  16.750 -1.7268  0.3518  0.3664
12456TIP3    H258784   6.493   1.179  16.833 -0.1516  0.1084  0.8428
12457TIP3   OH258785   4.785   2.936  14.115  0.1813 -0.2258  0.2055
12457TIP3    H158786   4.867   2.964  14.074 -0.4492  2.6618  0.6724
12457TIP3    H258787   4.812   2.890  14.194  1.4697  2.6396  1.5831
12458TIP3   OH258788   2.637   2.339   2.954 -0.3671 -0.1075 -0.1571
12458TIP3    H158789   2.671   2.428   2.968 -0.9512 -0.0461  1.0308
12458TIP3    H258790   2.591   2.318   3.035 -1.6368 -0.8767 -1.0309
12459TIP3   OH258791   5.856   1.628  11.721 -0.3863 -0.2241 -0.0332
12459TIP3    H158792   5.942   1.584  11.726  0.9650  2.3321  0.7752
12459TIP3    H258793   5.794   1.561  11.752  1.4573 -1.7507  0.5904
12460TIP3   OH258794   3.880   0.853  12.786 -0.9676 -0.4323  0.1417
12460TIP3    H158795   3.911   0.939  12.815 -0.6744 -0.1198 -1.0549
12460TIP3    H258796   3.880   0.800  12.866 -1.7673  0.8404  1.0320
12461TIP3   OH258797   1.094   1.609  15.379  0.3534  0.4322 -0.4728
12461TIP3    H158798   1.009   1.565  15.392 -0.3913  2.1479  0.9341
12461TIP3    H258799   1.158   1.540  15.390 -0.8120 -0.5530  0.4929
12462TIP3   OH258800   1.638   5.052  13.836 -0.3153  0.1126  0.7830
12462TIP3    H158801   1.700   5.101  13.781 -1.4285  0.7706  0.0660
12462TIP3    H258802   1.665   5.071  13.925  0.9894 -0.2528  0.4913
12463TIP3   OH258803   3.564   0.230  17.086  0.2141 -0.2749 -0.2534
12463TIP3    H158804   3.577   0.310  17.137  1.0505  0.0896 -1.0255
12463TIP3    H258805   3.492   0.251  17.026  0.5353 -0.0462 -0.5602
12464TIP3   OH258806   0.626   4.884   4.514  0.3656 -0.7376  0.2804
12464TIP3    H158807   0.712   4.904   4.551 -0.1281  1.6304  0.2746
12464TIP3    H258808   0.579   4.838   4.584  0.9399 -0.2398  0.9983
12465TIP3   OH258809   5.467   4.690  16.273  0.3025  0.1152  0.0400
12465TIP3    H158810   5.504   4.768  16.314  1.7050 -0.1977 -0.5849
12465TIP3    H258811   5.378   4.716  16.249  0.0492  0.8585  1.6530
12466TIP3   OH258812   5.819   5.356  15.827 -0.2140  0.1015 -0.5189
12466TIP3    H158813   5.739   5.330  15.871 -0.6923  1.0858 -0.7669
12466TIP3    H258814   5.889   5.328  15.885 -0.7156 -0.9851 -0.4158
12467TIP3   OH258815   2.833   0.643  13.424 -0.2889  0.3560 -0.0231
12467TIP3    H158816   2.753   0.694  13.411 -0.8160 -0.3339  0.4446
12467TIP3    H258817   2.828   0.574  13.357 -0.8726 -0.6164  0.9762
12468TIP3   OH258818   1.089   2.317   1.570 -0.7142 -0.5499 -0.1487
12468TIP3    H158819   1.125   2.249   1.513 -0.0456 -1.1330  0.9243
12468TIP3    H258820   0.994   2.303   1.566 -0.5909 -1.6022  0.0816
12469TIP3   OH258821   0.364   5.957  16.435 -0.1662  0.3757 -0.1223
12469TIP3    H158822   0.400   5.924  16.517  0.9518  0.8489 -0.4053
12469TIP3    H258823   0.418   5.916  16.367  0.0907  1.3842 -0.5393
12470TIP3   OH258824   3.317   0.304   4.023  0.4138 -0.2925 -0.3688
12470TIP3    H158825   3.328   0.331   3.932  0.1330 -1.1932 -0.6865
12470TIP3    H258826   3.253   0.233   4.019  1.8847 -1.7144  0.2856
12471TIP3   OH258827   2.790   1.796  16.615 -0.4931 -0.1281  0.1977
12471TIP3    H158828   2.761   1.782  16.525  0.3980 -1.1141  0.0542
12471TIP3    H258829   2.725   1.751  16.668  0.4664 -1.9679 -0.1052
12472TIP3   OH258830   5.767   4.788  14.253 -0.6032 -0.2403 -0.2310
12472TIP3    H158831   5.760   4.825  14.341 -2.2249 -0.6952 -0.1391
12472TIP3    H258832   5.773   4.865  14.196  1.0125  0.0551  0.2810
12473TIP3   OH258833   5.965   2.515   1.076 -0.0142  0.3716  0.4836
12473TIP3    H158834   6.000   2.434   1.039 -1.5945 -0.7645  1.3334
12473TIP3    H258835   5.966   2.501   1.171 -0.0572  1.4653  0.6600
12474TIP3   OH258836   1.552   5.992   2.187 -0.1371  0.1480 -0.0451
12474TIP3    H158837   1.528   6.085   2.179 -0.7711 -0.0447 -0.4914
12474TIP3    H258838   1.536   5.956   2.100  1.1834 -0.1502 -0.1830
12475TIP3   OH258839   5.184   3.090   1.805 -0.2204  0.1658  0.2212
12475TIP3    H158840   5.090   3.088   1.824 -0.4733 -1.6390 -0.9151
12475TIP3    H258841   5.190   3.134   1.720 -0.3903 -1.9976 -0.9942
12476TIP3   OH258842   4.085   4.502   1.778 -0.4184 -0.5252  0.5737
12476TIP3    H158843   4.091   4.445   1.701 -0.3097  0.2211  0.0113
12476TIP3    H258844   4.176   4.510   1.808 -0.5722 -1.6308  1.4149
12477TIP3   OH258845   5.408   3.025  10.194 -0.1613  0.0984  0.2860
12477TIP3    H158846   5.380   3.033  10.285  0.2200 -0.5643  0.4745
12477TIP3    H258847   5.388   3.109  10.154 -1.2094  0.0763  0.7404
12478TIP3   OH258848   6.584   2.420   5.457  0.3935  0.3666  0.8062
12478TIP3    H158849   6.551   2.363   5.526  0.5141  0.6672  1.1159
12478TIP3    H258850   6.608   2.501   5.502 -2.4089  1.7569 -0.0002
12479TIP3   OH258851   6.231   1.901  12.079 -0.3312 -0.6446 -0.5064
12479TIP3    H158852   6.303   1.956  12.111 -1.2212 -0.3465  1.0863
12479TIP3    H258853   6.267   1.813  12.075 -0.0684 -0.6269  1.0215
12480TIP3   OH258854   6.237   1.195   3.218 -0.6831 -0.4032 -0.1348
12480TIP3    H158855   6.256   1.289   3.213 -0.8155 -0.4106 -0.8942
12480TIP3    H258856   6.234   1.176   3.312  2.5013 -0.2978  0.0810
12481TIP3   OH258857   1.722   0.585   4.951 -0.3624 -0.5349  0.3076
12481TIP3    H158858   1.709   0.648   4.880  0.6330  0.0284  0.5986
12481TIP3    H258859   1.815   0.593   4.973 -0.3715 -1.6379  0.7958
12482TIP3   OH258860   5.294   6.040   3.362  0.4032 -0.1806 -0.3161
12482TIP3    H158861   5.283   6.038   3.267 -0.1151 -1.1401 -0.2491
12482TIP3    H258862   5.302   6.133   3.384 -1.7017  0.2215 -1.0592
12483TIP3   OH258863   5.962   3.833  15.901  0.1149  0.3070  0.3690
12483TIP3    H158864   5.988   3.745  15.873 -1.2807 -0.2036  0.6230
12483TIP3    H258865   5.868   3.836  15.887 -0.0329  1.3551  1.4670
12484TIP3   OH258866   4.106   6.382   3.183  0.0131  0.0614 -0.1109
12484TIP3    H158867   4.137   6.349   3.098  0.3309  2.4976 -1.0103
12484TIP3    H258868   4.165   6.454   3.204 -1.5534  1.0818  0.9887
12485TIP3   OH258869   0.161   3.938   5.151 -0.3876 -0.0553 -0.3158
12485TIP3    H158870   0.216   3.988   5.211 -1.0050  1.6602 -1.1122
12485TIP3    H258871   0.081   3.920   5.201 -0.9046  1.3766 -0.5719
12486TIP3   OH258872   0.175   6.029   0.685  0.3728 -0.0837 -0.1964
12486TIP3    H158873   0.193   6.087   0.759 -0.8951  0.4186 -0.2568
12486TIP3    H258874   0.247   6.045   0.624  0.9366  0.1809  0.5280
12487TIP3   OH258875   3.741   2.089   5.467 -0.4419  0.3214 -0.7729
12487TIP3    H158876   3.794   2.018   5.502 -0.0942  2.0072  2.5451
12487TIP3    H258877   3.804   2.157   5.443 -0.9048  0.6196 -1.1829
12488TIP3   OH258878   6.389   5.498  11.951 -0.2990 -0.1270  0.2977
12488TIP3    H158879   6.419   5.449  11.875 -2.1988  2.1245 -2.0965
12488TIP3    H258880   6.447   5.574  11.956 -0.2520 -0.2011  1.0553
12489TIP3   OH258881   2.713   3.492  13.909 -0.0690 -0.0514  0.1430
12489TIP3    H158882   2.749   3.523  13.992  1.2985  1.0164 -0.8185
12489TIP3    H258883   2.786   3.450  13.865 -0.3203  0.9204 -1.2548
12490TIP3   OH258884   2.548   4.294   0.096 -0.1196  0.2510 -0.4617
12490TIP3    H158885   2.486   4.223   0.113  0.0396  0.4758  1.2978
12490TIP3    H258886   2.496   4.374   0.105  0.5119  0.4764  1.8715
12491TIP3   OH258887   6.636   6.746  13.772  0.5416 -0.1762 -0.3125
12491TIP3    H158888   6.580   6.726  13.697  0.5539  0.5433 -0.5169
12491TIP3    H258889   6.618   6.676  13.835  0.1292 -0.4810 -0.7672
12492TIP3   OH258890   6.009   4.989   3.553  0.2632  0.1258  0.2633
12492TIP3    H158891   6.067   4.926   3.596  2.0298  1.0233 -0.6912
12492TIP3    H258892   6.068   5.051   3.512 -1.2448 -0.8177 -3.7532
12493TIP3   OH258893   3.943   0.593   2.187  0.2688 -0.2828 -0.0079
12493TIP3    H158894   3.943   0.550   2.102  1.2331 -0.2344 -0.0453
12493TIP3    H258895   3.953   0.686   2.166  2.0573 -0.3993  0.1843
12494TIP3   OH258896   3.068   4.990   2.638 -0.5281 -0.4906  0.0765
12494TIP3    H158897   2.976   5.014   2.649 -0.2771  0.4373  0.2361
12494TIP3    H258898   3.075   4.902   2.676 -1.7693 -1.4555 -1.8006
12495TIP3   OH258899   3.598   0.418  11.409 -0.2396  0.0593  0.1355
12495TIP3    H158900   3.662   0.489  11.402  0.4414 -0.6291 -0.9589
12495TIP3    H258901   3.650   0.338  11.401 -1.2445 -0.5078 -1.1292
12496TIP3   OH258902   3.260   4.946   0.830 -0.0808  0.2845  0.3466
12496TIP3    H158903   3.179   4.955   0.780 -0.2568  1.0907  0.7629
12496TIP3    H258904   3.325   4.915   0.766  0.0683  2.7021 -0.7619
12497TIP3   OH258905   2.110   5.625  14.622  0.1241 -0.1337 -0.1599
12497TIP3    H158906   2.119   5.578  14.539  0.5256 -1.7377  0.7474
12497TIP3    H258907   2.145   5.712  14.604  0.1412 -0.4276 -1.6830
12498TIP3   OH258908   2.735   2.679  11.438 -0.4569  0.6241 -0.1514
12498TIP3    H158909   2.772   2.597  11.406 -0.3622  0.1703  1.0603
12498TIP3    H258910   2.650   2.686  11.394  0.0077  0.4563 -1.1114
12499TIP3   OH258911   2.704   2.924  13.276 -0.3860 -0.4430  0.1296
12499TIP3    H158912   2.637   2.953  13.213 -0.8703  0.1718  0.9120
12499TIP3    H258913   2.772   2.991  13.271 -0.4119 -0.4087  0.2426
12500TIP3   OH258914   3.929   3.156  14.073 -0.6651 -0.1859  0.1420
12500TIP3    H158915   3.893   3.174  13.986 -0.7099 -1.2376 -0.0692
12500TIP3    H258916   4.024   3.167  14.062 -0.8000  1.5685  0.4475
12501TIP3   OH258917   2.413   6.208   2.475  0.2486  0.4930 -0.3485
12501TIP3    H158918   2.470   6.141   2.439 -1.5406 -0.7498 -1.0442
12501TIP3    H258919   2.423   6.200   2.570  0.8306 -0.0465 -0.4516
12502TIP3   OH258920   4.959   2.489  16.007  0.0324 -0.9110 -0.1380
12502TIP3    H158921   5.044   2.446  16.015 -0.2744 -1.5317 -0.1549
12502TIP3    H258922   4.955   2.547  16.083  0.6353 -0.5773 -0.3549
12503TIP3   OH258923   6.614   5.662  13.801  0.2261 -0.4590  0.1785
12503TIP3    H158924   6.585   5.617  13.880  1.5375 -0.7030  0.5438
12503TIP3    H258925   6.682   5.723  13.831  1.7610 -1.5500 -0.8930
12504TIP3   OH258926   2.041   3.499   4.596 -0.5203 -0.4704 -0.2049
12504TIP3    H158927   2.097   3.468   4.668  0.7492  0.8908 -0.5487
12504TIP3    H258928   2.054   3.435   4.526  0.5825 -0.2283 -0.2435
12505TIP3   OH258929   1.889   6.143   1.512  0.6766 -0.2225 -0.3816
12505TIP3    H158930   1.864   6.233   1.534 -1.1847  0.1543 -3.4392
12505TIP3    H258931   1.860   6.132   1.422  2.7640 -3.2493 -0.8285
12506TIP3   OH258932   4.925   4.314   1.940 -0.1410 -0.0177  0.0027
12506TIP3    H158933   4.920   4.395   1.990  1.3692  1.2685 -1.7795
12506TIP3    H258934   4.970   4.252   1.997 -0.5050  0.6766  1.0578
12507TIP3   OH258935   2.450   1.493  14.938  0.2111 -0.6773 -0.4820
12507TIP3    H158936   2.459   1.560  14.871 -0.5818 -0.4652 -0.3848
12507TIP3    H258937   2.534   1.496  14.985 -0.4792  1.6465  0.7863
12508TIP3   OH258938   2.430   5.185  17.100  0.1777 -0.1430  0.1440
12508TIP3    H158939   2.514   5.222  17.126  0.7497 -2.7516  2.5124
12508TIP3    H258940   2.453   5.119  17.034 -0.3229  0.7180 -0.9174
12509TIP3   OH258941   3.316   5.414   5.573 -0.1071 -0.4653  0.6028
12509TIP3    H158942   3.303   5.438   5.664  0.0980 -2.9139  1.3528
12509TIP3    H258943   3.269   5.330   5.563  1.3396 -1.1460 -1.0313
12510TIP3   OH258944   4.095   6.299  12.656  0.6204 -0.2013 -0.1922
12510TIP3    H158945   4.132   6.288  12.568  0.0941 -1.4326 -0.2858
12510TIP3    H258946   4.037   6.224  12.667 -0.5351  0.7646  0.6095
12511TIP3   OH258947   6.677   0.416   3.316  0.4604  0.1279  0.3038
12511TIP3    H158948   6.672   0.339   3.373 -1.0294 -0.1134 -0.1047
12511TIP3    H258949   6.766   0.449   3.328  1.0794 -1.5461  0.6327
12512TIP3   OH258950   0.583   3.581  12.000 -0.4451 -0.0137  0.1732
12512TIP3    H158951   0.587   3.659  12.055 -0.6850 -0.2044  0.4708
12512TIP3    H258952   0.603   3.509  12.061  0.1650 -0.1516 -0.1764
12513TIP3   OH258953   1.450   5.885  13.110 -0.6622  0.2834  0.5203
12513TIP3    H158954   1.370   5.849  13.150 -0.6635  0.3507  0.5801
12513TIP3    H258955   1.476   5.955  13.170 -0.7303  0.4640  0.3353
12514TIP3   OH258956   2.558   5.892   0.427 -0.2296 -0.2273 -0.4399
12514TIP3    H158957   2.633   5.949   0.410  0.6175 -1.3195 -0.4777
12514TIP3    H258958   2.589   5.805   0.405 -0.8100 -0.9924  1.6083
12515TIP3   OH258959   5.680   1.745  11.027  0.5584 -0.4013 -0.5280
12515TIP3    H158960   5.623   1.805  11.076  0.0830  0.4760 -2.0892
12515TIP3    H258961   5.761   1.795  11.015  0.8563 -0.8064 -0.2273
12516TIP3   OH258962   2.747   1.379  12.522 -0.7017 -0.1939  0.3191
12516TIP3    H158963   2.716   1.296  12.486 -1.9099  0.7294 -0.8916
12516TIP3    H258964   2.799   1.354  12.598 -1.6727 -2.0115  0.4509
12517TIP3   OH258965   3.539   4.929   3.020  0.3388 -0.1377 -0.1757
12517TIP3    H158966   3.505   4.989   3.086 -1.5714 -1.7870  0.4225
12517TIP3    H258967   3.546   4.982   2.940 -3.1786  0.4905 -0.1949
12518TIP3   OH258968   0.747   2.238  13.211 -0.0124 -0.1836  0.2823
12518TIP3    H158969   0.770   2.239  13.118 -0.3872 -1.6696  0.1512
12518TIP3    H258970   0.815   2.290  13.253  0.1842  0.4729 -0.8108
12519TIP3   OH258971   5.160   5.182   4.581  0.3796  0.0975  0.2243
12519TIP3    H158972   5.213   5.181   4.661 -1.0583 -0.1084  1.2180
12519TIP3    H258973   5.106   5.103   4.588 -2.3313  1.8902  0.8769
12520TIP3   OH258974   3.458   3.555  11.455 -0.3486  0.4553 -0.0405
12520TIP3    H158975   3.529   3.545  11.391 -0.4441  1.7117 -0.3531
12520TIP3    H258976   3.393   3.490  11.428 -0.4277  1.0197 -1.2931
12521TIP3   OH258977   4.239   1.393   2.394 -0.4344  0.5145 -0.3380
12521TIP3    H158978   4.194   1.332   2.336 -1.3384  0.2735  0.5692
12521TIP3    H258979   4.305   1.435   2.339  0.9000 -1.9509 -0.7670
12522TIP3   OH258980   0.325   5.979   4.280  0.5745 -0.1895 -0.3865
12522TIP3    H158981   0.310   5.910   4.344  1.4708  0.6282  0.7269
12522TIP3    H258982   0.317   5.935   4.195 -2.8381 -0.8914  0.1275
12523TIP3   OH258983   2.091   3.090   5.893 -0.6628  0.1967  0.0215
12523TIP3    H158984   2.062   3.012   5.939 -0.4568  0.1814  0.1248
12523TIP3    H258985   2.092   3.159   5.959 -2.9518  0.8239 -0.4971
12524TIP3   OH258986   5.544   5.623   0.263  0.6374  0.4472  0.9631
12524TIP3    H158987   5.616   5.656   0.208  0.7103  0.1808  0.8986
12524TIP3    H258988   5.544   5.681   0.339  1.4907 -0.0790  1.3855
12525TIP3   OH258989   6.434   5.730   4.876 -0.4533 -0.1936 -0.2363
12525TIP3    H158990   6.474   5.683   4.803 -1.5879 -2.6809  0.6384
12525TIP3    H258991   6.485   5.703   4.952 -1.5066 -0.5002  0.3786
12526TIP3   OH258992   1.610   0.210  13.331  0.1178  0.4095  0.0619
12526TIP3    H158993   1.575   0.299  13.333 -0.0337  0.3376  0.8730
12526TIP3    H258994   1.631   0.190  13.422 -0.1465 -0.5000 -0.0654
12527TIP3   OH258995   5.019   2.807   0.055  0.0804 -0.4027  0.4208
12527TIP3    H158996   4.977   2.887   0.088  0.1545 -0.8334  1.6216
12527TIP3    H258997   5.013   2.746   0.128 -2.1465 -2.3524 -1.2174
12528TIP3   OH258998   0.808   5.516   6.699  0.2200  0.2992 -0.2424
12528TIP3    H158999   0.763   5.599   6.713 -0.6214 -0.4862  2.2512
12528TIP3    H259000   0.891   5.524   6.746  0.6154  0.0856 -0.8853
12529TIP3   OH259001   1.555   1.415  16.628 -0.7317  0.6417 -0.3539
12529TIP3    H159002   1.592   1.370  16.552  0.0142  2.3779 -1.0877
12529TIP3    H259003   1.468   1.376  16.640  1.1163 -3.5540  1.3812
12530TIP3   OH259004   4.882   0.405  13.980 -0.4252  0.2097  0.3530
12530TIP3    H159005   4.916   0.442  14.062  2.5506 -0.8908 -0.2625
12530TIP3    H259006   4.956   0.411  13.919 -1.8491 -1.0368 -1.5955
12531TIP3   OH259007   0.409   0.544  12.214 -0.1323 -0.5039  0.2149
12531TIP3    H159008   0.366   0.590  12.287  1.2084  1.3102 -0.0720
12531TIP3    H259009   0.358   0.570  12.137  0.4148  0.2777  0.1000
12532TIP3   OH259010   1.721   2.213   0.635 -0.3648 -0.3007  0.1655
12532TIP3    H159011   1.776   2.135   0.630  0.7039  0.4932 -1.1828
12532TIP3    H259012   1.685   2.211   0.724  0.7739 -1.5690  0.6343
12533TIP3   OH259013   4.325   0.070  16.822 -0.4481  0.6720  0.0689
12533TIP3    H159014   4.278   0.083  16.740 -0.2195  0.2092 -0.1425
12533TIP3    H259015   4.399   0.013  16.798  0.8765  2.2866  0.1507
12534TIP3   OH259016   1.851   2.467   1.472  0.0478 -0.3222 -0.0911
12534TIP3    H159017   1.822   2.477   1.562  1.1659 -1.1859  0.3890
12534TIP3    H259018   1.917   2.535   1.460  2.0669 -2.0431  0.7309
12535TIP3   OH259019   4.761   2.631  11.187 -0.3902  0.0375 -0.2352
12535TIP3    H159020   4.784   2.716  11.224  0.0873  0.7150 -1.9881
12535TIP3    H259021   4.688   2.600  11.240 -1.5597  2.2305 -0.4732
12536TIP3   OH259022   3.691   6.810   2.528  0.1607  0.5028 -0.2554
12536TIP3    H159023   3.717   6.854   2.609 -2.5446  1.2463  0.3185
12536TIP3    H259024   3.647   6.879   2.477 -0.2994 -0.5289 -1.2823
12537TIP3   OH259025   2.178   5.385   2.906  0.2192  0.2180  0.6189
12537TIP3    H159026   2.121   5.407   2.979  1.1214  0.8376  1.1565
12537TIP3    H259027   2.138   5.427   2.830 -0.7219 -0.4279  0.7315
12538TIP3   OH259028   5.673   6.491  13.192 -0.4488  0.3969  0.4133
12538TIP3    H159029   5.616   6.481  13.268  0.0068  0.5460  0.7758
12538TIP3    H259030   5.629   6.557  13.138 -1.6514 -0.9289 -0.2943
12539TIP3   OH259031   0.870   3.394  12.248 -0.2715  0.7413  0.3523
12539TIP3    H159032   0.940   3.459  12.256  1.4505 -0.4472 -3.1550
12539TIP3    H259033   0.914   3.310  12.254 -1.9179 -0.1165  1.0911
12540TIP3   OH259034   1.920   4.426   4.707  0.6453  0.4239  0.1928
12540TIP3    H159035   1.869   4.355   4.746 -0.4356 -0.1409 -2.0761
12540TIP3    H259036   1.858   4.497   4.694  1.2822  1.0806  0.6903
12541TIP3   OH259037   2.112   1.787  11.756 -0.5808  0.1908 -0.4258
12541TIP3    H159038   2.160   1.856  11.710  0.4133  0.3492  0.8217
12541TIP3    H259039   2.131   1.708  11.707  2.2469 -0.0373  0.8566
12542TIP3   OH259040   1.543   6.510   5.188  0.2942 -0.5191 -0.5421
12542TIP3    H159041   1.623   6.545   5.227  0.9744 -2.8546  0.3167
12542TIP3    H259042   1.550   6.534   5.096  0.9693  1.0408 -0.1311
12543TIP3   OH259043   5.176   1.369  14.581 -0.4846 -0.3072  0.2093
12543TIP3    H159044   5.247   1.355  14.644 -1.1701  0.2060  1.1194
12543TIP3    H259045   5.217   1.355  14.496  0.9662  0.9297  0.6473
12544TIP3   OH259046   3.978   5.267   3.996  0.3209 -0.1397  0.2590
12544TIP3    H159047   4.068   5.235   4.009  0.3151  0.6194  2.6454
12544TIP3    H259048   3.967   5.269   3.901  1.8491 -2.8492 -0.0675
12545TIP3   OH259049   0.574   2.592   4.504 -0.3464 -0.7103  0.6469
12545TIP3    H159050   0.511   2.576   4.433 -0.1547  0.4240  0.1962
12545TIP3    H259051   0.530   2.560   4.583 -1.1669 -0.6653  0.2175
12546TIP3   OH259052   2.376   1.021  11.347  0.1793 -0.3570 -0.4932
12546TIP3    H159053   2.465   1.021  11.312  0.9058  1.2146  1.1973
12546TIP3    H259054   2.329   1.086  11.295 -0.1306 -1.4416 -1.6236
12547TIP3   OH259055   6.698   0.135  12.663  0.7935 -0.1103 -0.1114
12547TIP3    H159056   6.647   0.072  12.713  1.4341 -0.0135  0.6729
12547TIP3    H259057   6.778   0.148  12.714  1.3545  0.1721 -1.0366
12548TIP3   OH259058   6.704   0.392  10.519  0.4063 -0.4618 -0.2383
12548TIP3    H159059   6.679   0.471  10.567  1.5399 -0.2105 -0.0241
12548TIP3    H259060   6.621   0.348  10.500 -0.0919 -0.4650  1.7657
12549TIP3   OH259061   4.508   0.851  12.136 -0.1716  0.2117  0.0283
12549TIP3    H159062   4.577   0.802  12.091  0.2850 -0.1831  1.1114
12549TIP3    H259063   4.507   0.937  12.094  1.2148  0.3310  0.1944
12550TIP3   OH259064   1.332   3.309  11.524  0.7731  0.5496 -0.2632
12550TIP3    H159065   1.294   3.378  11.469 -1.5378  0.6866  1.3858
12550TIP3    H259066   1.411   3.349  11.560  0.4715  1.6675 -0.7814
12551TIP3   OH259067   0.344   6.353  15.465 -0.0462 -0.4769  0.5504
12551TIP3    H159068   0.339   6.320  15.375  1.6588  0.7258 -0.0419
12551TIP3    H259069   0.427   6.319  15.499  0.8317  1.5169  0.5649
12552TIP3   OH259070   0.003   2.956  15.054  0.5545 -0.3192 -0.5321
12552TIP3    H159071  -0.058   2.948  14.980 -1.0158  0.9727  0.5302
12552TIP3    H259072   0.088   2.974  15.013 -0.2382  0.2181 -2.0378
12553TIP3   OH259073   3.193   4.180   4.516 -0.0255 -0.5706 -0.2562
12553TIP3    H159074   3.163   4.187   4.425  3.5070  1.5637 -1.4749
12553TIP3    H259075   3.164   4.262   4.556  1.9977  0.4715 -0.8013
12554TIP3   OH259076   5.620   5.173   0.390 -0.1294 -0.2436  0.1566
12554TIP3    H159077   5.587   5.093   0.348 -2.1841  0.1789  0.8522
12554TIP3    H259078   5.615   5.154   0.483  1.3359 -0.0080  0.3057
12555TIP3   OH259079   0.017   1.504  13.885 -0.6554  0.2937  0.6758
12555TIP3    H159080  -0.016   1.466  13.967  0.8785  0.8471  1.5869
12555TIP3    H259081  -0.036   1.582  13.872 -0.8248  0.2764  1.2202
12556TIP3   OH259082   6.570   0.266   4.061  0.1963  0.7369  0.2965
12556TIP3    H159083   6.659   0.231   4.057 -0.2803 -0.5377  0.3522
12556TIP3    H259084   6.571   0.328   4.134  0.9303  0.4362  0.5490
12557TIP3   OH259085   5.527   0.836  15.806  0.1098 -0.1550 -0.0286
12557TIP3    H159086   5.574   0.869  15.730 -3.0262  0.6405 -1.7929
12557TIP3    H259087   5.503   0.746  15.783 -1.8447  0.4535 -0.6095
12558TIP3   OH259088   0.742   1.206  16.543  0.6446 -0.1801  0.5333
12558TIP3    H159089   0.763   1.237  16.454 -1.0072  0.6785  0.4027
12558TIP3    H259090   0.744   1.111  16.536 -0.2589 -0.1317 -0.6457
12559TIP3   OH259091   0.426   2.520   5.429  0.2069 -0.0198 -0.0371
12559TIP3    H159092   0.387   2.485   5.349 -0.8634 -0.4157  0.6378
12559TIP3    H259093   0.359   2.577   5.466  0.5072 -0.1945  0.8103
12560TIP3   OH259094   5.734   1.748   1.810 -0.1120 -0.1571  0.0947
12560TIP3    H159095   5.666   1.769   1.747 -1.1258 -0.7598  0.9524
12560TIP3    H259096   5.777   1.832   1.828  0.8411 -0.1276 -2.0809
12561TIP3   OH259097   4.816   3.346  11.687 -0.2702  0.5962  0.2254
12561TIP3    H159098   4.797   3.437  11.663 -1.2137  0.5448  0.7117
12561TIP3    H259099   4.733   3.300  11.675  0.3286 -0.3332 -0.5371
12562TIP3   OH259100   5.765   2.867  11.641  0.0617 -0.1998  0.0902
12562TIP3    H159101   5.800   2.950  11.672  1.2511  0.4646 -2.7629
12562TIP3    H259102   5.796   2.802  11.705  0.2487  1.3323  1.6124
12563TIP3   OH259103   6.245   6.390   1.237 -0.5769 -0.0617  0.2827
12563TIP3    H159104   6.188   6.375   1.161 -0.7984  0.6881  0.2887
12563TIP3    H259105   6.305   6.460   1.208 -0.6033  0.1645  0.7692
12564TIP3   OH259106   2.392   0.569   3.780  0.3214  0.1598 -0.0970
12564TIP3    H159107   2.371   0.476   3.780  1.5657 -0.1396 -0.3035
12564TIP3    H259108   2.469   0.576   3.838  0.0863  1.0928  0.1164
12565TIP3   OH259109   5.117   0.666  16.157  0.0262  0.5223  0.3997
12565TIP3    H159110   5.087   0.679  16.067  0.2973  2.6949  0.5530
12565TIP3    H259111   5.046   0.620  16.200 -1.8541  2.8230 -0.0179
12566TIP3   OH259112   4.487   2.891   4.107 -0.3403 -0.2719 -0.2007
12566TIP3    H159113   4.567   2.880   4.055 -0.1828  2.6028 -0.7297
12566TIP3    H259114   4.510   2.854   4.192  1.6378  0.4701 -0.3307
12567TIP3   OH259115   1.402   1.722  16.236  0.4261  0.4843  0.5227
12567TIP3    H159116   1.401   1.789  16.304  1.3740  1.7346 -0.6382
12567TIP3    H259117   1.393   1.771  16.154  0.9770 -0.8216 -0.3511
12568TIP3   OH259118   5.279   3.752   0.130  0.0277  0.0511  0.0964
12568TIP3    H159119   5.220   3.712   0.065  1.4865  2.8320 -3.2831
12568TIP3    H259120   5.221   3.777   0.202 -2.2093 -0.8884 -1.2304
12569TIP3   OH259121   3.035   5.620  14.628  0.1999  0.5700 -0.9340
12569TIP3    H159122   3.115   5.577  14.597 -0.5038 -1.1887 -0.4335
12569TIP3    H259123   3.018   5.688  14.563  1.9875  0.8789 -1.1493
12570TIP3   OH259124   1.254   3.155  16.284  0.1489  0.4067 -0.4641
12570TIP3    H159125   1.249   3.178  16.191  2.6301 -1.7186 -1.2398
12570TIP3    H259126   1.203   3.075  16.292  0.2690  0.3681 -0.0632
12571TIP3   OH259127   2.589   1.679  12.280 -0.2669 -0.2773 -0.0148
12571TIP3    H159128   2.511   1.734  12.275  0.1584  0.2576 -1.6069
12571TIP3    H259129   2.660   1.735  12.247  0.4239 -1.3540 -0.4407
12572TIP3   OH259130   2.549   3.711  16.987  0.1610  1.2163 -0.0015
12572TIP3    H159131   2.499   3.784  16.949  1.4323  1.7623 -0.6713
12572TIP3    H259132   2.618   3.694  16.923 -1.6935 -2.4793 -1.3396
12573TIP3   OH259133   5.944   6.808  14.257 -0.1460 -0.4550 -0.0148
12573TIP3    H159134   5.939   6.775  14.347 -3.3539  0.5558  0.2989
12573TIP3    H259135   5.920   6.734  14.203  1.5795 -1.0041 -0.1039
12574TIP3   OH259136   1.454   3.298  15.718  0.6396  0.1760  0.3326
12574TIP3    H159137   1.435   3.239  15.791 -0.5840  0.3732  0.1926
12574TIP3    H259138   1.429   3.249  15.640  1.3023  0.2170  0.0926
12575TIP3   OH259139   4.514   6.766  13.920  0.6709  0.2131 -0.3264
12575TIP3    H159140   4.592   6.726  13.960  0.1462  1.3757  2.0974
12575TIP3    H259141   4.545   6.851  13.889  0.5398  0.3927  0.0239
12576TIP3   OH259142   5.170   2.193   3.831  0.4265  0.4078 -0.3655
12576TIP3    H159143   5.088   2.153   3.803  0.6344 -0.9515  0.8132
12576TIP3    H259144   5.190   2.151   3.915  1.8836  1.3346 -0.2036
12577TIP3   OH259145   4.849   1.505   2.324  0.1555  0.2857 -0.1026
12577TIP3    H159146   4.783   1.571   2.302  0.0515  0.0226 -0.6122
12577TIP3    H259147   4.914   1.512   2.254 -0.2871 -0.7173 -0.6375
12578TIP3   OH259148   2.233   5.881  11.887  0.2107 -0.0209 -0.0281
12578TIP3    H159149   2.318   5.925  11.885 -0.4706  1.3359 -0.8957
12578TIP3    H259150   2.251   5.791  11.861  1.0964  0.8293 -2.6684
12579TIP3   OH259151   5.885   4.802  13.074 -0.2889 -0.2997 -0.2702
12579TIP3    H159152   5.979   4.790  13.070 -0.3284 -1.4419  1.3221
12579TIP3    H259153   5.851   4.758  12.996  0.4723 -0.0608 -0.7369
12580TIP3   OH259154   6.355   5.350   4.647  0.3187  0.4315 -0.4256
12580TIP3    H159155   6.386   5.260   4.643  0.5427  0.5195 -0.7494
12580TIP3    H259156   6.294   5.357   4.574 -0.0721  0.4076 -0.1061
12581TIP3   OH259157   2.171   5.254  13.518 -0.0328  0.5536  0.4133
12581TIP3    H159158   2.163   5.316  13.446  2.1848  1.1579  0.6296
12581TIP3    H259159   2.141   5.303  13.595 -2.4931 -0.1224 -0.0201
12582TIP3   OH259160   5.492   6.196   2.407 -0.2199  0.2883 -0.0203
12582TIP3    H159161   5.508   6.290   2.404  1.1147  0.0878  0.4302
12582TIP3    H259162   5.484   6.176   2.500  0.8186 -0.2369 -0.0268
12583TIP3   OH259163   1.111   1.280   6.257 -0.4070 -0.6352  0.1178
12583TIP3    H159164   1.117   1.282   6.353  0.7275 -1.1896  0.0755
12583TIP3    H259165   1.020   1.304   6.238 -0.2679  1.0092  1.2653
12584TIP3   OH259166   4.560   3.586   2.309 -0.0358  0.4393  0.0196
12584TIP3    H159167   4.467   3.566   2.306 -0.1171  0.7949  0.1885
12584TIP3    H259168   4.581   3.592   2.402  0.1811  0.2451 -0.0150
12585TIP3   OH259169   0.301   3.884   2.973 -0.3049  0.6189  0.1224
12585TIP3    H159170   0.295   3.839   2.888 -0.8732  0.7090  0.1096
12585TIP3    H259171   0.211   3.884   3.006  0.2078 -1.4603  1.7850
12586TIP3   OH259172   2.562   0.951  12.691  0.1996  0.0766 -0.5361
12586TIP3    H159173   2.583   0.934  12.783  0.4522 -0.2678 -0.6568
12586TIP3    H259174   2.480   1.001  12.694  0.5706  0.6742 -0.0979
12587TIP3   OH259175   6.533   6.234   4.831 -0.8373  0.1610 -0.7324
12587TIP3    H159176   6.450   6.190   4.847 -1.1558  0.8778 -0.3741
12587TIP3    H259177   6.510   6.312   4.781 -0.7111  1.6522  1.4234
12588TIP3   OH259178   2.675   0.636  11.621  0.6964 -0.4529  0.2135
12588TIP3    H159179   2.697   0.729  11.625 -0.1134 -0.2411 -0.0782
12588TIP3    H259180   2.585   0.631  11.652  0.4575 -1.0414 -0.5401
12589TIP3   OH259181   4.807   2.927  14.699 -0.1196 -0.4642 -0.0371
12589TIP3    H159182   4.893   2.906  14.662 -1.6206 -1.2670 -3.5205
12589TIP3    H259183   4.796   3.021  14.683 -0.2431 -0.5548 -0.5125
12590TIP3   OH259184   1.561   0.047  11.682  0.4337  0.6147  0.8466
12590TIP3    H159185   1.629   0.097  11.638 -0.0993  1.2388  0.7247
12590TIP3    H259186   1.499   0.113  11.714 -0.4930  0.0216  0.3172
12591TIP3   OH259187   2.420   6.290   0.246 -0.5128  0.0859 -0.2061
12591TIP3    H159188   2.427   6.355   0.175 -0.7357  1.3596  0.8968
12591TIP3    H259189   2.363   6.222   0.211 -0.8143  0.8134 -1.1700
12592TIP3   OH259190   4.770   3.048   3.332 -0.5249 -0.2395 -0.1150
12592TIP3    H159191   4.775   3.135   3.372  0.5093 -0.1809 -0.3269
12592TIP3    H259192   4.677   3.033   3.319 -0.7032  1.1863 -0.7890
12593TIP3   OH259193   3.801   0.500   3.057 -0.1652 -0.5856 -0.3189
12593TIP3    H159194   3.766   0.584   3.027 -0.4435 -1.5496 -2.9597
12593TIP3    H259195   3.877   0.523   3.111 -1.3220  1.3652  0.6075
12594TIP3   OH259196   6.548   5.001  13.174  0.2027 -0.1597 -0.0483
12594TIP3    H159197   6.566   5.084  13.130 -1.0212  0.8340  1.2029
12594TIP3    H259198   6.634   4.965  13.194  0.7691  1.1097 -0.0906
12595TIP3   OH259199   5.198   3.404  15.843 -0.2574  0.6263 -0.4511
12595TIP3    H159200   5.145   3.482  15.829 -1.0351 -0.0335 -1.3648
12595TIP3    H259201   5.138   3.341  15.882 -0.0776 -0.0160 -1.1818
12596TIP3   OH259202   5.912   0.579  12.123 -0.4472 -0.7551  0.1794
12596TIP3    H159203   5.833   0.548  12.167 -0.9884  0.4925  0.1402
12596TIP3    H259204   5.880   0.630  12.048  0.3430  0.5036  0.6515
12597TIP3   OH259205   0.860   6.217   3.095 -0.1406  0.3588  0.7021
12597TIP3    H159206   0.847   6.217   3.000  2.6202 -0.0332  0.2614
12597TIP3    H259207   0.929   6.281   3.110  0.6644 -0.7996  2.2224
12598TIP3   OH259208   0.524   4.634  15.423  0.4944 -0.2973  0.2786
12598TIP3    H159209   0.514   4.657  15.330  0.4989  1.0068  0.5853
12598TIP3    H259210   0.458   4.686  15.468 -1.0388 -2.5624  0.8303
12599TIP3   OH259211   5.966   1.827  14.903 -0.0329 -0.3971  1.0606
12599TIP3    H159212   6.055   1.797  14.922  0.1282  1.1896  3.2688
12599TIP3    H259213   5.939   1.874  14.982 -2.2719  0.4984 -0.1240
12600TIP3   OH259214   6.459   0.379  17.039  0.2355 -0.2451  0.6568
12600TIP3    H159215   6.501   0.462  17.060  0.7043 -0.5254  0.8273
12600TIP3    H259216   6.516   0.312  17.077 -0.9495 -0.5818  1.9174
12601TIP3   OH259217   5.063   1.298   6.449 -0.1484  0.1542  0.0836
12601TIP3    H159218   5.085   1.284   6.357 -3.1394 -1.3282 -0.5191
12601TIP3    H259219   5.018   1.218   6.476  0.0923  0.7926  2.6976
12602TIP3   OH259220   3.161   3.525   3.928 -0.1716  0.6788  0.1600
12602TIP3    H159221   3.173   3.620   3.940  2.1621  0.2723  1.7594
12602TIP3    H259222   3.080   3.505   3.975 -0.7355  1.8652 -0.2626
12603TIP3   OH259223   0.134   3.881  13.260  0.0301  0.4510  0.2411
12603TIP3    H159224   0.221   3.914  13.237  0.3490  0.4996  1.4712
12603TIP3    H259225   0.081   3.960  13.269  0.4119  0.5635  1.6551
12604TIP3   OH259226   1.212   6.385  15.290  0.0612 -0.1003 -0.1570
12604TIP3    H159227   1.166   6.301  15.295 -2.3272  1.1970  1.7381
12604TIP3    H259228   1.294   6.371  15.336 -1.2191 -0.9298  2.0129
12605TIP3   OH259229   1.833   5.207   0.254 -0.0102 -0.0492  0.0202
12605TIP3    H159230   1.776   5.144   0.299  0.7268 -0.7045  0.0745
12605TIP3    H259231   1.903   5.224   0.318 -1.0653  2.1582  0.6805
12606TIP3   OH259232   0.698   0.190  17.066 -0.3394  0.1702 -0.4477
12606TIP3    H159233   0.731   0.195  17.156 -0.6347  0.7076 -0.3616
12606TIP3    H259234   0.773   0.217  17.013  0.1949 -1.2460 -0.4604
12607TIP3   OH259235   4.639   6.783  13.054 -0.2542 -0.2492 -0.2714
12607TIP3    H159236   4.611   6.858  13.002  1.5221  0.0204 -0.9135
12607TIP3    H259237   4.729   6.766  13.026  0.1453 -1.2408  1.4347
12608TIP3   OH259238   4.263   3.318  11.910 -0.2402  0.4423  0.0389
12608TIP3    H159239   4.239   3.409  11.928 -1.4359 -0.0617  1.2135
12608TIP3    H259240   4.341   3.304  11.963 -0.8923  0.3951  1.0209
12609TIP3   OH259241   5.874   0.912  16.668 -0.0680 -0.3741  0.2608
12609TIP3    H159242   5.877   1.007  16.683  1.6721 -0.8492  4.3342
12609TIP3    H259243   5.823   0.878  16.741  0.6733 -2.7163 -0.2365
12610TIP3   OH259244   1.703   6.080  12.237  0.4560  0.8110 -0.1109
12610TIP3    H159245   1.773   6.124  12.190  1.4997 -0.1239  0.5383
12610TIP3    H259246   1.736   5.992  12.255 -0.7125  0.4775  0.5682
12611TIP3   OH259247   2.195   5.411  16.557 -0.3832 -0.1999 -0.2424
12611TIP3    H159248   2.168   5.472  16.626  0.9420 -0.9574  0.9950
12611TIP3    H259249   2.279   5.446  16.526  0.1826 -1.1436  0.1909
12612TIP3   OH259250   1.103   4.522  13.693 -0.2701 -0.2011  0.0846
12612TIP3    H159251   1.118   4.478  13.609 -0.2976 -2.2660  1.0921
12612TIP3    H259252   1.139   4.462  13.758  0.3879  1.6839  1.5319
12613TIP3   OH259253   6.393   3.593  14.994 -0.1057  0.1730  0.5049
12613TIP3    H159254   6.340   3.659  14.949 -1.0145  0.0335  1.3541
12613TIP3    H259255   6.352   3.510  14.974 -0.6834  0.1255  1.7666
12614TIP3   OH259256   4.187   5.307   1.975 -0.5957  0.5866 -0.6195
12614TIP3    H159257   4.172   5.276   1.886  0.5727  1.1620 -1.0502
12614TIP3    H259258   4.220   5.397   1.964 -1.1090  0.9232  0.4262
12615TIP3   OH259259   3.362   1.012   5.721 -0.2347 -0.0956 -0.0213
12615TIP3    H159260   3.414   1.091   5.719  0.2543 -0.4122  0.0639
12615TIP3    H259261   3.363   0.979   5.631 -0.6871  0.1526 -0.1203
12616TIP3   OH259262   0.450   6.789  12.386  0.3792  0.0848  0.6311
12616TIP3    H159263   0.420   6.829  12.467 -3.1859 -0.7732 -0.0986
12616TIP3    H259264   0.378   6.805  12.324  2.1650 -0.8814 -1.8480
12617TIP3   OH259265   2.319   5.392  14.112  0.2664  0.8795  0.3751
12617TIP3    H159266   2.357   5.476  14.085  1.0093 -0.2396 -2.5073
12617TIP3    H259267   2.395   5.337  14.134  0.0513  0.1005 -0.7177
12618TIP3   OH259268   1.474   0.543  15.507 -0.1426 -0.2042  0.3889
12618TIP3    H159269   1.493   0.534  15.413 -0.8445  0.5883  0.1584
12618TIP3    H259270   1.380   0.556  15.511 -0.1213 -0.2620  1.2181
12619TIP3   OH259271   4.410   1.912  16.572 -0.2352 -0.1720  0.1452
12619TIP3    H159272   4.442   1.957  16.651 -0.0961  0.4581 -0.2634
12619TIP3    H259273   4.462   1.949  16.501  0.2616 -1.3711 -0.1454
12620TIP3   OH259274   0.934   1.048   0.098  0.4144  0.0390  0.3482
12620TIP3    H159275   0.855   1.028   0.048  1.0513  0.9928 -1.0895
12620TIP3    H259276   0.910   1.027   0.189 -1.2978 -0.1995 -0.1148
12621TIP3   OH259277   3.367   0.627  10.968  0.2468  0.7729 -0.1576
12621TIP3    H159278   3.404   0.539  10.965 -2.4852 -0.5299  0.7303
12621TIP3    H259279   3.391   0.666  10.884  0.7293 -1.1782 -0.9870
12622TIP3   OH259280   0.707   5.632  11.716 -0.3614 -0.5321 -0.1575
12622TIP3    H159281   0.685   5.555  11.663 -1.7381 -0.2437 -0.0538
12622TIP3    H259282   0.625   5.653  11.761  0.3243  0.2894  0.7214
12623TIP3   OH259283   5.053   1.221   1.614  0.0808  0.2672 -0.3357
12623TIP3    H159284   4.961   1.195   1.622  0.9010 -3.2653 -0.8751
12623TIP3    H259285   5.073   1.264   1.698 -1.5459 -0.7360  0.6191
12624TIP3   OH259286   5.231   1.871   2.944 -0.3145  0.0318 -0.0802
12624TIP3    H159287   5.279   1.927   2.883 -1.0204  0.1541 -0.5344
12624TIP3    H259288   5.180   1.813   2.888  0.7565 -1.4043  0.3642
12625TIP3   OH259289   0.279   6.005   2.798  0.1499 -0.2861  0.0178
12625TIP3    H159290   0.296   6.092   2.834  0.9987 -0.1257 -0.7231
12625TIP3    H259291   0.296   5.946   2.870 -0.3921  0.1556  0.5177
12626TIP3   OH259292   5.942   3.447  14.745 -0.1597  0.2448 -0.0461
12626TIP3    H159293   5.933   3.542  14.754 -1.5796  0.0347  0.9632
12626TIP3    H259294   6.006   3.436  14.674  1.5051  1.9501  1.0920
12627TIP3   OH259295   3.115   4.757   4.981 -0.4586 -0.4409 -0.3488
12627TIP3    H159296   3.159   4.842   4.981 -0.0638 -0.6252  0.5810
12627TIP3    H259297   3.138   4.717   4.897  0.9765 -0.4303  0.0140
12628TIP3   OH259298   1.246   5.330  12.438  0.4478  1.1738  0.0829
12628TIP3    H159299   1.172   5.324  12.499  2.3721  2.0744  2.6485
12628TIP3    H259300   1.245   5.245  12.393 -2.3417  1.3034 -0.3257
12629TIP3   OH259301   3.678   1.807   1.722  0.0386  0.0018  0.0181
12629TIP3    H159302   3.687   1.740   1.791  0.6253  1.1431  1.0873
12629TIP3    H259303   3.720   1.884   1.759  0.0287  0.7531 -1.5032
12630TIP3   OH259304   6.172   4.019   3.442 -0.3465 -0.2541  0.2241
12630TIP3    H159305   6.106   4.064   3.389  1.7096  0.2542 -2.0707
12630TIP3    H259306   6.242   4.083   3.453  1.1917 -1.7864 -0.2517
12631TIP3   OH259307   4.913   5.932   0.698 -0.5162 -0.6811 -0.0912
12631TIP3    H159308   4.903   5.983   0.618  0.6526  0.6901  0.5946
12631TIP3    H259309   4.923   5.842   0.667  0.2363 -0.1508 -1.5205
12632TIP3   OH259310   4.803   3.893   2.221  0.3227  0.0205  0.0501
12632TIP3    H159311   4.746   3.902   2.298 -1.1033  1.4451 -1.0950
12632TIP3    H259312   4.841   3.806   2.229  0.2364  0.1411  2.3660
12633TIP3   OH259313   5.645   6.109  11.123  0.5992 -0.7089 -0.1456
12633TIP3    H159314   5.663   6.141  11.212  2.4137  0.7612 -0.9616
12633TIP3    H259315   5.636   6.189  11.071  0.7987 -1.5401 -1.5002
12634TIP3   OH259316   1.198   0.517  14.662  0.1157 -0.2435 -0.2818
12634TIP3    H159317   1.135   0.446  14.671 -0.7488  0.5257 -0.1814
12634TIP3    H259318   1.146   0.593  14.637  0.9023  0.5892  0.5263
12635TIP3   OH259319   5.979   2.610   4.040  0.4756 -0.0554 -0.1663
12635TIP3    H159320   5.987   2.704   4.023 -0.4042  0.2891  1.1923
12635TIP3    H259321   5.938   2.575   3.961 -1.3906  1.1107  0.2235
12636TIP3   OH259322   3.002   1.352  11.466  0.8405 -0.4415 -0.3317
12636TIP3    H159323   2.917   1.308  11.457  0.8046  0.0218 -2.9311
12636TIP3    H259324   2.985   1.424  11.528 -0.5579 -0.6286 -0.4647
12637TIP3   OH259325   0.399   4.655   5.841 -0.0880 -0.0217 -0.0682
12637TIP3    H159326   0.421   4.641   5.749  0.2708  2.5468 -0.4449
12637TIP3    H259327   0.337   4.728   5.841 -1.2253 -0.9118  1.6521
12638TIP3   OH259328   6.715   5.555  11.789  0.4553 -0.2579 -0.9501
12638TIP3    H159329   6.663   5.588  11.862  0.7763 -1.7757  0.0162
12638TIP3    H259330   6.781   5.623  11.773 -0.4730  0.7084 -0.7583
12639TIP3   OH259331   4.070   6.669   5.755 -0.1023 -0.3747 -0.5014
12639TIP3    H159332   4.085   6.703   5.843 -0.6269  0.5946 -0.7768
12639TIP3    H259333   4.123   6.725   5.698 -0.8507 -0.1047 -0.9485
12640TIP3   OH259334   1.238   3.284  15.089  0.7690  0.2173 -0.0734
12640TIP3    H159335   1.327   3.314  15.068  1.1412  0.6858  1.8787
12640TIP3    H259336   1.243   3.260  15.182 -0.7423 -1.3888 -0.3507
12641TIP3   OH259337   3.781   3.109  16.322 -0.4874  0.0290 -0.1201
12641TIP3    H159338   3.859   3.054  16.331 -0.2976  0.1575 -0.8442
12641TIP3    H259339   3.779   3.162  16.401  1.6040  1.8167 -1.1538
12642TIP3   OH259340   0.236   2.634   5.209  0.4601 -0.0661  0.1568
12642TIP3    H159341   0.294   2.693   5.257  0.4754 -1.1360  1.5247
12642TIP3    H259342   0.213   2.682   5.130 -0.3167  2.1696  1.6501
12643TIP3   OH259343   0.017   6.392   0.266 -0.1972 -0.6885  0.1675
12643TIP3    H159344   0.064   6.309   0.280 -0.6010 -0.5648  3.0601
12643TIP3    H259345  -0.071   6.365   0.237  0.5037 -1.0902 -1.6740
12644TIP3   OH259346   3.534   1.348  10.669 -0.7648  0.7211 -0.4621
12644TIP3    H159347   3.616   1.315  10.706  0.1551  0.6193 -2.4574
12644TIP3    H259348   3.469   1.332  10.737  0.9627  1.4168  1.4534
12645TIP3   OH259349   1.635   0.439   3.653 -0.1618  0.0112  0.2287
12645TIP3    H159350   1.548   0.459   3.618 -1.0018  0.2608  2.2744
12645TIP3    H259351   1.618   0.379   3.726  1.0285  2.1154  2.3939
12646TIP3   OH259352   5.346   1.585   4.017  0.0502  0.8775  0.1699
12646TIP3    H159353   5.294   1.662   3.992  1.6336  2.8593  2.5162
12646TIP3    H259354   5.425   1.591   3.964 -0.6291 -0.2418 -0.9978
12647TIP3   OH259355   0.816   0.645   2.842 -0.1134  0.8186  0.6037
12647TIP3    H159356   0.739   0.690   2.806  0.0861  0.9773  0.3723
12647TIP3    H259357   0.802   0.553   2.821 -0.7893  0.6905  1.5547
12648TIP3   OH259358   6.407   0.284   5.453 -0.3591 -0.8825  0.3245
12648TIP3    H159359   6.459   0.248   5.525  1.9403 -0.5591 -1.0555
12648TIP3    H259360   6.361   0.208   5.416  0.3318 -1.4850  0.6759
12649TIP3   OH259361   0.020   3.346  15.233  0.2348  0.0472  0.0833
12649TIP3    H159362  -0.043   3.305  15.174 -1.4969  0.7552  1.3251
12649TIP3    H259363  -0.017   3.333  15.320  1.4383  1.1437  0.8005
12650TIP3   OH259364   3.845   1.550   4.842  0.3928  0.3442  0.5907
12650TIP3    H159365   3.761   1.573   4.880 -0.5575 -2.1069  0.1423
12650TIP3    H259366   3.831   1.553   4.748  1.7926  3.0465  0.3508
12651TIP3   OH259367   4.436   4.434  10.614  0.9404  0.7835  0.1627
12651TIP3    H159368   4.384   4.514  10.605  0.4373  0.6878  1.8459
12651TIP3    H259369   4.526   4.465  10.620  0.8829  1.1160 -0.6195
12652TIP3   OH259370   1.525   0.943   1.432  0.0151  0.1820  0.6305
12652TIP3    H159371   1.593   0.950   1.499  0.1341  1.1567  0.4199
12652TIP3    H259372   1.499   1.033   1.415 -1.4708 -0.1845  0.8396
12653TIP3   OH259373   6.350   2.619   1.560 -0.3471 -0.0091 -0.5093
12653TIP3    H159374   6.432   2.665   1.576  0.3252 -1.2613 -0.1519
12653TIP3    H259375   6.287   2.687   1.540  0.6066  1.0413 -0.0400
12654TIP3   OH259376   0.031   0.287  16.886 -0.1414 -0.5999  0.1862
12654TIP3    H159377  -0.062   0.307  16.891  0.3899  1.8511  1.3927
12654TIP3    H259378   0.048   0.276  16.792 -1.4043  0.0732 -0.1389
12655TIP3   OH259379   5.551   5.059   2.964  0.4070  0.0857  0.0583
12655TIP3    H159380   5.531   4.977   2.918  0.5564 -0.1852  0.4785
12655TIP3    H259381   5.639   5.082   2.936  0.1849  0.3695 -0.4425
12656TIP3   OH259382   6.617   3.293   3.180 -0.2231  0.5696  0.3226
12656TIP3    H159383   6.584   3.234   3.248  0.6191 -0.0582  0.2004
12656TIP3    H259384   6.711   3.298   3.196  0.1317 -0.2684 -1.2947
12657TIP3   OH259385   0.995   3.842  12.924  0.1846  0.1571 -0.4579
12657TIP3    H159386   0.923   3.846  12.861 -0.0684  1.2955 -0.1017
12657TIP3    H259387   0.976   3.763  12.976  0.2454 -0.6374 -1.5986
12658TIP3   OH259388   1.295   3.013  11.728  0.0989  0.1416 -0.2571
12658TIP3    H159389   1.206   3.049  11.733 -0.2824 -0.8531  0.4141
12658TIP3    H259390   1.301   2.979  11.638 -0.3706 -0.1918 -0.1681
12659TIP3   OH259391   4.949   4.709   0.216  0.0242 -0.0895  0.1628
12659TIP3    H159392   5.032   4.683   0.176 -1.2329 -1.1714 -1.9032
12659TIP3    H259393   4.938   4.647   0.289  0.6348 -0.4753 -0.0614
12660TIP3   OH259394   5.405   2.021  13.764 -0.3380  0.8122  0.4888
12660TIP3    H159395   5.439   2.044  13.677  0.8986  2.0367  1.2583
12660TIP3    H259396   5.404   1.925  13.764  1.1941  0.7604 -0.3166
12661TIP3   OH259397   5.668   2.446  14.292 -0.6017 -0.0448 -0.3642
12661TIP3    H159398   5.636   2.443  14.383  1.5540  2.5645  0.6418
12661TIP3    H259399   5.650   2.359  14.257  0.2114 -1.8550  3.2076
12662TIP3   OH259400   5.971   2.308   3.261  0.4073 -0.3899  0.1999
12662TIP3    H159401   5.917   2.243   3.214  0.0825 -0.1619  0.2558
12662TIP3    H259402   6.061   2.282   3.242  0.2809 -1.1531  0.6262
12663TIP3   OH259403   0.406   3.368   0.158 -0.6899  0.5888  0.4885
12663TIP3    H159404   0.347   3.299   0.129 -0.5448 -0.1968  1.9394
12663TIP3    H259405   0.477   3.321   0.203  0.6729  1.5504 -0.5648
12664TIP3   OH259406   2.131   3.035  15.356  0.0083  0.1351  0.3001
12664TIP3    H159407   2.185   3.043  15.435 -2.0883  1.0294  1.7357
12664TIP3    H259408   2.110   2.942  15.350  0.0106  0.0919  0.9302
12665TIP3   OH259409   6.722   1.244  13.769 -0.0115 -0.0549 -0.1038
12665TIP3    H159410   6.740   1.338  13.759 -1.4037  0.0964 -1.8300
12665TIP3    H259411   6.626   1.240  13.776  0.0151 -1.3675 -0.3498
12666TIP3   OH259412   2.052   0.882   2.494 -0.1298  0.6280 -0.0665
12666TIP3    H159413   2.079   0.932   2.417 -0.0490  0.4758 -0.1381
12666TIP3    H259414   2.092   0.795   2.481 -0.1730  0.5815  0.1124
12667TIP3   OH259415   0.859   5.686   2.479 -0.3295 -0.4208  0.2718
12667TIP3    H159416   0.846   5.592   2.468 -1.2794 -0.3242  0.5073
12667TIP3    H259417   0.914   5.693   2.557 -0.5010 -0.7668  0.4260
12668TIP3   OH259418   0.479   3.201  10.822 -0.0166 -0.0770 -0.3746
12668TIP3    H159419   0.442   3.287  10.844 -0.3699 -0.2858 -0.1279
12668TIP3    H259420   0.439   3.141  10.886 -1.0653 -0.7053 -1.5675
12669TIP3   OH259421   5.386   0.675  16.193  0.3613  0.5193  0.4227
12669TIP3    H159422   5.292   0.669  16.180  0.5229 -1.9100 -0.2250
12669TIP3    H259423   5.397   0.736  16.266 -1.6483  1.3229  0.1042
12670TIP3   OH259424   1.878   0.056  10.974 -0.7654 -0.2493 -0.1072
12670TIP3    H159425   1.897  -0.032  10.940 -0.0095  0.1817 -0.8357
12670TIP3    H259426   1.938   0.065  11.049  0.8536  0.5011 -1.4370
12671TIP3   OH259427   4.596   6.144  11.627 -0.5054  0.1458  0.3524
12671TIP3    H159428   4.590   6.114  11.718  0.9183 -0.0957  0.3913
12671TIP3    H259429   4.645   6.076  11.582 -0.6075  0.5828 -0.4449
12672TIP3   OH259430   1.807   4.455   6.131 -0.8346  0.2711 -0.9500
12672TIP3    H159431   1.811   4.368   6.171  2.8060  0.9089  0.4552
12672TIP3    H259432   1.776   4.512   6.201  2.1346  0.8251  0.0801
12673TIP3   OH259433   1.848   4.418   0.117 -0.4106 -0.2642  0.1056
12673TIP3    H159434   1.847   4.398   0.210 -0.7424 -0.7082  0.0083
12673TIP3    H259435   1.864   4.513   0.113  1.7654 -0.5418  0.5658
12674TIP3   OH259436   3.881   5.780   5.053  0.2575  0.4357  0.1641
12674TIP3    H159437   3.939   5.707   5.029  1.0366  1.2720 -0.6276
12674TIP3    H259438   3.826   5.746   5.123  0.7557 -0.8392 -0.0407
12675TIP3   OH259439   2.958   3.245  12.559 -0.1702  0.3838  0.0465
12675TIP3    H159440   2.904   3.280  12.630  1.6655  1.9407  0.7695
12675TIP3    H259441   2.978   3.321  12.505  0.8133 -0.2607 -0.5160
12676TIP3   OH259442   2.472   5.518   0.594 -0.5344 -0.2063  0.2690
12676TIP3    H159443   2.494   5.607   0.620  1.4581 -0.7271  0.4834
12676TIP3    H259444   2.500   5.512   0.502 -0.6457 -0.6289  0.2596
12677TIP3   OH259445   2.106   2.648  16.525 -0.5435  0.0700 -0.7155
12677TIP3    H159446   2.104   2.565  16.477 -2.4810 -0.7046  0.6134
12677TIP3    H259447   2.016   2.678  16.526  0.0280  1.9128 -0.6299
12678TIP3   OH259448   4.544   2.879  13.988 -0.0362 -0.0700 -0.3045
12678TIP3    H159449   4.620   2.908  14.039  0.2601 -2.0265  0.4529
12678TIP3    H259450   4.549   2.928  13.907  1.0924  1.0499  0.4065
12679TIP3   OH259451   0.543   2.796  11.172 -0.9904  0.6424 -0.3534
12679TIP3    H159452   0.537   2.792  11.267 -1.2828  1.0428 -0.3523
12679TIP3    H259453   0.500   2.716  11.142 -0.0598  0.0411 -0.1275
12680TIP3   OH259454   6.109   5.282  13.593  0.0493 -0.1929 -0.4062
12680TIP3    H159455   6.028   5.269  13.543  0.3148 -1.1393 -0.5900
12680TIP3    H259456   6.168   5.214  13.563  0.7302  0.1428  0.1411
12681TIP3   OH259457   2.177   4.468   2.483  0.2063 -0.1017 -0.3853
12681TIP3    H159458   2.141   4.380   2.493 -1.6602  0.6597 -0.0155
12681TIP3    H259459   2.104   4.520   2.450  1.3733  1.2426 -0.9310
12682TIP3   OH259460   5.390   0.393   4.124  0.4599  0.1867 -0.3888
12682TIP3    H159461   5.333   0.377   4.048  1.0315  0.7899 -0.9612
12682TIP3    H259462   5.409   0.305   4.158 -1.2559 -0.0006  0.1645
12683TIP3   OH259463   0.272   1.377   0.053  0.2364 -0.4136  0.1748
12683TIP3    H159464   0.252   1.468   0.075 -0.5653 -0.7993  1.1004
12683TIP3    H259465   0.309   1.341   0.134  1.7911 -0.5794 -0.5721
12684TIP3   OH259466   2.438   1.619  15.365  0.4953  0.3150  0.3710
12684TIP3    H159467   2.359   1.667  15.392  0.6239  1.2486 -0.8352
12684TIP3    H259468   2.426   1.531  15.401 -0.4500  0.8193  1.3620
12685TIP3   OH259469   1.426   6.634  11.303 -0.3066 -0.5145 -0.0497
12685TIP3    H159470   1.337   6.652  11.270 -0.7008  0.3811  1.4294
12685TIP3    H259471   1.447   6.548  11.267 -1.4184 -0.3700 -1.1458
12686TIP3   OH259472   5.403   6.425  13.335  0.2881 -0.0484  0.1351
12686TIP3    H159473   5.420   6.332  13.351  1.2234 -0.2304 -1.6842
12686TIP3    H259474   5.311   6.437  13.361  0.3280 -1.3276  0.9658
12687TIP3   OH259475   1.928   3.162  14.047  0.1388  0.4348 -0.0193
12687TIP3    H159476   1.888   3.199  13.969 -1.3376  0.8951  0.9139
12687TIP3    H259477   1.924   3.068  14.034 -1.7056  0.4465  0.2254
12688TIP3   OH259478   5.886   3.755  13.772  0.2327  0.0415 -0.5130
12688TIP3    H159479   5.804   3.714  13.749  1.1946 -0.8189 -2.6471
12688TIP3    H259480   5.868   3.800  13.854 -2.2195 -0.4754 -0.6991
12689TIP3   OH259481   5.485   1.599  15.814  0.0693 -0.1938  0.0671
12689TIP3    H159482   5.579   1.597  15.829  0.5660  2.5634 -2.0243
12689TIP3    H259483   5.469   1.527  15.752  0.6180 -1.1401  0.9863
12690TIP3   OH259484   3.231   6.446   2.347  0.1040 -0.6773  0.2620
12690TIP3    H159485   3.175   6.480   2.277  1.2818 -1.7434 -1.2468
12690TIP3    H259486   3.184   6.369   2.379  0.1875 -0.9599 -0.2798
12691TIP3   OH259487   0.177   4.717   5.416 -0.8149  0.5263  0.0608
12691TIP3    H159488   0.213   4.742   5.501 -1.3071 -0.1325  0.4773
12691TIP3    H259489   0.253   4.711   5.358 -0.4029  0.4040  0.6053
12692TIP3   OH259490   1.977   0.683  15.971  0.3329 -0.0099 -0.5166
12692TIP3    H159491   1.987   0.738  16.049  2.0819 -0.6383 -0.2769
12692TIP3    H259492   2.056   0.699  15.919 -0.2431 -0.5163 -1.5892
12693TIP3   OH259493   6.334   5.130  14.578  0.0755 -0.7873 -0.2482
12693TIP3    H159494   6.322   5.104  14.486 -0.8975 -1.9969  0.1928
12693TIP3    H259495   6.398   5.068  14.612  0.5859 -0.2132 -0.1507
12694TIP3   OH259496   1.176   5.935  13.378  0.0082 -0.3837 -0.1519
12694TIP3    H159497   1.225   6.014  13.401  1.0745 -1.5620  1.9008
12694TIP3    H259498   1.126   5.915  13.458 -1.6736 -0.7882 -1.2604
12695TIP3   OH259499   5.501   5.513  15.158  0.2124  0.5388  0.4728
12695TIP3    H159500   5.528   5.424  15.181 -1.2509 -0.2267 -0.6385
12695TIP3    H259501   5.484   5.554  15.243 -0.9230 -0.8546  0.9690
12696TIP3   OH259502   6.184   1.937   2.750  0.4918  0.1368  0.6224
12696TIP3    H159503   6.249   2.006   2.746  0.1487  0.4576  0.4582
12696TIP3    H259504   6.148   1.943   2.839  1.6515 -0.9544  1.2007
12697TIP3   OH259505   2.236   6.125   6.342 -0.0510 -0.3752  0.4357
12697TIP3    H159506   2.275   6.117   6.429 -1.3982 -0.3856  1.0689
12697TIP3    H259507   2.305   6.164   6.288  0.1052  1.8556  2.0760
12698TIP3   OH259508   2.844   4.753   0.678 -0.2422  0.1868  0.2482
12698TIP3    H159509   2.895   4.829   0.653  1.5028 -1.4497 -1.4849
12698TIP3    H259510   2.874   4.683   0.620 -1.6616 -1.8820  1.8353
12699TIP3   OH259511   0.491   6.046   0.140 -0.3649 -0.9944  0.2053
12699TIP3    H159512   0.447   6.115   0.091 -1.1673 -1.5879  0.0827
12699TIP3    H259513   0.439   6.036   0.220  0.4713 -0.5911  0.8262
12700TIP3   OH259514   6.679   1.756   0.754 -0.0967 -0.1007  0.5336
12700TIP3    H159515   6.655   1.668   0.728  0.3602  0.1657 -0.8481
12700TIP3    H259516   6.754   1.744   0.813 -0.1271 -0.6380  0.4642
12701TIP3   OH259517   0.253   5.140   1.928 -0.0151 -0.1825 -0.1040
12701TIP3    H159518   0.316   5.071   1.911  0.7552  0.8162 -1.5407
12701TIP3    H259519   0.286   5.184   2.006 -1.2634 -2.2092  1.6729
12702TIP3   OH259520   1.436   1.154  16.872 -0.0183  0.8290  0.1706
12702TIP3    H159521   1.396   1.222  16.817 -0.0565  1.7889  1.3625
12702TIP3    H259522   1.366   1.090  16.884 -0.9088  1.9843  1.3711
12703TIP3   OH259523   6.371   5.861   0.129 -0.4620  0.6734 -0.2760
12703TIP3    H159524   6.447   5.805   0.113 -1.1728  0.0811 -1.7986
12703TIP3    H259525   6.379   5.886   0.221  0.2592 -1.3815  0.2760
12704TIP3   OH259526   5.036   4.429  11.227  0.4122  0.1314 -0.1986
12704TIP3    H159527   4.970   4.491  11.259 -0.0283 -0.3215 -0.2099
12704TIP3    H259528   5.113   4.446  11.281  0.4657  1.0361 -0.5449
12705TIP3   OH259529   5.868   4.061  17.011 -0.2708 -0.0271  1.1102
12705TIP3    H159530   5.952   4.079  16.969 -0.7297 -0.0602  0.1533
12705TIP3    H259531   5.883   3.979  17.060  0.1678 -0.1931  0.7066
12706TIP3   OH259532   4.013   6.696   1.320 -0.0636 -0.6424  0.1821
12706TIP3    H159533   4.055   6.637   1.383 -0.2747 -1.3477 -0.3277
12706TIP3    H259534   4.082   6.717   1.257 -0.1634 -0.8859 -0.0112
12707TIP3   OH259535   3.260   6.520  16.543 -0.1452  0.1831  0.2335
12707TIP3    H159536   3.186   6.469  16.510  0.2059  0.2974 -0.7622
12707TIP3    H259537   3.294   6.469  16.617  0.0640 -0.9299 -0.6034
12708TIP3   OH259538   1.175   3.109  14.395 -0.5085 -0.0736  0.0080
12708TIP3    H159539   1.242   3.119  14.328  0.2663 -0.2186  0.7401
12708TIP3    H259540   1.102   3.164  14.365 -0.1078 -0.0079 -0.8544
12709TIP3   OH259541   3.199   2.351   2.910  0.4581 -0.0278  0.2788
12709TIP3    H159542   3.211   2.368   3.003  1.2657  0.3733  0.1092
12709TIP3    H259543   3.112   2.387   2.890  1.0439  1.5835  0.4944
12710TIP3   OH259544   2.446   0.329   3.541 -0.0913 -0.1162 -0.4155
12710TIP3    H159545   2.377   0.372   3.491 -1.5234 -1.0174  0.6937
12710TIP3    H259546   2.403   0.300   3.621  1.8236  0.1433  0.7699
12711TIP3   OH259547   0.645   4.966   6.088 -0.2911 -0.2969  0.2853
12711TIP3    H159548   0.560   4.950   6.129 -0.5080  0.9575  0.3371
12711TIP3    H259549   0.708   4.927   6.149 -0.5365  2.2578  2.3199
12712TIP3   OH259550   3.539   1.394   4.848 -0.2586  0.3445  0.0772
12712TIP3    H159551   3.516   1.314   4.895 -0.3356  1.7529  2.6852
12712TIP3    H259552   3.485   1.392   4.769  1.8566 -3.4730 -1.5541
12713TIP3   OH259553   1.793   0.912  10.319 -0.5148 -0.2350 -0.6122
12713TIP3    H159554   1.834   0.987  10.278 -0.4488  1.0811  1.7017
12713TIP3    H259555   1.722   0.949  10.372 -0.2029 -1.7061  0.9360
12714TIP3   OH259556   1.194   4.406   0.291  0.2557  0.3850  0.2828
12714TIP3    H159557   1.166   4.482   0.239  1.3617  0.7249  0.1507
12714TIP3    H259558   1.271   4.373   0.245  1.6273  1.0389  1.9920
12715TIP3   OH259559   2.093   0.510   1.447 -0.0462  0.4725 -0.0202
12715TIP3    H159560   2.028   0.482   1.382  0.9903  0.2957 -1.0149
12715TIP3    H259561   2.140   0.430   1.470 -0.4512  0.5207  1.0243
12716TIP3   OH259562   2.322   4.689   1.379 -0.7725 -0.0850 -0.0806
12716TIP3    H159563   2.277   4.725   1.456 -0.5813  0.5877 -0.2833
12716TIP3    H259564   2.401   4.647   1.415 -1.3216 -0.8859  0.2261
12717TIP3   OH259565   6.098   0.021  16.820  0.1898 -0.1398  0.1540
12717TIP3    H159566   6.175  -0.033  16.805 -0.1240 -0.2596 -1.1012
12717TIP3    H259567   6.134   0.104  16.853  0.7728 -0.5408  0.5623
12718TIP3   OH259568   6.156   4.790  13.058 -0.0495 -1.0935 -0.2724
12718TIP3    H159569   6.173   4.735  13.135 -1.4392  1.2904  1.9274
12718TIP3    H259570   6.204   4.871  13.076 -0.5375 -0.4093 -1.8842
12719TIP3   OH259571   0.675   2.413   4.983  0.4071  0.0902 -0.2339
12719TIP3    H159572   0.676   2.318   4.980  1.3069  0.0662  0.4711
12719TIP3    H259573   0.641   2.433   5.070 -0.2193  0.4276 -0.5472
12720TIP3   OH259574   6.208   1.846  16.042 -0.8222  0.3015 -0.2037
12720TIP3    H159575   6.220   1.763  16.087  1.0719  1.9701  2.6855
12720TIP3    H259576   6.292   1.862  15.998 -0.7776  1.1656  0.1740
12721TIP3   OH259577   0.411   2.611  13.292  0.4357 -0.6592  0.2953
12721TIP3    H159578   0.478   2.550  13.262 -1.1550 -2.4328  0.1864
12721TIP3    H259579   0.358   2.561  13.354 -0.6196  0.7711  0.6050
12722TIP3   OH259580   0.703   3.297  16.892  0.0468  0.3008  0.7824
12722TIP3    H159581   0.762   3.263  16.825  1.7131  1.1479  1.7415
12722TIP3    H259582   0.736   3.385  16.911 -0.9742  0.4528  2.0137
12723TIP3   OH259583   0.020   2.902   0.072 -0.3666 -0.3760 -0.1515
12723TIP3    H159584  -0.059   2.905   0.017  0.4066 -2.3804 -1.4735
12723TIP3    H259585   0.090   2.932   0.014  0.1903 -0.8090  0.2957
12724TIP3   OH259586   5.653   6.060   2.724 -0.0058 -0.1028  0.1801
12724TIP3    H159587   5.635   5.968   2.745  0.1525 -0.8373 -2.4714
12724TIP3    H259588   5.569   6.104   2.732 -0.2697 -0.6719  0.5843
12725TIP3   OH259589   4.943   4.687  14.969 -0.1228 -0.0774 -0.3662
12725TIP3    H159590   4.972   4.701  14.879 -2.4250  1.1895 -1.0007
12725TIP3    H259591   4.904   4.600  14.968  0.3084 -0.2710 -0.4601
12726TIP3   OH259592   5.637   6.164  13.786 -0.7406 -0.2454 -0.1835
12726TIP3    H159593   5.667   6.116  13.863  1.6871  0.5245 -0.5592
12726TIP3    H259594   5.587   6.238  13.822 -0.2365 -0.2869  0.6393
12727TIP3   OH259595   5.071   5.363  14.965 -0.1649  0.1517 -0.1495
12727TIP3    H159596   5.111   5.335  15.048  1.1273 -0.3643 -0.9219
12727TIP3    H259597   5.017   5.288  14.938 -1.6607  0.8181  0.8536
12728TIP3   OH259598   1.853   3.076   4.394  0.1499 -0.0289  0.1853
12728TIP3    H159599   1.783   3.108   4.338  1.5311  0.1154 -1.5439
12728TIP3    H259600   1.812   3.007   4.447 -1.5384  0.8181  0.0489
12729TIP3   OH259601   4.575   2.559  15.428 -0.3214  0.0300 -0.2329
12729TIP3    H159602   4.576   2.648  15.394 -0.8915  0.5809  1.1011
12729TIP3    H259603   4.661   2.547  15.468 -0.1260 -0.1407 -0.7022
12730TIP3   OH259604   1.608   2.544   5.590 -0.0794 -0.4221  0.0121
12730TIP3    H159605   1.688   2.573   5.546  0.1785 -0.3265  0.5344
12730TIP3    H259606   1.537   2.580   5.537  0.2066  2.4002  1.3978
12731TIP3   OH259607   5.490   5.892  16.688 -0.0740  0.0898  0.1512
12731TIP3    H159608   5.463   5.800  16.685  2.2974 -0.6562 -0.2382
12731TIP3    H259609   5.483   5.915  16.781  0.4602 -0.8924  0.4598
12732TIP3   OH259610   2.900   4.611   5.078  0.1840  0.1452 -0.0994
12732TIP3    H159611   2.851   4.672   5.133 -1.1829  0.5212 -1.6495
12732TIP3    H259612   2.972   4.663   5.042 -0.7829  0.7990 -1.1545
12733TIP3   OH259613   1.501   0.948  10.444  0.0581 -0.4300 -0.5596
12733TIP3    H159614   1.437   0.891  10.401 -0.6802  0.4637 -0.6757
12733TIP3    H259615   1.519   1.016  10.380  0.8772 -0.4837 -0.3941
12734TIP3   OH259616   0.122   0.554  15.148 -0.2293  0.0720 -0.2385
12734TIP3    H159617   0.169   0.503  15.083 -0.4333  0.2426 -0.5239
12734TIP3    H259618   0.151   0.644  15.134 -0.2829  0.1111 -0.1013
12735TIP3   OH259619   4.420   2.413   2.908  0.4914  0.7092 -0.2771
12735TIP3    H159620   4.327   2.400   2.925  0.1854  0.4643 -2.0064
12735TIP3    H259621   4.437   2.503   2.935 -0.2624  0.7986 -0.0804
12736TIP3   OH259622   1.002   6.050  13.718 -0.0017  0.0029 -0.3035
12736TIP3    H159623   1.027   5.976  13.662 -2.7407 -1.3046  0.0174
12736TIP3    H259624   1.022   6.021  13.807  1.0017  0.6021 -0.3225
12737TIP3   OH259625   1.716   5.765  11.668  0.3719 -0.4220  0.8097
12737TIP3    H159626   1.759   5.850  11.679 -0.1942 -0.3226  2.5739
12737TIP3    H259627   1.788   5.703  11.655  0.9094  0.0350  1.5716
12738TIP3   OH259628   2.092   5.893  11.538  0.1392 -0.0565  0.2853
12738TIP3    H159629   2.188   5.889  11.542  0.2469  1.2772 -0.4027
12738TIP3    H259630   2.068   5.823  11.478  0.6980 -0.2199  0.2430
12739TIP3   OH259631   1.708   0.911  16.205 -0.3877 -0.4065  0.2846
12739TIP3    H159632   1.673   0.831  16.166  0.8433 -0.8254 -0.0138
12739TIP3    H259633   1.792   0.885  16.242 -0.1697  0.6603  0.5867
12740TIP3   OH259634   3.182   3.065   5.922 -0.0573  1.0157  0.3434
12740TIP3    H159635   3.096   3.096   5.952  0.2646  1.9700  0.3199
12740TIP3    H259636   3.162   2.994   5.861 -0.8966  1.9884 -0.5532
12741TIP3   OH259637   6.491   6.487   0.437  0.1306 -0.0958  0.8150
12741TIP3    H159638   6.530   6.422   0.495  3.1426  2.0599  1.4615
12741TIP3    H259639   6.396   6.478   0.451  0.2444 -4.7278  0.2330
12742TIP3   OH259640   5.838   3.643   3.559  0.0247  0.4597  0.2165
12742TIP3    H159641   5.900   3.623   3.489 -2.5115  0.4230 -2.1818
12742TIP3    H259642   5.847   3.570   3.621  1.5632 -0.0898 -0.6207
12743TIP3   OH259643   2.023   1.413  16.953 -0.3839 -0.2393 -0.8736
12743TIP3    H159644   1.949   1.358  16.978 -0.6952  0.8017  0.5906
12743TIP3    H259645   2.019   1.488  17.012  0.7034  0.8060 -2.0588
12744TIP3   OH259646   2.942   1.948  11.450 -0.4321 -0.0729 -0.3403
12744TIP3    H159647   3.015   1.890  11.430 -0.8243 -0.8320  0.3709
12744TIP3    H259648   2.864   1.892  11.440 -0.6843 -0.7926  3.7703
12745TIP3   OH259649   1.058   0.281   4.895 -0.0069 -0.0396 -0.0252
12745TIP3    H159650   1.073   0.222   4.821  0.4362 -0.5982  0.4972
12745TIP3    H259651   0.966   0.305   4.889 -0.0532 -0.3417 -0.5670
12746TIP3   OH259652   6.413   5.537  15.080 -0.0139 -0.1801 -0.3427
12746TIP3    H159653   6.396   5.585  14.999  0.7786 -1.0600 -1.0580
12746TIP3    H259654   6.506   5.517  15.077  0.6384  2.0293  2.0811
12747TIP3   OH259655   4.104   0.456  15.028 -0.0326 -0.3447  0.0159
12747TIP3    H159656   4.131   0.395  14.959 -0.0996  1.0140 -1.2618
12747TIP3    H259657   4.029   0.502  14.991 -1.9186 -1.5605  2.1367
12748TIP3   OH259658   0.708   5.083   4.808  0.0192 -0.0903 -0.1259
12748TIP3    H159659   0.798   5.108   4.790 -0.0274  1.9219  1.9764
12748TIP3    H259660   0.664   5.089   4.723  1.9040 -1.6506 -1.3023
12749TIP3   OH259661   3.641   2.895  11.820 -0.2063 -0.0994 -0.4017
12749TIP3    H159662   3.658   2.824  11.883  0.6271 -0.3389 -0.8771
12749TIP3    H259663   3.709   2.959  11.838 -0.6852  0.3829 -0.2808
12750TIP3   OH259664   6.757   0.227   2.433 -0.2805 -0.0499 -0.1176
12750TIP3    H159665   6.782   0.306   2.482  1.9174 -0.0482 -1.1194
12750TIP3    H259666   6.709   0.260   2.357  1.5621  0.4977 -1.1161
12751TIP3   OH259667   3.844   3.644  13.729 -0.5994 -0.1998  0.2646
12751TIP3    H159668   3.805   3.730  13.714 -0.7008 -0.5538 -1.7945
12751TIP3    H259669   3.783   3.582  13.688  0.0519 -1.1555  0.6867
12752TIP3   OH259670   2.233   3.569   0.283  0.0493 -0.5594 -0.1317
12752TIP3    H159671   2.168   3.506   0.313 -0.2928 -0.3601 -0.4470
12752TIP3    H259672   2.297   3.516   0.236 -0.5132 -0.6158 -0.8535
12753TIP3   OH259673   3.711   4.403  14.079 -0.1812  0.4131  0.3963
12753TIP3    H159674   3.735   4.457  14.004  2.8269  0.5347  1.3462
12753TIP3    H259675   3.714   4.462  14.154 -2.1640  0.0538  0.8356
12754TIP3   OH259676   0.973   2.894   4.674 -0.0393  0.2516 -0.4681
12754TIP3    H159677   0.930   2.864   4.754  1.1800  1.1760  0.5974
12754TIP3    H259678   1.028   2.820   4.647 -0.3025  0.0047 -0.3274
12755TIP3   OH259679   5.187   2.102  15.317  0.2842  0.2053  0.2000
12755TIP3    H159680   5.167   2.125  15.408  1.5024 -0.7345  0.7444
12755TIP3    H259681   5.118   2.040  15.293  1.7365 -2.2025  1.7024
12756TIP3   OH259682   1.407   4.562   2.416  1.0158 -0.0965 -0.4091
12756TIP3    H159683   1.497   4.532   2.431  1.5570  1.1236 -0.9972
12756TIP3    H259684   1.409   4.599   2.328  0.1788  0.7975 -0.0739
12757TIP3   OH259685   2.000   1.039  11.968  0.4703  0.0709  0.1508
12757TIP3    H159686   1.954   1.119  11.944 -0.3911  0.1984  1.9870
12757TIP3    H259687   1.945   1.000  12.036  0.3810 -2.5896 -1.3495
12758TIP3   OH259688   0.896   3.150  16.247  0.2614  0.1799  0.1907
12758TIP3    H159689   0.818   3.122  16.294 -1.2578  1.7463 -1.2929
12758TIP3    H259690   0.864   3.202  16.174  2.6976  0.8490 -0.5120
12759TIP3   OH259691   5.155   6.247   1.550  0.0075  0.5045  0.1163
12759TIP3    H159692   5.213   6.319   1.575 -1.4878  1.2069  1.8069
12759TIP3    H259693   5.112   6.277   1.470  2.0687 -0.1448 -1.3344
12760TIP3   OH259694   3.828   1.665   5.644 -0.3102 -0.3560 -0.0311
12760TIP3    H159695   3.818   1.602   5.715 -0.1592  0.0174  0.3258
12760TIP3    H259696   3.909   1.712   5.665  0.1623 -0.7838 -0.8730
12761TIP3   OH259697   0.318   5.101  11.350  0.1607 -0.2835 -0.5629
12761TIP3    H159698   0.377   5.175  11.332 -0.8850  1.2906  1.9406
12761TIP3    H259699   0.269   5.090  11.268  0.9957  1.1853 -1.3186
12762TIP3   OH259700   3.662   6.359  13.377  0.1169  0.4262  0.0581
12762TIP3    H159701   3.575   6.399  13.369 -0.2095  0.0474  1.4771
12762TIP3    H259702   3.722   6.431  13.361 -0.4624  0.8922 -0.0820
12763TIP3   OH259703   5.491   1.956   4.997  0.2231 -0.0982  0.0560
12763TIP3    H159704   5.488   1.887   4.930 -0.7187  1.4715 -1.5977
12763TIP3    H259705   5.505   2.037   4.948 -0.3664  1.1116  1.7770
12764TIP3   OH259706   2.037   0.019  13.108  0.1030  0.0858  0.0420
12764TIP3    H159707   1.949  -0.018  13.111  0.7412 -1.4033  1.2844
12764TIP3    H259708   2.093  -0.053  13.079  0.9995  0.8772 -0.2526
12765TIP3   OH259709   4.189   1.628   3.583 -0.3014  0.0695 -0.1616
12765TIP3    H159710   4.192   1.550   3.639  1.4956  1.4258  1.8310
12765TIP3    H259711   4.097   1.655   3.584 -0.4226 -0.2162  1.8756
12766TIP3   OH259712   6.679   0.571   1.092  0.0904  0.2872 -0.3595
12766TIP3    H159713   6.768   0.557   1.060 -0.1388  0.0338 -0.9082
12766TIP3    H259714   6.690   0.596   1.184  0.7131  0.0040 -0.3505
12767TIP3   OH259715   2.580   0.816   0.626  0.1887 -0.5187 -0.3798
12767TIP3    H159716   2.614   0.900   0.655  0.3477  0.1283 -2.2730
12767TIP3    H259717   2.489   0.834   0.600  0.0383 -1.0637 -0.2602
12768TIP3   OH259718   2.961   2.106   5.920 -0.3460  0.2061  0.1457
12768TIP3    H159719   2.901   2.054   5.973 -0.2312 -0.6120 -0.5115
12768TIP3    H259720   2.960   2.193   5.961  1.8456 -1.0144  3.2241
12769TIP3   OH259721   1.725   5.784  15.080 -0.0324 -0.3668  0.3552
12769TIP3    H159722   1.797   5.841  15.108  0.4140 -0.3025 -0.8646
12769TIP3    H259723   1.724   5.713  15.143 -1.2252  1.4413  2.5080
12770TIP3   OH259724   6.724   0.765  11.470 -0.1135 -0.2156 -0.2220
12770TIP3    H159725   6.819   0.752  11.476 -0.2080 -0.7789  0.2333
12770TIP3    H259726   6.687   0.679  11.491 -0.7259 -0.0034 -0.4044
12771TIP3   OH259727   0.570   1.418  12.708  0.1438  0.8333 -0.1190
12771TIP3    H159728   0.622   1.338  12.701 -0.4570  0.5846 -2.0690
12771TIP3    H259729   0.610   1.465  12.781  1.4146 -0.5721  0.1445
12772TIP3   OH259730   6.146   5.009   0.266  0.5826  0.0399  0.6154
12772TIP3    H159731   6.145   4.990   0.172  0.6805 -0.5102  0.7206
12772TIP3    H259732   6.164   4.925   0.307  0.7839  0.3246  1.1181
12773TIP3   OH259733   6.432   6.643   5.509 -0.2181 -0.0796 -0.0794
12773TIP3    H159734   6.398   6.597   5.432 -1.8943  0.9557  0.0017
12773TIP3    H259735   6.484   6.577   5.555 -4.1927 -2.6800  1.1708
12774TIP3   OH259736   3.454   0.848   1.247 -0.5602 -0.5709 -0.2378
12774TIP3    H159737   3.429   0.780   1.184  0.7755 -2.0936  0.7817
12774TIP3    H259738   3.537   0.883   1.215 -1.8757  1.6033 -1.4668
12775TIP3   OH259739   2.553   5.788   0.997 -0.0934 -0.4031 -0.8338
12775TIP3    H159740   2.599   5.870   1.016  0.5042 -1.2536  1.7467
12775TIP3    H259741   2.622   5.726   0.975 -0.3259 -0.7544 -0.5935
12776TIP3   OH259742   0.587   4.243   0.124 -0.5280  0.2332 -0.1736
12776TIP3    H159743   0.565   4.329   0.088  0.3076  0.1690 -0.8927
12776TIP3    H259744   0.617   4.261   0.213  0.3859  0.8007 -0.5773
12777TIP3   OH259745   6.719   3.602   2.239 -0.2151 -0.6581 -0.3763
12777TIP3    H159746   6.694   3.568   2.153 -0.1190  1.4428 -1.2800
12777TIP3    H259747   6.659   3.674   2.256 -0.1400 -0.9373  1.2796
12778TIP3   OH259748   4.732   4.642   1.508 -0.2646  0.5074 -0.5173
12778TIP3    H159749   4.655   4.586   1.520  0.0263  0.4815  1.8342
12778TIP3    H259750   4.795   4.609   1.573  0.9992  1.7402 -1.0706
12779TIP3   OH259751   2.773   2.826  13.529  0.3483 -0.2836  0.6824
12779TIP3    H159752   2.702   2.769  13.557 -0.8469  1.4785  1.3672
12779TIP3    H259753   2.741   2.867  13.448  1.4547 -1.0058 -0.1640
12780TIP3   OH259754   6.752   3.133   0.283 -0.3691 -0.2704 -0.5063
12780TIP3    H159755   6.668   3.178   0.272  0.6429  1.5107 -1.4419
12780TIP3    H259756   6.732   3.040   0.272 -2.0593  0.1976 -1.7243
12781TIP3   OH259757   6.526   4.995  11.067 -0.5530 -0.4409 -0.8420
12781TIP3    H159758   6.489   5.033  11.147  3.8874 -0.5093  1.5882
12781TIP3    H259759   6.502   4.903  11.071 -0.9069 -0.3238  0.0653
12782TIP3   OH259760   3.376   2.679   5.928  0.2312 -0.1480 -0.6637
12782TIP3    H159761   3.392   2.702   6.020 -3.2550  1.3353 -0.2883
12782TIP3    H259762   3.383   2.762   5.881  0.7198 -0.6807 -1.5425
12783TIP3   OH259763   0.321   2.255  10.330 -0.2193 -0.1943 -0.1376
12783TIP3    H159764   0.338   2.328  10.390  2.8656 -0.7715 -0.1289
12783TIP3    H259765   0.233   2.224  10.353 -0.5664  1.8665  1.5888
12784TIP3   OH259766   3.302   5.853   5.392 -0.2225  0.4240  0.2362
12784TIP3    H159767   3.250   5.772   5.397 -1.4915  1.0375 -1.8483
12784TIP3    H259768   3.393   5.823   5.395 -0.6682 -1.0432  0.0911
12785TIP3   OH259769   4.375   3.105   3.930 -0.0406  0.5913  0.1235
12785TIP3    H159770   4.426   3.185   3.924 -1.9763  2.1142  2.2008
12785TIP3    H259771   4.424   3.050   3.991  0.5551  0.7962 -0.1599
12786TIP3   OH259772   3.609   0.492  16.387 -0.3315 -0.1467 -0.5039
12786TIP3    H159773   3.578   0.404  16.406  0.8758 -0.7158 -1.0572
12786TIP3    H259774   3.688   0.479  16.336 -0.8489  1.2866 -1.7403
12787TIP3   OH259775   0.753   4.463  11.353 -0.7334 -0.3340  0.2150
12787TIP3    H159776   0.842   4.428  11.344 -0.7812 -0.3468 -0.1892
12787TIP3    H259777   0.714   4.452  11.267 -0.3836  1.7582 -0.2577
12788TIP3   OH259778   5.343   1.285  16.521 -0.2074 -0.3555  0.0544
12788TIP3    H159779   5.314   1.376  16.534 -1.0996 -0.4435 -1.1760
12788TIP3    H259780   5.381   1.260  16.605 -0.2771  1.0398  0.5293
12789TIP3   OH259781   1.883   5.274   1.761  0.2638  0.1944 -0.0829
12789TIP3    H159782   1.847   5.300   1.845  1.5899 -2.5551  1.4632
12789TIP3    H259783   1.849   5.339   1.699 -0.1923  2.7302  2.6199
12790TIP3   OH259784   3.907   0.001  14.406  0.4685 -0.2214 -0.6608
12790TIP3    H159785   3.937   0.050  14.482  0.9045 -1.1368 -0.2408
12790TIP3    H259786   3.827  -0.043  14.435  0.3091 -0.1055 -0.9159
12791TIP3   OH259787   6.255   3.115  11.435 -0.0152  0.0085 -0.2323
12791TIP3    H159788   6.327   3.168  11.468 -0.9627  1.0223  0.2824
12791TIP3    H259789   6.249   3.137  11.342 -0.0584  0.4096 -0.1373
12792TIP3   OH259790   2.816   6.311   3.967 -0.3428 -0.1292  0.3912
12792TIP3    H159791   2.741   6.307   3.907 -0.3714  0.7311  0.3615
12792TIP3    H259792   2.857   6.396   3.949 -1.0473  0.7046  2.4306
12793TIP3   OH259793   5.461   0.637   5.743 -0.5686  0.0898  0.3258
12793TIP3    H159794   5.380   0.647   5.793 -0.8117  0.3419 -0.1098
12793TIP3    H259795   5.527   0.685   5.793 -0.7660  0.1679  0.5094
12794TIP3   OH259796   5.734   2.039  12.383 -0.3456 -0.3592 -0.2947
12794TIP3    H159797   5.825   2.067  12.392 -0.6764  0.2406  1.8219
12794TIP3    H259798   5.695   2.058  12.468 -2.3798 -0.9079 -1.0484
12795TIP3   OH259799   2.731   3.283   1.947  0.1146  0.1223 -0.1198
12795TIP3    H159800   2.802   3.340   1.916 -1.3635  1.3345 -1.4906
12795TIP3    H259801   2.775   3.213   1.994  2.4870 -0.7670 -3.3188
12796TIP3   OH259802   2.787   5.048  15.615 -0.0253  0.1061 -0.3548
12796TIP3    H159803   2.774   5.021  15.524 -1.7991  0.4407 -0.2405
12796TIP3    H259804   2.820   4.969  15.658  0.4332 -0.1779 -1.1886
12797TIP3   OH259805   2.682   5.267   0.203  0.7757  0.3385 -0.2585
12797TIP3    H159806   2.734   5.223   0.270 -2.9027 -1.4758  1.7274
12797TIP3    H259807   2.706   5.360   0.210  1.3525  0.0458  2.8231
12798TIP3   OH259808   0.762   0.393   2.728  0.6257 -0.3843 -0.6173
12798TIP3    H159809   0.704   0.327   2.690  1.7968 -2.1974  0.5810
12798TIP3    H259810   0.815   0.423   2.654  0.6189 -1.4005 -1.0577
12799TIP3   OH259811   2.767   2.835  12.585 -0.3886 -0.4082 -0.3817
12799TIP3    H159812   2.715   2.915  12.591  0.9209  0.4599  0.0563
12799TIP3    H259813   2.780   2.822  12.491 -3.6953 -2.2683 -0.7061
12800TIP3   OH259814   1.113   6.416   2.148 -0.5267  0.1008 -0.8240
12800TIP3    H159815   1.185   6.388   2.204 -2.2035  1.5087  2.3024
12800TIP3    H259816   1.145   6.497   2.108 -1.4599  3.1791  3.8267
12801TIP3   OH259817   1.317   2.514   0.332  0.0964  0.4860  0.2636
12801TIP3    H159818   1.252   2.454   0.296  0.4232  0.5579 -0.4673
12801TIP3    H259819   1.306   2.507   0.427  0.7337 -1.4164  0.2383
12802TIP3   OH259820   4.803   2.586  12.362 -0.5035  0.4896 -0.2370
12802TIP3    H159821   4.835   2.587  12.272 -1.4982 -3.5229 -0.8337
12802TIP3    H259822   4.779   2.495  12.378 -1.7417  1.2999  3.6471
12803TIP3   OH259823   3.999   3.546  12.235  0.1661  0.1646 -0.2992
12803TIP3    H159824   3.918   3.595  12.248 -1.2759 -1.8369 -1.0841
12803TIP3    H259825   4.010   3.498  12.318 -0.4158 -0.8182 -0.7692
12804TIP3   OH259826   0.256   4.535  12.940  0.0261  0.5592  0.4166
12804TIP3    H159827   0.249   4.452  12.986  0.9168 -0.5734 -1.3896
12804TIP3    H259828   0.338   4.528  12.891  0.4950  2.8079  0.7723
12805TIP3   OH259829   2.364   0.384  15.496 -0.0218 -0.2612  0.0563
12805TIP3    H159830   2.398   0.453  15.439 -0.4351  1.0025  1.2960
12805TIP3    H259831   2.441   0.349  15.540  0.1596 -0.4108 -0.3769
12806TIP3   OH259832   0.141   4.093  15.914  0.1949  0.0648 -0.1286
12806TIP3    H159833   0.094   4.090  15.830  0.8694  0.1563 -0.5165
12806TIP3    H259834   0.109   4.017  15.962 -2.4219  1.5752  0.7631
12807TIP3   OH259835   5.515   1.285  16.733  0.6980  0.0993  0.9128
12807TIP3    H159836   5.558   1.206  16.767 -2.3863 -2.1915  0.0261
12807TIP3    H259837   5.463   1.317  16.807  2.6942  2.0418  1.5772
12808TIP3   OH259838   1.775   4.617   2.202  0.0694  0.4628 -0.8000
12808TIP3    H159839   1.684   4.598   2.179  0.4319 -4.3169  0.5404
12808TIP3    H259840   1.826   4.564   2.141  1.7967  0.7579  0.3263
12809TIP3   OH259841   3.444   5.662  11.905  0.3894  0.1639  0.1163
12809TIP3    H159842   3.448   5.601  11.831 -0.0220  0.9237 -0.5572
12809TIP3    H259843   3.535   5.674  11.932  0.5206 -0.3210 -0.0982
12810TIP3   OH259844   4.976   3.590   1.779  0.0123 -0.0523  0.1842
12810TIP3    H159845   5.045   3.579   1.845  0.6741 -0.3195 -0.5324
12810TIP3    H259846   4.989   3.680   1.747  0.8022 -0.4708 -0.7646
12811TIP3   OH259847   3.393   0.612   3.186 -0.4864 -0.7898  0.2538
12811TIP3    H159848   3.337   0.665   3.243  1.2863 -0.0048  1.3501
12811TIP3    H259849   3.376   0.644   3.098  0.3681  1.4768  0.8592
12812TIP3   OH259850   5.147   4.257  14.750  0.0881 -0.1655 -0.4381
12812TIP3    H159851   5.234   4.282  14.718  1.1920  0.2408  2.5671
12812TIP3    H259852   5.156   4.254  14.845 -3.4948  0.9358  0.0841
12813TIP3   OH259853   4.340   2.236   6.080  0.1668 -0.3481 -0.6641
12813TIP3    H159854   4.422   2.199   6.113  0.1369 -0.8802 -1.1706
12813TIP3    H259855   4.272   2.177   6.113 -0.0156  0.0671 -0.2806
12814TIP3   OH259856   3.550   5.767   0.900 -0.2109  0.3746  0.1876
12814TIP3    H159857   3.510   5.722   0.974  1.4790 -0.6331  0.5455
12814TIP3    H259858   3.634   5.797   0.933 -0.3242  1.7989 -0.7331
12815TIP3   OH259859   3.019   1.242   1.595 -0.1757 -0.0053  0.6162
12815TIP3    H159860   3.073   1.284   1.661 -0.1476  0.0738  0.5432
12815TIP3    H259861   2.929   1.267   1.617 -0.1957 -0.2522  0.8214
12816TIP3   OH259862   1.391   1.339   5.451 -0.4034  0.2326  0.4036
12816TIP3    H159863   1.460   1.391   5.491  0.9712 -0.3582 -1.1055
12816TIP3    H259864   1.361   1.392   5.377  1.2214 -1.1276 -1.3390
12817TIP3   OH259865   4.615   2.381   1.632  0.3928 -0.2136  0.3102
12817TIP3    H159866   4.611   2.291   1.664 -0.6262 -0.2731  0.0468
12817TIP3    H259867   4.645   2.374   1.542  0.2771 -0.2943  0.2779
12818TIP3   OH259868   5.198   6.265  12.469 -0.0621 -0.1058  0.0310
12818TIP3    H159869   5.197   6.357  12.495 -0.2438 -0.2850  0.6969
12818TIP3    H259870   5.215   6.218  12.551  2.2054 -0.5597 -0.6453
12819TIP3   OH259871   6.780   6.048   1.902 -0.2170 -0.4242  0.0827
12819TIP3    H159872   6.717   6.117   1.881 -0.7532 -1.0167 -0.2748
12819TIP3    H259873   6.726   5.971   1.923  0.3769 -1.2096 -1.1576
12820TIP3   OH259874   6.241   3.795  14.889  0.1571  0.4291 -0.4455
12820TIP3    H159875   6.157   3.840  14.888  0.5169  1.1160 -0.1514
12820TIP3    H259876   6.292   3.839  14.957  0.5509 -0.3663 -0.2094
12821TIP3   OH259877   5.483   5.713  14.341  0.5919 -0.0038  0.0003
12821TIP3    H159878   5.452   5.775  14.407 -0.3228 -0.8275  0.3711
12821TIP3    H259879   5.471   5.759  14.258 -0.3072  0.2311  0.2512
12822TIP3   OH259880   1.081   0.887   1.246 -0.4313  0.1688 -0.2720
12822TIP3    H159881   1.058   0.963   1.191 -0.1657  0.9914  0.7146
12822TIP3    H259882   1.016   0.888   1.315 -0.0755 -0.1550  0.0702
12823TIP3   OH259883   5.307   6.167   0.925 -0.0836 -0.2022  0.3520
12823TIP3    H159884   5.375   6.235   0.921 -1.6353  1.5802  2.2455
12823TIP3    H259885   5.246   6.191   0.856 -0.1806 -0.2176  0.4332
12824TIP3   OH259886   4.517   5.970   0.930 -0.0735 -0.3037  0.0572
12824TIP3    H159887   4.484   5.948   1.017  0.9418 -0.5592  0.3811
12824TIP3    H259888   4.551   5.888   0.895  0.8178  0.0803 -0.0007
12825TIP3   OH259889   4.949   3.111   2.506 -0.4182 -0.0929  0.5551
12825TIP3    H159890   4.867   3.155   2.484 -0.8855 -0.7373  0.9647
12825TIP3    H259891   5.011   3.140   2.439 -1.2628 -0.4224 -0.3948
12826TIP3   OH259892   4.985   6.686  11.490  0.0041  0.2863  0.2226
12826TIP3    H159893   5.024   6.683  11.578 -0.6021  3.1233  0.6746
12826TIP3    H259894   5.054   6.651  11.433  1.3256  0.5628  1.5645
12827TIP3   OH259895   1.067   0.509   4.684 -0.6151  0.4917  0.2249
12827TIP3    H159896   1.057   0.604   4.689  0.2045  0.5522  1.0056
12827TIP3    H259897   1.130   0.488   4.754 -1.1685 -0.6796  0.3911
12828TIP3   OH259898   4.129   2.079  13.380  0.6856 -0.0657  0.3605
12828TIP3    H159899   4.120   2.173  13.399  2.0807  0.3358 -0.7651
12828TIP3    H259900   4.223   2.061  13.391  0.6134 -1.0671 -0.4880
12829TIP3   OH259901   2.715   0.687  14.908  0.1787 -0.2006  0.0800
12829TIP3    H159902   2.751   0.687  14.819  1.7433  1.5368  0.6504
12829TIP3    H259903   2.640   0.747  14.904 -0.2582 -0.7578 -0.2297
12830TIP3   OH259904   2.730   2.592   3.045 -0.5981 -0.9482  0.2563
12830TIP3    H159905   2.664   2.640   2.995 -0.1924 -1.2930 -0.6465
12830TIP3    H259906   2.738   2.640   3.127 -0.8472  0.0051 -0.2598
12831TIP3   OH259907   4.601   1.384   5.320  0.4940  0.4505  0.3937
12831TIP3    H159908   4.634   1.397   5.409  0.2736 -0.7071  0.6557
12831TIP3    H259909   4.559   1.467   5.298 -2.2776 -0.1990  2.6026
12832TIP3   OH259910   5.672   2.173  14.149 -0.7342 -0.0297 -0.1573
12832TIP3    H159911   5.634   2.193  14.064  0.3383  0.0633 -0.6309
12832TIP3    H259912   5.766   2.162  14.132 -0.2928  1.2350  1.2090
12833TIP3   OH259913   4.065   3.089   3.523  0.1771 -0.4247 -0.0059
12833TIP3    H159914   4.102   3.064   3.608  1.3221  0.5560 -0.1899
12833TIP3    H259915   4.110   3.032   3.460  0.2027 -0.3344 -0.0694
12834TIP3   OH259916   3.876   6.588  14.126 -0.7908  0.2072 -0.6034
12834TIP3    H159917   3.832   6.628  14.201  1.3707  0.5512  0.5498
12834TIP3    H259918   3.890   6.497  14.152  0.1117  0.3699 -0.4949
12835TIP3   OH259919   3.542   2.090   1.349 -0.1217  0.2141 -0.8010
12835TIP3    H159920   3.623   2.140   1.361 -0.2066  0.6932 -2.0250
12835TIP3    H259921   3.565   2.001   1.377  0.5244  0.5648 -0.1879
12836TIP3   OH259922   4.191   5.085   3.980 -0.5956 -0.0119 -0.1284
12836TIP3    H159923   4.255   5.127   3.922  0.0529  1.5470  1.6144
12836TIP3    H259924   4.232   5.002   4.005  0.7311  0.9117  0.8724
12837TIP3   OH259925   3.878   0.765  14.238 -0.2102  0.4789  0.0893
12837TIP3    H159926   3.862   0.814  14.319  0.3257 -0.6472  0.9047
12837TIP3    H259927   3.973   0.768  14.226  0.1308 -2.0744  1.3478
12838TIP3   OH259928   3.725   0.141  16.404  0.9550  0.3057  0.6806
12838TIP3    H159929   3.633   0.168  16.402  1.1075  0.9854 -2.2539
12838TIP3    H259930   3.723   0.051  16.436 -0.8518  0.0470 -0.0192
12839TIP3   OH259931   1.406   0.910  12.057  0.7227  0.1320 -0.0161
12839TIP3    H159932   1.460   0.962  11.997  0.7555  0.8275  0.5970
12839TIP3    H259933   1.438   0.933  12.144  0.3351 -0.4766  0.2924
12840TIP3   OH259934   5.487   2.092  12.992 -0.2445  0.7074  0.4323
12840TIP3    H159935   5.464   2.026  12.927 -1.2186  0.1683  1.2866
12840TIP3    H259936   5.573   2.066  13.025  0.5416  1.3365 -1.0499
12841TIP3   OH259937   3.914   2.207  11.209  0.2401 -0.0979  0.2974
12841TIP3    H159938   3.862   2.264  11.151  0.3341  0.1514  0.4588
12841TIP3    H259939   3.921   2.124  11.161  0.3143  0.1073 -0.0496
12842TIP3   OH259940   4.598   3.939   2.433  0.1604 -0.0460  0.0030
12842TIP3    H159941   4.579   4.022   2.389 -0.9949  0.2451  1.0116
12842TIP3    H259942   4.615   3.963   2.524 -1.5865 -1.0319  0.6318
12843TIP3   OH259943   0.185   5.996   3.926 -0.1209 -0.5405 -0.8402
12843TIP3    H159944   0.095   5.965   3.914 -0.2506  0.2879 -2.3052
12843TIP3    H259945   0.177   6.075   3.978 -0.3628  0.0977 -1.8250
12844TIP3   OH259946   5.130   5.093  17.076  0.5710 -0.2321  0.1867
12844TIP3    H159947   5.110   5.070  17.167 -0.1717 -0.1573  0.0494
12844TIP3    H259948   5.214   5.051  17.059 -0.1533 -1.8284  0.3371
12845TIP3   OH259949   4.299   1.169   3.874  0.1207  0.5377 -0.3848
12845TIP3    H159950   4.394   1.161   3.879 -0.0251 -0.8533  1.8292
12845TIP3    H259951   4.266   1.096   3.926 -2.0725  2.6305  1.4728
12846TIP3   OH259952   5.934   1.918  13.646 -0.3919 -0.2040 -0.2177
12846TIP3    H159953   6.020   1.960  13.645 -0.2223 -0.5536 -0.2517
12846TIP3    H259954   5.873   1.990  13.629  0.0849 -0.4757 -3.8433
12847TIP3   OH259955   1.970   6.396  13.526  0.0471  0.1419 -0.1718
12847TIP3    H159956   1.922   6.476  13.504 -0.6465  1.0271  3.8035
12847TIP3    H259957   2.053   6.427  13.562  0.2477 -0.9835  0.3725
12848TIP3   OH259958   0.877   4.918   0.810 -0.5424  0.2886  0.1644
12848TIP3    H159959   0.857   4.854   0.742 -0.4693 -2.1069  2.2583
12848TIP3    H259960   0.797   4.971   0.817 -0.0937  1.4931 -2.5821
12849TIP3   OH259961   3.430   3.947   4.903  0.4671  0.0212 -0.1148
12849TIP3    H159962   3.420   4.002   4.981 -2.2958  1.1347 -1.1163
12849TIP3    H259963   3.497   3.992   4.851 -1.1656  2.1432 -0.5478
12850TIP3   OH259964   3.252   1.670   0.723  0.0345 -0.1340 -0.0127
12850TIP3    H159965   3.250   1.607   0.795  2.9743  0.2638  0.5316
12850TIP3    H259966   3.217   1.750   0.761 -2.1825 -0.9120 -0.2469
12851TIP3   OH259967   2.648   6.719  15.588 -0.5346 -0.4985 -0.1281
12851TIP3    H159968   2.634   6.748  15.498 -0.2955  0.4142  0.1182
12851TIP3    H259969   2.564   6.681  15.614 -1.1627  0.7922 -0.1818
12852TIP3   OH259970   0.944   1.624  13.563 -0.4527  0.0436  0.2411
12852TIP3    H159971   1.039   1.618  13.551 -0.5717 -0.9515 -0.2626
12852TIP3    H259972   0.912   1.662  13.481 -0.6531 -1.1655 -0.2495
12853TIP3   OH259973   3.502   5.497  11.692  0.5862  0.3810  0.2927
12853TIP3    H159974   3.576   5.436  11.697 -1.6171 -2.5013  0.2863
12853TIP3    H259975   3.501   5.525  11.600  0.8186 -0.7489 -0.0740
12854TIP3   OH259976   3.823   3.862  14.896  0.2026 -0.5440 -0.3655
12854TIP3    H159977   3.881   3.791  14.870  2.0052  0.3595  0.9809
12854TIP3    H259978   3.762   3.821  14.958  1.0810 -0.9834  0.2271
12855TIP3   OH259979   0.304   3.092  14.308  0.3992 -0.2843  0.6225
12855TIP3    H159980   0.215   3.119  14.332 -0.0518 -1.6717  0.6141
12855TIP3    H259981   0.353   3.098  14.390 -0.3811 -2.0332  1.2806
12856TIP3   OH259982   6.086   2.671  11.912 -0.0551 -0.0617 -0.0596
12856TIP3    H159983   6.131   2.685  11.995  1.0806 -0.1656 -0.6499
12856TIP3    H259984   6.060   2.759  11.883 -0.2555 -0.0044  0.2938
12857TIP3   OH259985   0.454   0.049  13.664 -0.4863  0.2919  0.4052
12857TIP3    H159986   0.382   0.056  13.727 -3.1346 -0.2232 -2.2945
12857TIP3    H259987   0.444   0.126  13.608  1.4789  0.5010  0.2724
12858TIP3   OH259988   0.569   3.944   2.811 -0.1818  0.4056 -0.2625
12858TIP3    H159989   0.651   3.950   2.860  0.0974  0.4168 -0.7255
12858TIP3    H259990   0.507   3.904   2.873 -0.0420  1.1139  0.3483
12859TIP3   OH259991   5.616   6.157  15.380  0.0550  0.4824 -0.3787
12859TIP3    H159992   5.604   6.104  15.301 -2.3859  1.1206 -0.5203
12859TIP3    H259993   5.608   6.094  15.452  1.3278  0.0484 -0.5980
12860TIP3   OH259994   6.566   2.905  13.533 -0.2799  0.8464 -0.0804
12860TIP3    H159995   6.510   2.834  13.502 -1.5912  1.9384 -0.2782
12860TIP3    H259996   6.639   2.861  13.577 -1.3008 -0.6085  0.2082
12861TIP3   OH259997   6.123   6.177  15.753 -0.0476 -0.4112  0.2137
12861TIP3    H159998   6.109   6.165  15.847  1.8140 -0.0067  0.5796
12861TIP3    H259999   6.111   6.271  15.738  0.0760 -0.4108  0.1176
12862TIP3   OH260000   4.020   1.642   6.306 -0.2325  0.1663  0.0472
12862TIP3    H160001   4.105   1.656   6.348  0.9192 -0.1844 -2.0454
12862TIP3    H260002   3.958   1.644   6.379  1.5242  0.5421  1.6442
12863TIP3   OH260003   1.827   3.464  16.419 -0.7106  0.1792 -0.0362
12863TIP3    H160004   1.748   3.484  16.369 -1.0619  1.5386  1.0004
12863TIP3    H260005   1.898   3.500  16.367 -1.2258  3.3080  1.1786
12864TIP3   OH260006   2.356   2.364  13.891  0.4795 -0.0282 -0.2450
12864TIP3    H160007   2.290   2.347  13.959  0.0318  0.9050 -0.4402
12864TIP3    H260008   2.369   2.459  13.893  0.7845 -0.0461 -1.1759
12865TIP3   OH260009   4.074   5.249  14.559 -0.3297 -0.0425  0.4411
12865TIP3    H160010   4.016   5.319  14.588 -0.1124 -0.4641  2.0043
12865TIP3    H260011   4.044   5.172  14.607  0.4940 -0.6319  0.0370
12866TIP3   OH260012   1.476   4.672   2.180  0.1651 -0.4476 -0.0012
12866TIP3    H160013   1.462   4.767   2.179 -2.1833 -0.7314  0.5558
12866TIP3    H260014   1.444   4.641   2.096 -0.0792 -0.8536  0.2348
12867TIP3   OH260015   4.634   6.576  13.222  0.2071 -0.0337  0.4610
12867TIP3    H160016   4.646   6.647  13.160  0.0651  1.4823  2.0922
12867TIP3    H260017   4.720   6.533  13.226 -0.0595 -0.8365 -1.5158
12868TIP3   OH260018   1.536   2.814   3.034  0.4577 -0.3830  0.2990
12868TIP3    H160019   1.501   2.855   2.955 -0.4694 -0.7700  0.4898
12868TIP3    H260020   1.555   2.886   3.093 -0.4075 -0.1771  0.3361
12869TIP3   OH260021   6.529   1.958  16.327 -0.3026 -0.1974  0.1104
12869TIP3    H160022   6.613   1.953  16.374  0.2413 -0.4395 -0.8603
12869TIP3    H260023   6.490   1.871  16.339  0.0726 -0.4280 -0.3017
12870TIP3   OH260024   3.397   6.238   2.303 -0.3823  0.0277  0.6358
12870TIP3    H160025   3.333   6.284   2.249  0.4186  0.5946  0.1457
12870TIP3    H260026   3.431   6.305   2.362 -0.6933 -0.4139  1.3216
12871TIP3   OH260027   2.997   4.710  16.376 -0.1309 -0.0805 -0.3840
12871TIP3    H160028   3.041   4.775  16.431  1.1112 -2.2800  1.4182
12871TIP3    H260029   3.051   4.705  16.297  0.6713 -0.0181  0.1481
12872TIP3   OH260030   3.573   4.098  13.678 -0.0779 -0.2188 -0.0929
12872TIP3    H160031   3.532   4.183  13.662 -0.2118 -0.1711  0.4794
12872TIP3    H260032   3.507   4.048  13.727  0.3445 -0.3262  0.3717
12873TIP3   OH260033   6.093   1.731   4.406  0.1254 -0.2093  0.3165
12873TIP3    H160034   6.026   1.666   4.386  1.9566 -2.6126  1.4433
12873TIP3    H260035   6.051   1.792   4.466 -1.1038 -1.5546  0.8735
12874TIP3   OH260036   4.874   4.501  15.281 -0.1051 -0.1154  0.4535
12874TIP3    H160037   4.851   4.584  15.323 -1.6359 -0.6252  0.7111
12874TIP3    H260038   4.863   4.518  15.188  1.4384  0.4812  0.3535
12875TIP3   OH260039   3.918   5.069   3.372  0.4190 -0.1665 -0.1850
12875TIP3    H160040   3.865   5.026   3.305  0.5484 -0.2970 -0.2037
12875TIP3    H260041   3.913   5.010   3.447  1.4733 -0.7509 -0.5604
12876TIP3   OH260042   4.061   4.531  10.583  0.4291  0.2965 -0.1897
12876TIP3    H160043   4.146   4.565  10.555  0.1243  0.9454 -0.3490
12876TIP3    H260044   3.999   4.568  10.521  0.0744 -0.5331 -0.3407
12877TIP3   OH260045   4.305   6.581  16.498 -0.3010 -0.1424 -0.8215
12877TIP3    H160046   4.246   6.636  16.446 -1.7649  0.4060  1.2756
12877TIP3    H260047   4.247   6.522  16.546  1.1163 -2.1070 -1.3907
12878TIP3   OH260048   3.775   1.606  16.261 -0.1511  0.9383  0.8075
12878TIP3    H160049   3.718   1.565  16.196  0.5426 -0.4515  1.0429
12878TIP3    H260050   3.729   1.686  16.286 -1.8080  0.0609  0.6848
12879TIP3   OH260051   1.682   4.372  14.908  0.3951  0.1845  0.1465
12879TIP3    H160052   1.612   4.307  14.912 -0.9505  1.6057  0.3805
12879TIP3    H260053   1.716   4.365  14.819  1.6098 -2.1152  0.6828
12880TIP3   OH260054   3.385   0.846  11.915 -0.2550  0.1983 -0.0635
12880TIP3    H160055   3.303   0.890  11.936  0.2194 -0.0159  2.4769
12880TIP3    H260056   3.405   0.793  11.992  0.2863 -2.8892 -2.1352
12881TIP3   OH260057   3.365   2.531   5.251 -0.3810 -0.8728 -0.0397
12881TIP3    H160058   3.370   2.605   5.190  0.8332 -1.5085 -0.7518
12881TIP3    H260059   3.278   2.538   5.290  0.0782  1.5794  0.7424
12882TIP3   OH260060   4.805   0.977   4.851 -0.5299  0.4720  0.3161
12882TIP3    H160061   4.876   0.913   4.852 -1.1061 -0.1801  1.4005
12882TIP3    H260062   4.728   0.926   4.826 -1.2168  0.4471  2.3243
12883TIP3   OH260063   2.573   0.717   5.840 -0.2547 -0.6172  0.2173
12883TIP3    H160064   2.562   0.732   5.746  1.6435  1.0074  0.1862
12883TIP3    H260065   2.483   0.713   5.874 -0.9903 -2.0048 -1.7296
12884TIP3   OH260066   3.487   5.672   3.113  0.2847  0.0866 -0.0912
12884TIP3    H160067   3.468   5.633   3.028  0.6661 -0.6132  0.1340
12884TIP3    H260068   3.583   5.672   3.119  0.3429  1.9852 -0.4928
12885TIP3   OH260069   1.182   2.306   2.776  0.3955  0.1875  1.0631
12885TIP3    H160070   1.133   2.356   2.711  1.1909  0.8960  0.9934
12885TIP3    H260071   1.194   2.366   2.849  2.7742  0.7223  0.3295
12886TIP3   OH260072   1.734   2.560  15.634  0.4709 -0.4534  0.5064
12886TIP3    H160073   1.803   2.626  15.625  0.4125 -0.0204  2.8014
12886TIP3    H260074   1.686   2.565  15.551  1.8895  0.7173 -0.2911
12887TIP3   OH260075   2.280   4.815  14.865  0.2212  0.6078  0.5371
12887TIP3    H160076   2.275   4.727  14.828 -1.1014  1.5731 -1.8339
12887TIP3    H260077   2.227   4.869  14.806  1.2340  3.0675  1.7175
12888TIP3   OH260078   6.335   4.028  13.825  0.2730 -0.5683 -0.4687
12888TIP3    H160079   6.336   3.974  13.904 -0.1350  0.7559  0.4780
12888TIP3    H260080   6.309   4.114  13.856  0.8672  0.1683 -1.9459
12889TIP3   OH260081   1.428   0.664   3.425 -0.3359  0.5234 -0.1184
12889TIP3    H160082   1.406   0.578   3.388  0.3636  0.6554 -0.8524
12889TIP3    H260083   1.372   0.725   3.378 -0.3808  0.5411 -0.0415
12890TIP3   OH260084   4.308   5.624   1.272 -0.5110  0.4437 -0.5802
12890TIP3    H160085   4.385   5.594   1.223 -0.8902 -0.3334 -0.7281
12890TIP3    H260086   4.260   5.678   1.209 -0.0280  1.0246 -0.4500
12891TIP3   OH260087   3.681   1.353  12.344 -0.0034 -0.2634  1.0773
12891TIP3    H160088   3.726   1.329  12.424 -0.9814 -2.4545  1.0324
12891TIP3    H260089   3.717   1.296  12.277 -1.9282 -1.2657  0.8085
12892TIP3   OH260090   6.337   3.778  15.274  0.1283 -0.3817 -0.3880
12892TIP3    H160091   6.324   3.856  15.221  0.2822 -1.4500 -2.0728
12892TIP3    H260092   6.256   3.728  15.263  0.2507 -0.7201  0.2122
12893TIP3   OH260093   6.415   4.584  13.161 -0.0654 -0.0906  0.3374
12893TIP3    H160094   6.435   4.621  13.075  0.6074  2.8022  1.6006
12893TIP3    H260095   6.501   4.563  13.199 -0.2286  0.2883  0.9309
12894TIP3   OH260096   2.686   3.609   0.109  0.2166 -0.3849 -0.2402
12894TIP3    H160097   2.638   3.653   0.179 -0.0575  1.7404 -1.6755
12894TIP3    H260098   2.634   3.624   0.030  2.3167  0.5934 -1.5552
12895TIP3   OH260099   1.619   0.291   0.288 -0.1798 -0.0138  0.4284
12895TIP3    H160100   1.616   0.255   0.377  0.1901  0.1702  0.5152
12895TIP3    H260101   1.675   0.368   0.295 -0.5530  0.2889  0.1366
12896TIP3   OH260102   5.766   4.978   4.212  0.1068 -0.6646  0.0146
12896TIP3    H160103   5.680   4.968   4.254 -0.4539  1.1831 -0.5890
12896TIP3    H260104   5.823   5.009   4.282 -0.7845  2.2299 -0.4025
12897TIP3   OH260105   5.327   2.428   5.315  0.1630 -0.2601  0.5293
12897TIP3    H160106   5.397   2.421   5.380  2.2936 -0.6180 -1.6866
12897TIP3    H260107   5.250   2.455   5.366  1.6549 -0.7057  3.1942
12898TIP3   OH260108   5.284   5.266   5.487 -0.1656 -0.0895 -0.3506
12898TIP3    H160109   5.333   5.276   5.568  0.9975 -0.7612 -0.9364
12898TIP3    H260110   5.351   5.272   5.418 -0.5254 -2.9939 -1.0917
12899TIP3   OH260111   4.236   5.453  11.278 -0.6542 -0.1934 -0.0350
12899TIP3    H160112   4.321   5.419  11.250 -0.1122 -0.3477  1.6639
12899TIP3    H260113   4.206   5.506  11.205  0.0125 -1.6499 -1.4419
12900TIP3   OH260114   5.222   2.813   4.532  0.3825 -0.6007 -0.5525
12900TIP3    H160115   5.193   2.904   4.537 -0.5891 -0.9534  2.2835
12900TIP3    H260116   5.316   2.818   4.520  0.5762  0.8504  1.1917
12901TIP3   OH260117   3.659   6.420  17.061 -0.2144  0.4321 -0.0504
12901TIP3    H160118   3.732   6.466  17.020 -0.4995  1.9109  1.0192
12901TIP3    H260119   3.605   6.489  17.099 -0.6315 -0.7739  1.6783
12902TIP3   OH260120   1.240   4.973   2.865  0.0882 -0.1325 -0.4737
12902TIP3    H160121   1.167   4.917   2.888 -0.6249 -0.1219 -2.4726
12902TIP3    H260122   1.308   4.953   2.929 -1.1475 -1.1898  0.5478
12903TIP3   OH260123   5.150   5.934  12.411 -0.2407  0.2604  0.1500
12903TIP3    H160124   5.078   5.877  12.439 -0.0997 -0.9088 -1.6244
12903TIP3    H260125   5.112   6.022  12.407 -1.0686 -0.0526  0.9439
12904TIP3   OH260126   6.768   1.897  14.388 -0.1298 -0.4292  0.3551
12904TIP3    H160127   6.800   1.811  14.362  0.2776 -0.1650 -0.0196
12904TIP3    H260128   6.784   1.901  14.483  0.4781 -0.4991  0.2590
12905TIP3   OH260129   5.682   6.260   1.598 -0.0497  0.4213 -0.3624
12905TIP3    H160130   5.727   6.320   1.657 -0.2536 -0.3756  0.6367
12905TIP3    H260131   5.594   6.252   1.634 -0.1276 -0.2033 -0.6792
12906TIP3   OH260132   3.065   2.130   2.768  0.1672  0.4814 -0.5505
12906TIP3    H160133   3.066   2.198   2.835  0.2570  1.4747 -1.5245
12906TIP3    H260134   2.989   2.076   2.790 -1.2751  2.2075 -0.9683
12907TIP3   OH260135   1.899   1.494  13.859 -0.0674 -0.4669  0.5652
12907TIP3    H160136   1.819   1.546  13.853  0.5649  0.7554  2.1447
12907TIP3    H260137   1.897   1.457  13.947  1.3293 -0.0093  0.8147
12908TIP3   OH260138   2.730   5.595   1.262 -0.1057 -0.2970  0.4054
12908TIP3    H160139   2.782   5.525   1.302  0.6863 -0.3746 -0.7307
12908TIP3    H260140   2.772   5.611   1.178 -1.1470  0.5584  0.0325
12909TIP3   OH260141   2.437   5.599  14.366 -0.0453 -0.1179  0.1142
12909TIP3    H160142   2.446   5.610  14.271 -0.5014 -0.0338  0.0799
12909TIP3    H260143   2.349   5.563  14.378 -0.3967  0.8623  0.5790
12910TIP3   OH260144   5.156   2.525  11.613  0.2720  0.0352  0.5047
12910TIP3    H160145   5.120   2.451  11.663  1.8248 -1.3820 -0.3454
12910TIP3    H260146   5.249   2.524  11.634  0.6736  0.4377 -1.1162
12911TIP3   OH260147   4.245   0.570   5.987 -0.1147 -0.0144 -0.0245
12911TIP3    H160148   4.176   0.507   6.008  0.9891 -0.5856  2.1770
12911TIP3    H260149   4.214   0.652   6.025 -0.1906  0.0654 -0.2557
12912TIP3   OH260150   1.664   4.866  11.769  0.1586 -0.6248 -0.4593
12912TIP3    H160151   1.697   4.844  11.682 -0.0629  1.9608 -1.2883
12912TIP3    H260152   1.569   4.862  11.761  0.0967 -3.3838  0.6016
12913TIP3   OH260153   5.573   3.674  14.085 -0.3887 -0.1795  0.2183
12913TIP3    H160154   5.624   3.729  14.144 -0.1020 -0.9928  0.7471
12913TIP3    H260155   5.495   3.725  14.065  0.3461  0.8273 -0.1080
12914TIP3   OH260156   3.562   6.576   4.123 -0.4884 -0.3288  0.1542
12914TIP3    H160157   3.620   6.643   4.088  0.5102 -1.8618 -1.2878
12914TIP3    H260158   3.495   6.565   4.057 -0.8450 -0.5017  0.5420
12915TIP3   OH260159   4.011   4.260  15.945  0.4861  0.5080 -0.0649
12915TIP3    H160160   4.069   4.233  15.873  1.3311  2.1051 -0.0290
12915TIP3    H260161   3.938   4.197  15.942  1.3759 -0.5288 -1.1803
12916TIP3   OH260162   4.048   6.145   1.707  0.3683  0.3086 -0.3008
12916TIP3    H160163   4.123   6.203   1.724  0.4645 -0.4810  2.3073
12916TIP3    H260164   3.974   6.205   1.696  0.5840  1.0090  1.7108
12917TIP3   OH260165   5.712   0.585  12.592  0.4044  0.1001  0.0802
12917TIP3    H160166   5.793   0.538  12.614  1.0810  1.6141  1.0102
12917TIP3    H260167   5.663   0.587  12.674  0.2722  0.7884 -0.0153
12918TIP3   OH260168   3.041   2.292   3.714 -0.0833  0.2476  0.2462
12918TIP3    H160169   3.136   2.284   3.703 -0.3975 -4.0537 -1.4348
12918TIP3    H260170   3.006   2.279   3.625 -2.2826  1.2017  0.9041
12919TIP3   OH260171   0.274   5.269   3.077 -0.7484  0.1600  0.2868
12919TIP3    H160172   0.341   5.210   3.113  0.8023  0.4486 -1.9501
12919TIP3    H260173   0.208   5.211   3.039  0.8922 -0.2551 -2.1285
12920TIP3   OH260174   6.554   0.066  15.822 -0.0634  0.6231  0.1648
12920TIP3    H160175   6.621   0.017  15.774  1.2976  1.5653  1.0075
12920TIP3    H260176   6.506   0.114  15.755  0.2665  0.1174 -0.4457
12921TIP3   OH260177   4.029   5.879  15.702 -0.5467  0.1997  0.0893
12921TIP3    H160178   4.056   5.931  15.778  0.7100 -0.6027  0.2361
12921TIP3    H260179   4.003   5.795  15.739  3.6432 -1.6193 -0.4543
12922TIP3   OH260180   2.218   5.436  15.249  0.1202 -0.1539  0.7259
12922TIP3    H160181   2.255   5.445  15.162 -0.6451  0.4141  0.4490
12922TIP3    H260182   2.152   5.505  15.255  1.5519  1.1683  2.4986
12923TIP3   OH260183   3.034   0.770   5.676 -0.3240  0.5461 -0.5606
12923TIP3    H160184   2.991   0.699   5.629  0.1927 -0.3618  0.2867
12923TIP3    H260185   3.013   0.754   5.768  1.2361  0.4544 -0.1870
12924TIP3   OH260186   1.225   4.928  12.564 -0.3325  0.0834  0.3631
12924TIP3    H160187   1.240   4.949  12.656  2.2040  1.8233 -0.3384
12924TIP3    H260188   1.238   4.833  12.559 -0.8496 -0.0894  1.8176
12925TIP3   OH260189   0.459   1.964   3.287 -0.3552  0.5628  0.3769
12925TIP3    H160190   0.471   1.881   3.333  0.1536 -0.4277 -1.4264
12925TIP3    H260191   0.473   2.031   3.354  0.4426 -0.7893  1.6267
12926TIP3   OH260192   6.183   5.159   3.154  0.3454 -0.2098 -0.2524
12926TIP3    H160193   6.273   5.127   3.160 -0.1111 -1.2757  1.6756
12926TIP3    H260194   6.190   5.253   3.174  0.8765 -0.5981  1.5133
12927TIP3   OH260195   6.585   1.015  14.480  0.4694 -0.3953  0.4710
12927TIP3    H160196   6.671   0.978  14.456  0.8487  0.5946  0.2390
12927TIP3    H260197   6.522   0.965  14.428  1.0689  0.0181 -0.6924
12928TIP3   OH260198   3.597   4.952   3.484 -0.0204 -0.5308  0.8401
12928TIP3    H160199   3.662   4.917   3.423  1.7986 -1.8954  3.3897
12928TIP3    H260200   3.515   4.909   3.460  0.9566 -2.1644  0.2896
12929TIP3   OH260201   4.278   5.828  15.571 -0.6055 -0.3690 -0.3326
12929TIP3    H160202   4.243   5.849  15.485 -1.5518  0.1729  0.1724
12929TIP3    H260203   4.210   5.856  15.633  0.4244  0.0729  0.6431
12930TIP3   OH260204   3.215   2.719   4.845  0.0925 -0.8430  0.2274
12930TIP3    H160205   3.124   2.748   4.840  1.0155  2.4524 -0.1414
12930TIP3    H260206   3.243   2.710   4.754  0.1207 -1.9725  0.3395
12931TIP3   OH260207   2.584   4.691  14.093  0.1255  0.8183 -0.4195
12931TIP3    H160208   2.591   4.698  14.188  1.4810 -2.8958 -0.0944
12931TIP3    H260209   2.491   4.674  14.077  0.3143 -1.4702  0.6076
12932TIP3   OH260210   4.388   1.913  11.738  0.1437 -0.5676 -0.4596
12932TIP3    H160211   4.380   1.931  11.644 -0.5041 -1.8933 -0.6827
12932TIP3    H260212   4.303   1.878  11.763  0.7711 -1.6034  0.3018
12933TIP3   OH260213   6.290   5.780  13.273 -0.5848 -0.5467 -0.0251
12933TIP3    H160214   6.341   5.736  13.205  0.4435  1.7578 -0.8795
12933TIP3    H260215   6.355   5.833  13.320 -1.4227 -1.3821  2.2187
12934TIP3   OH260216   5.203   1.872  10.829  0.3784  0.0049  0.1325
12934TIP3    H160217   5.133   1.824  10.872  2.2915 -1.3727  1.8637
12934TIP3    H260218   5.253   1.805  10.782  2.3942  0.3992  1.5951
12935TIP3   OH260219   4.941   1.751   6.660  0.2760 -0.3299  0.2922
12935TIP3    H160220   4.974   1.663   6.640 -0.7449 -0.6364 -0.1236
12935TIP3    H260221   5.020   1.803   6.675  0.8847 -1.4349  1.0637
12936TIP3   OH260222   3.504   1.726   0.363  0.1543  0.6315 -0.1785
12936TIP3    H160223   3.590   1.712   0.403 -0.3697 -2.7752  0.0447
12936TIP3    H260224   3.452   1.765   0.434  0.6464 -0.4444  0.8176
12937TIP3   OH260225   6.131   3.236  13.740  0.2344 -0.3972  0.1289
12937TIP3    H160226   6.121   3.286  13.660 -0.5841 -0.4892  0.1714
12937TIP3    H260227   6.077   3.158  13.727 -3.5276  1.5167  2.3879
12938TIP3   OH260228   1.629   1.194  10.851  0.2783  0.0427  0.0853
12938TIP3    H160229   1.575   1.122  10.819  1.3917 -0.9138  0.2878
12938TIP3    H260230   1.698   1.203  10.786  0.1465  0.9571  0.0573
12939TIP3   OH260231   3.851   2.538   5.578  0.7614  0.0763 -0.3791
12939TIP3    H160232   3.789   2.604   5.608 -0.6423 -1.0401 -0.6961
12939TIP3    H260233   3.889   2.501   5.658  0.2250  0.0453 -0.1394
12940TIP3   OH260234   4.321   4.712   5.267 -0.5261  0.4046  0.6796
12940TIP3    H160235   4.293   4.620   5.276 -1.4445  0.4070 -1.4990
12940TIP3    H260236   4.412   4.712   5.299 -0.6581 -1.1504  1.1811
12941TIP3   OH260237   2.332   2.023   3.641 -0.2248 -0.1132 -0.3120
12941TIP3    H160238   2.250   2.062   3.612 -0.3230  0.0547  0.1885
12941TIP3    H260239   2.333   1.936   3.602 -0.8551 -0.2891  0.0579
12942TIP3   OH260240   2.453   2.310   2.582  0.2619 -0.1891 -0.2029
12942TIP3    H160241   2.395   2.380   2.554 -1.7247 -0.9766  1.6754
12942TIP3    H260242   2.515   2.300   2.509 -1.3090  1.3742 -1.8634
12943TIP3   OH260243   4.278   0.377  15.210  0.1951 -0.1519 -0.0311
12943TIP3    H160244   4.193   0.382  15.167  0.2114  1.8938  0.0990
12943TIP3    H260245   4.316   0.295  15.178 -1.0353 -0.1689 -1.5635
12944TIP3   OH260246   6.032   6.172  15.297  0.9913  0.2185 -0.5075
12944TIP3    H160247   6.123   6.164  15.324  0.7626  1.3341  0.6994
12944TIP3    H260248   5.981   6.134  15.369  0.4541  1.0351 -0.4388
12945TIP3   OH260249   6.527   3.821   0.015  0.3944 -0.2602  0.4874
12945TIP3    H160250   6.521   3.895  -0.045  0.2322 -0.3829  0.3505
12945TIP3    H260251   6.596   3.845   0.077 -0.8224  0.7756  1.5108
12946TIP3   OH260252   0.461   1.402   0.944  0.3435  0.1486  0.0768
12946TIP3    H160253   0.409   1.377   1.020 -1.5346  2.5415 -0.2869
12946TIP3    H260254   0.421   1.356   0.871  0.8871 -0.5910  0.2309
12947TIP3   OH260255   6.206   5.708   4.751 -0.0416 -0.0499 -0.1215
12947TIP3    H160256   6.161   5.638   4.798 -0.9157  0.2279 -0.5209
12947TIP3    H260257   6.289   5.718   4.797  0.0705 -1.2961 -0.0210
12948TIP3   OH260258   5.207   5.461  15.492 -0.5267  0.2378  0.0893
12948TIP3    H160259   5.230   5.526  15.426 -1.1260 -0.1077 -0.4753
12948TIP3    H260260   5.182   5.512  15.569 -1.1723  0.6891 -0.4094
12949TIP3   OH260261   5.044   5.429  11.804 -0.3699 -0.0388 -0.3964
12949TIP3    H160262   5.123   5.481  11.799 -2.1232  2.9887  0.8288
12949TIP3    H260263   5.047   5.372  11.727  3.1944 -0.5016 -0.0593
12950TIP3   OH260264   3.914   0.647   0.929  0.5580  0.3178 -0.2426
12950TIP3    H160265   3.964   0.580   0.882  0.4745  0.8544 -1.1056
12950TIP3    H260266   3.968   0.726   0.922 -0.3490  0.8806 -1.1016
12951TIP3   OH260267   5.674   4.737   2.237 -0.4979 -0.0504 -0.4992
12951TIP3    H160268   5.639   4.764   2.321 -0.0171 -2.8958  0.7176
12951TIP3    H260269   5.668   4.642   2.237  2.6781 -0.4098 -2.2103
12952TIP3   OH260270   1.289   5.912   1.791  0.4635  0.1052  0.3274
12952TIP3    H160271   1.241   5.891   1.711  1.5804 -1.3086 -0.0167
12952TIP3    H260272   1.226   5.960   1.845 -1.5280 -2.1570  0.1562
12953TIP3   OH260273   5.319   4.532   4.003  0.2182  0.4601  0.1507
12953TIP3    H160274   5.364   4.615   3.987 -0.4039  1.1787  1.8696
12953TIP3    H260275   5.269   4.548   4.083 -0.6426 -1.2953 -0.0084
12954TIP3   OH260276   5.833   1.956   2.352 -0.2973 -0.5576 -0.4692
12954TIP3    H160277   5.795   2.037   2.388 -2.3267 -1.2310 -0.9833
12954TIP3    H260278   5.760   1.895   2.348  0.9130 -2.0109 -1.3463
12955TIP3   OH260279   2.970   3.028   5.017 -0.2485 -0.3420  0.1082
12955TIP3    H160280   2.952   3.101   5.077 -1.0034 -2.0957  2.1432
12955TIP3    H260281   3.053   2.991   5.047  0.1757 -0.3044 -0.9654
12956TIP3   OH260282   6.645   6.470  12.377  0.0990  0.3521  0.2703
12956TIP3    H160283   6.571   6.521  12.410  1.1151  1.1332  1.4221
12956TIP3    H260284   6.666   6.409  12.448  0.4858  0.0513 -0.0972
12957TIP3   OH260285   3.094   6.151  15.373  0.5118 -0.2586  0.0482
12957TIP3    H160286   3.167   6.157  15.434  0.4363 -0.2624  0.1393
12957TIP3    H260287   3.130   6.109  15.295  0.7045  0.0921 -0.0579
12958TIP3   OH260288   3.221   3.282   0.579 -0.0239  0.1257 -0.0687
12958TIP3    H160289   3.199   3.190   0.567  0.5115 -0.1559  1.0002
12958TIP3    H260290   3.151   3.330   0.534 -0.8858 -0.7902  0.2781
12959TIP3   OH260291   6.536   2.452  11.066  0.2084 -0.7725 -0.1141
12959TIP3    H160292   6.481   2.465  10.989  0.1862  0.8076  0.1201
12959TIP3    H260293   6.496   2.507  11.133  3.0108  1.9703 -0.4450
12960TIP3   OH260294   3.535   2.480   4.184  0.1281 -0.6103  0.0180
12960TIP3    H160295   3.612   2.431   4.214 -0.7470 -1.5362  0.8109
12960TIP3    H260296   3.544   2.482   4.088 -0.1598 -3.0056 -0.1366
12961TIP3   OH260297   2.634   0.193   0.056  0.4395 -0.5154 -0.3060
12961TIP3    H160298   2.715   0.216   0.012 -0.0206 -1.6422 -1.8164
12961TIP3    H260299   2.592   0.277   0.076  1.6258  0.0513 -0.1372
12962TIP3   OH260300   3.481   1.102  14.590  0.1617  0.0226 -0.3297
12962TIP3    H160301   3.547   1.163  14.624 -1.0652  0.9273  0.5045
12962TIP3    H260302   3.481   1.030  14.653  1.3482 -0.7166 -1.1188
12963TIP3   OH260303   1.767   4.212   4.770 -0.0280  0.1898 -0.4431
12963TIP3    H160304   1.714   4.259   4.706 -0.1449  0.0614 -0.4411
12963TIP3    H260305   1.820   4.151   4.718  1.7893  1.8613 -0.6837
12964TIP3   OH260306   3.243   2.491  11.087 -0.0814 -0.1558  0.5886
12964TIP3    H160307   3.167   2.442  11.120  1.5245 -2.8631  0.6024
12964TIP3    H260308   3.261   2.452  11.001  2.1769 -0.7104  1.2400
12965TIP3   OH260309   0.107   4.990   0.726  0.4236 -0.2131 -0.2976
12965TIP3    H160310   0.019   5.019   0.751  0.1959 -0.7567 -0.4446
12965TIP3    H260311   0.143   5.063   0.676  1.0787  1.1091  1.9638
12966TIP3   OH260312   4.884   1.228  16.541 -0.2303  0.3558 -0.6845
12966TIP3    H160313   4.835   1.254  16.463 -0.9210  1.7199  0.1774
12966TIP3    H260314   4.968   1.197  16.507 -1.6094 -2.0459 -2.1954
12967TIP3   OH260315   5.004   0.893  16.711 -0.2240 -0.2148  0.8058
12967TIP3    H160316   5.021   0.855  16.797 -0.5422 -2.5813 -0.0972
12967TIP3    H260317   4.913   0.922  16.715 -0.8544 -2.0533  0.7267
12968TIP3   OH260318   5.765   5.978  13.316  0.6329  0.1151 -0.0197
12968TIP3    H160319   5.855   5.959  13.289  0.6138  0.9027 -0.6604
12968TIP3    H260320   5.730   6.035  13.248 -0.9272 -1.5003 -0.6614
12969TIP3   OH260321   5.902   4.089  12.552  0.1421  0.6234 -0.5183
12969TIP3    H160322   5.846   4.038  12.610  2.4609 -0.5597  0.8061
12969TIP3    H260323   5.976   4.032  12.534  1.0104  2.1587 -2.1207
12970TIP3   OH260324   0.165   0.097  11.096  0.0803 -0.0192 -0.1328
12970TIP3    H160325   0.256   0.071  11.109  0.2768  0.2252 -0.9482
12970TIP3    H260326   0.156   0.179  11.146  0.9764  1.2139 -1.8931
12971TIP3   OH260327   0.555   6.703   5.003 -0.1097 -0.2519  0.3656
12971TIP3    H160328   0.603   6.676   5.082  1.1330 -1.4720 -0.7560
12971TIP3    H260329   0.600   6.659   4.931 -1.7261  0.1560 -0.9655
12972TIP3   OH260330   0.029   4.895   3.444 -0.5116 -0.4066 -0.0655
12972TIP3    H160331   0.028   4.799   3.441 -0.7368 -0.4244  0.4422
12972TIP3    H260332  -0.038   4.917   3.508 -1.7676  0.1633 -1.5117
12973TIP3   OH260333   1.364   6.694  16.736  0.0785 -0.0205 -0.3435
12973TIP3    H160334   1.304   6.636  16.783  0.4720  0.2726  0.5494
12973TIP3    H260335   1.307   6.747  16.680 -0.3424 -0.8351 -0.6946
12974TIP3   OH260336   1.647   2.941  16.386 -0.0403 -0.8291 -0.2062
12974TIP3    H160337   1.639   2.900  16.300 -0.9754  0.3867 -0.7284
12974TIP3    H260338   1.560   2.934  16.424  0.3317 -1.2160  0.5879
12975TIP3   OH260339   6.007   6.194   4.297  0.6706  0.0907  0.1914
12975TIP3    H160340   5.952   6.117   4.312  0.5063  0.5748  2.3670
12975TIP3    H260341   5.960   6.266   4.338  0.8168  1.4101 -1.8246
12976TIP3   OH260342   0.226   0.768  14.823  0.5951 -0.1557  0.0389
12976TIP3    H160343   0.152   0.709  14.840 -0.2400  1.4916  2.6789
12976TIP3    H260344   0.185   0.854  14.811  1.9842  0.4527 -0.4960
12977TIP3   OH260345   6.132   5.172   4.662 -0.0903 -0.8141  0.4094
12977TIP3    H160346   6.162   5.150   4.751 -0.5811 -0.1023  0.7573
12977TIP3    H260347   6.195   5.128   4.605  1.6942  0.6636  1.1077
12978TIP3   OH260348   5.839   2.344  11.111 -0.5284 -0.4239 -0.4576
12978TIP3    H160349   5.810   2.435  11.123  2.4376  0.7332 -1.1968
12978TIP3    H260350   5.808   2.320  11.024 -0.0894  0.4431 -0.8666
12979TIP3   OH260351   1.420   1.198   1.551 -0.2194 -0.2711 -0.0948
12979TIP3    H160352   1.371   1.239   1.479  0.4150  0.1459 -0.3068
12979TIP3    H260353   1.353   1.160   1.607 -0.7622 -0.0681 -0.5877
12980TIP3   OH260354   0.494   1.374   4.444  0.3788  0.6524 -0.5873
12980TIP3    H160355   0.560   1.431   4.405  0.1733 -0.2081 -2.2951
12980TIP3    H260356   0.507   1.290   4.400 -1.1392  0.1723 -0.1650
12981TIP3   OH260357   3.202   0.940   2.126 -0.1368 -0.0010 -0.2092
12981TIP3    H160358   3.113   0.920   2.097  0.0264 -4.8998  1.6359
12981TIP3    H260359   3.190   0.998   2.201 -1.5307  1.1337 -1.2457
12982TIP3   OH260360   1.350   2.116  12.550  0.1244 -0.1066 -0.1011
12982TIP3    H160361   1.356   2.150  12.639 -1.0318  0.0254 -0.0572
12982TIP3    H260362   1.383   2.187  12.495 -1.7367  0.9220  0.0317
12983TIP3   OH260363   1.197   1.750  11.687 -0.5063  0.1022  0.0640
12983TIP3    H160364   1.223   1.658  11.695 -0.6235  0.1624  1.3232
12983TIP3    H260365   1.195   1.766  11.592 -0.5979 -1.2180 -0.1782
12984TIP3   OH260366   4.927   0.138  16.111 -0.2028  0.0687  0.2756
12984TIP3    H160367   5.013   0.149  16.070 -0.3805 -0.6867 -0.3188
12984TIP3    H260368   4.943   0.077  16.183 -0.2381 -0.0650  0.1706
12985TIP3   OH260369   2.537   0.457   0.132 -0.3018 -0.4065  0.4036
12985TIP3    H160370   2.497   0.522   0.075 -0.2652  1.6374  2.5079
12985TIP3    H260371   2.631   0.474   0.124 -0.1979 -1.1809 -0.0878
12986TIP3   OH260372   1.515   3.091  17.041 -0.1253 -0.2558 -0.2042
12986TIP3    H160373   1.543   3.002  17.060 -1.6828 -0.7038  0.0781
12986TIP3    H260374   1.577   3.121  16.974 -0.2210 -1.9214 -1.0937
12987TIP3   OH260375   4.106   3.570  11.984  0.2649  0.2496  0.0286
12987TIP3    H160376   4.196   3.601  11.994  1.0420 -1.3434 -1.3501
12987TIP3    H260377   4.080   3.542  12.072  0.8231  1.4174  0.5882
12988TIP3   OH260378   4.272   4.449   5.347 -0.5935 -0.4059  0.2727
12988TIP3    H160379   4.248   4.377   5.288  1.4528 -1.5754  0.7670
12988TIP3    H260380   4.218   4.435   5.425  0.6144 -2.1734  0.8445
12989TIP3   OH260381   0.603   5.350  14.940 -0.0907  0.6599 -0.4382
12989TIP3    H160382   0.564   5.272  14.979  0.5656 -0.0437 -1.1512
12989TIP3    H260383   0.545   5.372  14.867 -0.5349  1.1304  0.0483
12990TIP3   OH260384   1.208   6.046  12.244 -0.2251 -0.3847  0.0724
12990TIP3    H160385   1.269   6.022  12.314 -1.3393 -1.2901  0.7468
12990TIP3    H260386   1.246   6.126  12.207  1.2457 -0.7891  0.6272
12991TIP3   OH260387   5.259   5.552  16.578  0.4179  0.3651 -0.8257
12991TIP3    H160388   5.351   5.567  16.554 -0.0655  1.4752 -2.1000
12991TIP3    H260389   5.211   5.623  16.535 -1.1865 -0.8628 -1.1622
12992TIP3   OH260390   4.376   1.165   4.425  0.7334 -0.3431 -0.0273
12992TIP3    H160391   4.401   1.153   4.517  0.5342 -0.1338  0.0549
12992TIP3    H260392   4.318   1.091   4.406  0.1589  0.0259  0.2417
12993TIP3   OH260393   4.726   3.591   3.949  0.5686 -0.4639 -0.1943
12993TIP3    H160394   4.678   3.617   4.028  1.6767  1.1109 -0.0062
12993TIP3    H260395   4.658   3.585   3.881 -0.0595  0.7518  0.2947
12994TIP3   OH260396   3.781   1.886   2.332  0.3410 -0.0793  0.5270
12994TIP3    H160397   3.771   1.801   2.374  0.6137 -1.0161 -1.1938
12994TIP3    H260398   3.832   1.868   2.253 -1.4944  1.2938 -1.0593
12995TIP3   OH260399   6.326   3.281  12.254  0.3660 -0.9777 -0.1837
12995TIP3    H160400   6.378   3.216  12.206  1.1313 -0.7749  0.3611
12995TIP3    H260401   6.362   3.365  12.228  0.4649 -0.8458  0.3698
12996TIP3   OH260402   2.780   0.334  12.274 -0.0914  0.0958  0.0911
12996TIP3    H160403   2.778   0.420  12.315  0.6962 -0.2569  0.9080
12996TIP3    H260404   2.872   0.307  12.278 -0.4852 -1.2541  0.8869
12997TIP3   OH260405   6.265   4.155  10.910 -0.2400 -0.0094  0.0464
12997TIP3    H160406   6.186   4.169  10.961 -0.8179  0.3037 -0.9026
12997TIP3    H260407   6.233   4.135  10.822  0.7474  1.1943 -0.6140
12998TIP3   OH260408   1.765   5.674   6.386 -0.5680  0.2601 -0.3462
12998TIP3    H160409   1.815   5.599   6.352 -1.9009 -0.6089 -0.4444
12998TIP3    H260410   1.800   5.749   6.337  0.7947 -0.2696 -0.2461
12999TIP3   OH260411   3.015   1.360  12.651  0.4010  0.0114  0.7744
12999TIP3    H160412   2.993   1.449  12.680  1.2844  0.8908 -1.0659
12999TIP3    H260413   3.104   1.346  12.684  0.4495  0.0145  0.6453
13000TIP3   OH260414   6.108   1.890   0.980 -0.0767 -0.4018 -0.3357
13000TIP3    H160415   6.081   1.948   1.051 -0.0245 -1.5745  0.6737
13000TIP3    H260416   6.131   1.950   0.908  1.3765  0.9130  1.1365
13001TIP3   OH260417   2.694   3.189  16.731  0.1244  0.5945  0.2701
13001TIP3    H160418   2.698   3.098  16.762  2.5660  0.0402 -1.3889
13001TIP3    H260419   2.634   3.187  16.657 -0.8739  0.6562  1.0513
13002TIP3   OH260420   5.842   1.859  11.337 -0.2820  0.1409  0.5310
13002TIP3    H160421   5.917   1.852  11.397 -0.3997 -1.6709  0.5311
13002TIP3    H260422   5.857   1.789  11.273 -0.3219  1.8348 -1.4256
13003TIP3   OH260423   0.292   0.480   2.223 -0.0306 -0.1294 -0.5073
13003TIP3    H160424   0.379   0.510   2.196  0.0402  0.3672  0.2376
13003TIP3    H260425   0.290   0.387   2.199  2.0084 -1.0780  2.4395
13004TIP3   OH260426   5.531   2.815  16.553 -0.0294 -0.6101 -0.4588
13004TIP3    H160427   5.463   2.754  16.526  0.2123 -0.0049 -2.6178
13004TIP3    H260428   5.485   2.898  16.566 -0.0307 -0.7280  0.3109
13005TIP3   OH260429   6.278   0.824   2.916 -0.8279  0.3876  0.0775
13005TIP3    H160430   6.296   0.732   2.936 -1.3621  0.1353 -0.5764
13005TIP3    H260431   6.287   0.868   3.000 -0.1251 -0.1894  0.3153
13006TIP3   OH260432   6.526   3.902   0.453  0.2324 -0.3724  0.1527
13006TIP3    H160433   6.572   3.866   0.377  0.9945  0.9727 -0.0678
13006TIP3    H260434   6.596   3.939   0.507 -0.5815  2.3495 -0.5216
13007TIP3   OH260435   2.434   0.785  15.003 -0.4876  0.3178 -0.1250
13007TIP3    H160436   2.397   0.705  15.040 -1.2454  0.6624 -0.1106
13007TIP3    H260437   2.372   0.811  14.935  0.3150  0.3013 -0.8800
13008TIP3   OH260438   3.593   6.051  16.168  0.3743 -0.6176  0.2378
13008TIP3    H160439   3.538   5.986  16.124  0.6097 -0.7246  0.1047
13008TIP3    H260440   3.607   6.119  16.103 -1.1280  0.3264  0.8296
13009TIP3   OH260441   0.720   0.211  12.067 -0.0327 -0.2774 -0.0419
13009TIP3    H160442   0.626   0.212  12.053 -0.1399  0.2777  0.6845
13009TIP3    H260443   0.735   0.138  12.127 -0.2357  0.8133  1.3679
13010TIP3   OH260444   6.668   5.451   3.004  0.0928 -1.1165 -0.1970
13010TIP3    H160445   6.714   5.532   3.024 -0.9538 -0.6898  0.6026
13010TIP3    H260446   6.673   5.400   3.085  1.3683 -2.1887 -0.9166
13011TIP3   OH260447   4.368   4.191  14.913  0.0151  0.4044 -0.0026
13011TIP3    H160448   4.388   4.223  14.825  2.3892  0.0033  0.3099
13011TIP3    H260449   4.288   4.237  14.938 -0.0446  1.4286 -1.9074
13012TIP3   OH260450   5.025   4.531  16.197 -0.6551  0.4744 -0.6680
13012TIP3    H160451   4.938   4.492  16.189 -1.0913  1.5347 -1.2217
13012TIP3    H260452   5.085   4.461  16.167 -1.1264 -0.9075  1.4387
13013TIP3   OH260453   3.436   0.927   4.385  0.0286  1.0016 -0.3308
13013TIP3    H160454   3.461   0.842   4.421  0.3754  1.0090 -0.5533
13013TIP3    H260455   3.344   0.915   4.359 -0.5562  1.2908  1.4502
13014TIP3   OH260456   6.062   0.287   2.322  0.1533 -0.0391 -0.1986
13014TIP3    H160457   6.123   0.248   2.386 -0.2181  1.7737  1.3341
13014TIP3    H260458   5.993   0.222   2.313  0.9253 -0.9367  0.1487
13015TIP3   OH260459   2.120   0.272  12.808 -0.1150 -0.0670 -0.1003
13015TIP3    H160460   2.047   0.230  12.763  0.1725 -0.4483 -0.2256
13015TIP3    H260461   2.197   0.244  12.758  0.1129  0.3459  0.0151
13016TIP3   OH260462   5.360   1.224  14.066  0.5127 -0.1806  0.0344
13016TIP3    H160463   5.308   1.271  14.000  0.4869  0.3474  0.4294
13016TIP3    H260464   5.359   1.133  14.036 -0.4424 -0.1398 -0.1003
13017TIP3   OH260465   1.100   3.231  11.926  0.6406  0.4948 -0.2855
13017TIP3    H160466   1.161   3.227  12.000 -0.3491 -0.9858  0.4961
13017TIP3    H260467   1.016   3.204  11.962 -0.0744  0.6117 -1.7705
13018TIP3   OH260468   6.106   4.700   3.451  0.1789 -0.0782  0.2263
13018TIP3    H160469   6.020   4.664   3.429  0.4952  0.0833 -1.4081
13018TIP3    H260470   6.149   4.631   3.501  0.6884 -2.0572 -2.6688
13019TIP3   OH260471   3.754   6.686   2.075  0.5701  0.2701  0.1451
13019TIP3    H160472   3.663   6.687   2.044  0.7559 -0.6425 -0.4712
13019TIP3    H260473   3.782   6.778   2.071  0.2418  0.3280 -1.3904
13020TIP3   OH260474   0.247   5.115  16.129  0.8893  0.0722 -0.2008
13020TIP3    H160475   0.311   5.068  16.183  0.5608 -1.2498 -0.9220
13020TIP3    H260476   0.277   5.206  16.130  2.6646 -0.4728 -0.3639
13021TIP3   OH260477   3.353   4.994  15.985 -0.4089  0.4908 -0.4070
13021TIP3    H160478   3.335   5.087  15.998  0.8214  0.7244 -0.1835
13021TIP3    H260479   3.426   4.992  15.923 -0.7771 -0.3454 -0.8268
13022TIP3   OH260480   3.905   4.054   2.397  0.1107 -0.2151 -0.0329
13022TIP3    H160481   3.967   4.001   2.447  0.1253 -0.1071  0.0635
13022TIP3    H260482   3.945   4.062   2.310  0.3898  0.1247  0.1225
13023TIP3   OH260483   5.595   2.792   2.382  0.4194  0.0137 -0.1548
13023TIP3    H160484   5.560   2.853   2.447 -0.3391  1.3607 -1.7417
13023TIP3    H260485   5.626   2.848   2.311 -1.0510 -1.4165 -2.0494
13024TIP3   OH260486   3.502   4.098  12.930  0.4354 -0.2717 -0.6361
13024TIP3    H160487   3.440   4.150  12.879  0.7681  1.3837  0.5676
13024TIP3    H260488   3.446   4.044  12.987  0.0890  0.5392 -0.1980
13025TIP3   OH260489   6.541   3.030   1.107  0.3824  0.5128 -0.1250
13025TIP3    H160490   6.495   3.030   1.191  0.3577  1.2652 -0.1279
13025TIP3    H260491   6.508   2.953   1.061  0.3533  0.1298  0.5333
13026TIP3   OH260492   5.479   2.955  11.659  0.3368  0.0344 -0.0752
13026TIP3    H160493   5.551   2.915  11.610  0.6010  1.2105 -0.6924
13026TIP3    H260494   5.497   3.049  11.654  0.1181  0.2126  1.8957
13027TIP3   OH260495   4.669   3.625  10.887  0.0618 -0.1557 -0.0162
13027TIP3    H160496   4.634   3.563  10.952  0.3701  0.4969  0.7955
13027TIP3    H260497   4.737   3.577  10.841  0.7299 -0.2521  1.0291
13028TIP3   OH260498   0.886   5.144  11.843 -0.0610 -0.2392 -0.2099
13028TIP3    H160499   0.843   5.068  11.803 -0.4403 -0.0172 -0.2284
13028TIP3    H260500   0.846   5.151  11.929 -0.8102  0.5890 -0.6124
13029TIP3   OH260501   2.695   5.504  10.530  0.3555  0.6152  0.2333
13029TIP3    H160502   2.600   5.514  10.522  0.4884  1.6022 -0.3304
13029TIP3    H260503   2.711   5.502  10.625 -0.4375 -2.2703  0.4032
13030TIP3   OH260504   3.284   6.001   5.619  0.7945 -0.0919 -0.4092
13030TIP3    H160505   3.289   5.950   5.538  1.1840 -4.5974  2.0953
13030TIP3    H260506   3.190   6.008   5.637  0.6225 -3.3582  0.8285
13031TIP3   OH260507   2.068   5.028   5.450 -0.1732 -0.4802 -0.6092
13031TIP3    H160508   2.084   4.939   5.483  1.0665  0.5342  1.8450
13031TIP3    H260509   1.981   5.051   5.483 -0.3315 -0.6399 -0.9137
13032TIP3   OH260510   5.034   6.541   5.304 -0.2322  0.0296 -0.0945
13032TIP3    H160511   5.065   6.613   5.360  0.5341  0.5447 -1.1476
13032TIP3    H260512   4.969   6.582   5.246 -1.7758 -0.7177  1.0499
13033TIP3   OH260513   6.402   5.265  14.871  0.0052  0.1231 -0.4340
13033TIP3    H160514   6.432   5.258  14.962 -1.1828 -0.7430 -0.0864
13033TIP3    H260515   6.448   5.342  14.837  1.5831 -0.3989  0.4410
13034TIP3   OH260516   1.866   4.690   4.041  0.3720 -0.0030  0.3923
13034TIP3    H160517   1.816   4.768   4.063  1.8041  1.0764 -0.0332
13034TIP3    H260518   1.879   4.646   4.125  2.2098  1.8879  1.1934
13035TIP3   OH260519   1.399   5.708  15.692 -0.5416  0.5237  0.0465
13035TIP3    H160520   1.369   5.646  15.626  0.3788  0.5662 -0.4373
13035TIP3    H260521   1.440   5.779  15.642 -1.5667  1.5378  0.5857
13036TIP3   OH260522   1.267   5.036   5.666  0.4432 -0.0688  0.3000
13036TIP3    H160523   1.354   5.049   5.703  1.7312 -0.9850 -2.1340
13036TIP3    H260524   1.258   4.941   5.660 -0.5841  0.0245  0.1917
13037TIP3   OH260525   4.432   5.903  15.804  0.2534 -0.0241 -0.6478
13037TIP3    H160526   4.393   5.901  15.717 -0.3653  1.2141 -0.4280
13037TIP3    H260527   4.395   5.827  15.848 -2.1018  1.1467 -0.4251
13038TIP3   OH260528   2.532   6.299  12.733 -0.3274  0.2146  0.1297
13038TIP3    H160529   2.506   6.230  12.673  0.9721 -0.9368  0.8229
13038TIP3    H260530   2.493   6.274  12.817  0.1974  0.2843  0.4005
13039TIP3   OH260531   0.432   5.840   0.688 -0.7973 -0.2916  0.3177
13039TIP3    H160532   0.459   5.919   0.734 -0.1772 -0.7277  0.7215
13039TIP3    H260533   0.361   5.804   0.742  0.5975 -1.3481  1.5468
13040TIP3   OH260534   4.687   1.365  13.022 -0.6498 -0.4498 -0.2085
13040TIP3    H160535   4.630   1.289  13.031 -0.1165 -0.7804  0.4911
13040TIP3    H260536   4.774   1.328  13.005 -0.4013  0.0048  0.0399
13041TIP3   OH260537   3.347   2.407   3.702 -0.4086 -0.1428  0.1996
13041TIP3    H160538   3.421   2.378   3.755  2.5634  2.2789 -2.1861
13041TIP3    H260539   3.310   2.480   3.751  1.3346  1.0860 -0.1979
13042TIP3   OH260540   2.389   1.612  13.910  0.4613 -0.5817  0.6112
13042TIP3    H160541   2.413   1.532  13.956 -0.3306  0.5887  3.2614
13042TIP3    H260542   2.293   1.616  13.917  0.5271  0.8381  1.0039
13043TIP3   OH260543   2.789   0.870   5.524  0.0475  0.1807 -0.1060
13043TIP3    H160544   2.740   0.922   5.461  1.3052  1.9365  0.2987
13043TIP3    H260545   2.758   0.780   5.510 -3.5907  1.1801  0.4722
13044TIP3   OH260546   5.315   0.963   2.892 -0.1872  0.2022  0.3467
13044TIP3    H160547   5.220   0.975   2.897 -0.0540  0.8367  1.9038
13044TIP3    H260548   5.352   1.050   2.908  0.6579 -0.3212  1.4341
13045TIP3   OH260549   6.773   2.142  15.801 -0.1429 -0.1277 -0.1879
13045TIP3    H160550   6.839   2.211  15.797  0.3913 -0.6641 -0.8227
13045TIP3    H260551   6.690   2.188  15.785  0.3289  0.2083 -1.9355
13046TIP3   OH260552   4.036   2.119   0.255 -0.1878  0.4217  0.2854
13046TIP3    H160553   3.958   2.082   0.297  0.3879 -0.7010  0.3977
13046TIP3    H260554   4.028   2.092   0.163  0.8806 -1.1512  0.6181
13047TIP3   OH260555   0.829   0.800  16.322  0.0329  0.1048 -0.2706
13047TIP3    H160556   0.762   0.735  16.340  0.8216 -0.4184  0.8424
13047TIP3    H260557   0.793   0.852  16.250 -0.9112 -1.0991 -0.6969
13048TIP3   OH260558   1.857   2.052  11.821  0.4435 -0.0575 -0.0356
13048TIP3    H160559   1.816   2.032  11.906 -1.3310  1.8485 -0.3692
13048TIP3    H260560   1.839   1.975  11.767  0.8798 -0.9477  1.0335
13049TIP3   OH260561   3.025   2.940  14.536  0.2676 -0.1680  0.2864
13049TIP3    H160562   3.023   3.029  14.571 -1.3082 -0.6489  1.5381
13049TIP3    H260563   2.989   2.948  14.448  0.4112  0.4581  0.2761
13050TIP3   OH260564   3.331   0.818  16.924 -0.0647 -0.2708 -0.1461
13050TIP3    H160565   3.400   0.755  16.903 -0.0857  0.2136 -1.7835
13050TIP3    H260566   3.377   0.891  16.966  0.3850 -0.0954 -0.9296
13051TIP3   OH260567   3.064   6.107  15.736  0.0139  0.1820  0.1153
13051TIP3    H160568   3.073   6.201  15.751 -1.7092  0.2017  1.3432
13051TIP3    H260569   2.980   6.085  15.775  1.1871 -2.1987  1.4947
13052TIP3   OH260570   6.624   1.755   1.386  0.5579  0.1677 -0.3421
13052TIP3    H160571   6.623   1.668   1.347 -0.8393  0.3744 -0.8478
13052TIP3    H260572   6.569   1.808   1.327  0.5837  1.1429  0.4842
13053TIP3   OH260573   2.965   5.338   0.603  0.6478  0.2746  0.2261
13053TIP3    H160574   2.950   5.264   0.544  0.8861  0.5159 -0.1437
13053TIP3    H260575   2.884   5.347   0.652  0.9580 -0.8492  0.9710
13054TIP3   OH260576   0.802   4.688   1.894 -0.0029  0.2092 -0.7663
13054TIP3    H160577   0.752   4.661   1.817  2.1905 -2.6506 -1.3589
13054TIP3    H260578   0.890   4.652   1.879  1.0605  1.3204  2.1490
13055TIP3   OH260579   5.451   0.190   1.320 -0.1040  0.0194  0.4127
13055TIP3    H160580   5.438   0.099   1.349 -1.0641  0.3282  1.0149
13055TIP3    H260581   5.434   0.242   1.399  2.2781  0.6669  0.5875
13056TIP3   OH260582   6.655   2.005  12.767  0.1351  0.0060 -0.0195
13056TIP3    H160583   6.576   2.055  12.785 -0.8847 -1.5959  0.1307
13056TIP3    H260584   6.625   1.929  12.718  1.6326 -0.4631 -0.2639
13057TIP3   OH260585   0.892   1.752  15.197 -0.1427  1.0544  0.1467
13057TIP3    H160586   0.975   1.723  15.236 -0.7835  0.4422  1.0921
13057TIP3    H260587   0.906   1.744  15.103  0.2396 -0.8633  0.3255
13058TIP3   OH260588   1.546   3.448   4.597 -0.3103 -0.4561 -0.2703
13058TIP3    H160589   1.565   3.481   4.685 -2.7023  1.9736 -0.5458
13058TIP3    H260590   1.617   3.385   4.580  2.2577  1.5598  1.9612
13059TIP3   OH260591   5.096   6.502   3.392 -0.3079 -0.4203 -0.5505
13059TIP3    H160592   5.131   6.567   3.453  0.4855 -1.5788  0.2689
13059TIP3    H260593   5.080   6.550   3.311  1.1395  0.5909 -0.2565
13060TIP3   OH260594   0.116   2.174   2.469 -0.0364 -0.0718  0.2288
13060TIP3    H160595   0.082   2.262   2.486  0.1229  0.0052  0.1474
13060TIP3    H260596   0.152   2.147   2.553  0.9033  0.3762 -0.0107
13061TIP3   OH260597   5.299   5.474  12.418 -0.4674 -0.3508 -0.5854
13061TIP3    H160598   5.230   5.426  12.464  0.4171 -1.0131  0.0752
13061TIP3    H260599   5.278   5.566  12.433 -0.2061 -0.5519  1.1644
13062TIP3   OH260600   0.462   4.435  14.376 -0.0657  0.4209 -0.4390
13062TIP3    H160601   0.426   4.472  14.456  0.4095  1.0321 -0.5043
13062TIP3    H260602   0.457   4.340  14.389 -0.8251  0.5040 -0.0625
13063TIP3   OH260603   0.374   3.094   0.658 -0.0068  0.2866 -0.7427
13063TIP3    H160604   0.409   3.013   0.694 -0.8644  0.0762 -0.3537
13063TIP3    H260605   0.390   3.160   0.726 -0.7950  0.0848 -0.3514
13064TIP3   OH260606   6.528   0.500  14.932 -0.4722  0.6780 -0.8250
13064TIP3    H160607   6.623   0.491  14.919 -0.3404 -1.2110  0.9092
13064TIP3    H260608   6.492   0.418  14.899 -0.9321 -0.6533  2.5696
13065TIP3   OH260609   6.205   5.355   4.437  0.5006  0.6497  0.0419
13065TIP3    H160610   6.138   5.405   4.391 -0.6811  0.5168  1.5392
13065TIP3    H260611   6.211   5.272   4.390 -0.9507  0.3654  0.3227
13066TIP3   OH260612   5.381   1.578  17.058  0.5958 -0.0895 -0.1568
13066TIP3    H160613   5.338   1.522  16.993  0.1016 -0.0423  0.1222
13066TIP3    H260614   5.456   1.616  17.012  1.0829 -1.1695 -0.2798
13067TIP3   OH260615   0.457   1.875   4.606 -0.0565 -0.0831 -0.0774
13067TIP3    H160616   0.418   1.926   4.535  0.0814 -1.1598 -0.9487
13067TIP3    H260617   0.502   1.803   4.562  1.4372  0.1330  1.0113
13068TIP3   OH260618   6.690   4.147   2.846  0.3822 -0.1962 -0.3583
13068TIP3    H160619   6.596   4.161   2.840  0.2622 -1.1250 -0.8115
13068TIP3    H260620   6.699   4.059   2.883  1.0776 -0.0637 -0.1880
13069TIP3   OH260621   3.308   6.355  13.140  0.1986 -0.6721  0.2831
13069TIP3    H160622   3.347   6.380  13.224  0.7151 -2.8561  0.7565
13069TIP3    H260623   3.382   6.351  13.080 -0.0275 -0.0714 -0.0398
13070TIP3   OH260624   2.866   1.022   2.399  0.6267  0.2665 -0.8168
13070TIP3    H160625   2.799   1.028   2.468 -0.2775 -0.4072 -1.6047
13070TIP3    H260626   2.927   0.956   2.429  0.5723  0.4114 -0.3870
13071TIP3   OH260627   6.313   6.062  11.258 -0.1626  0.0212  0.1830
13071TIP3    H160628   6.309   6.059  11.163  0.7426  1.5558  0.0694
13071TIP3    H260629   6.261   6.139  11.282 -0.2414 -0.2508  0.9333
13072TIP3   OH260630   0.326   4.642  11.429 -0.6922  0.4951  0.0869
13072TIP3    H160631   0.309   4.683  11.344  1.3784  0.4813 -0.3838
13072TIP3    H260632   0.239   4.628  11.467 -1.6500  0.7982 -1.8806
13073TIP3   OH260633   5.001   1.053  14.468 -0.5438  0.0509 -0.0746
13073TIP3    H160634   5.024   1.076  14.378  1.3737  1.0576  0.6093
13073TIP3    H260635   4.970   1.135  14.507 -3.0857 -0.7333 -0.2321
13074TIP3   OH260636   6.704   6.352   5.044  0.2816 -0.0397  0.1797
13074TIP3    H160637   6.627   6.331   4.993 -0.8043 -0.7084  2.0065
13074TIP3    H260638   6.735   6.436   5.008 -1.2791  0.2330 -0.5856
13075TIP3   OH260639   5.453   0.168  11.967 -0.0179 -0.0583  0.3927
13075TIP3    H160640   5.438   0.175  12.061 -2.6029  0.9600 -0.0047
13075TIP3    H260641   5.472   0.257  11.938 -1.9048  0.1338 -0.3785
13076TIP3   OH260642   3.505   1.362   5.683  0.3831 -0.2529 -0.0171
13076TIP3    H160643   3.443   1.392   5.617  0.7716  2.1361  0.6296
13076TIP3    H260644   3.461   1.379   5.767  1.4829  0.5749  0.4204
13077TIP3   OH260645   1.081   4.734   2.831  0.2846 -0.3897 -0.5898
13077TIP3    H160646   1.096   4.680   2.753  2.6746  1.0570 -1.2404
13077TIP3    H260647   1.154   4.711   2.889 -1.5941 -1.6557  1.4569
13078TIP3   OH260648   0.641   3.037   4.568 -0.1390 -0.1186  0.1480
13078TIP3    H160649   0.649   3.128   4.539 -0.5911 -0.1981 -0.2328
13078TIP3    H260650   0.661   2.985   4.490  2.9499 -0.4207  0.9988
13079TIP3   OH260651   3.334   0.691  16.103  0.1200  0.0312  0.2250
13079TIP3    H160652   3.357   0.784  16.107  2.6767 -0.3499 -2.6117
13079TIP3    H260653   3.366   0.661  16.018 -1.4988 -3.2690  0.6088
13080TIP3   OH260654   4.417   4.738   0.746  0.1606  0.5803  0.4538
13080TIP3    H160655   4.473   4.667   0.714  1.2523  1.3805  0.5186
13080TIP3    H260656   4.340   4.695   0.780  0.9321 -0.5970  0.7515
13081TIP3   OH260657   2.728   6.090  14.689  0.8493 -0.3850  0.4897
13081TIP3    H160658   2.796   6.148  14.722  0.9693  0.7646 -1.6346
13081TIP3    H260659   2.754   6.069  14.600 -0.2211 -2.1358  0.5232
13082TIP3   OH260660   0.344   4.757  15.601  0.2917  0.0869  0.1191
13082TIP3    H160661   0.281   4.687  15.622  1.2557 -1.1238 -0.8555
13082TIP3    H260662   0.408   4.754  15.672  1.2880 -1.2468 -0.7747
13083TIP3   OH260663   5.847   6.334   5.457 -0.7236 -0.0201 -0.5067
13083TIP3    H160664   5.764   6.343   5.410 -0.0207  0.0614 -1.7683
13083TIP3    H260665   5.914   6.358   5.393  0.3040 -0.4873  0.3615
13084TIP3   OH260666   1.259   0.047  14.466  0.5560 -0.7737 -0.2053
13084TIP3    H160667   1.252   0.110  14.394  0.4923  0.3185  0.7398
13084TIP3    H260668   1.352   0.029  14.473  0.8147  0.8162  0.8452
13085TIP3   OH260669   5.902   0.847   0.530 -0.2057  0.3832 -0.1764
13085TIP3    H160670   5.837   0.806   0.473  0.1008  1.8720 -1.6890
13085TIP3    H260671   5.853   0.909   0.583 -0.0639  1.4744 -1.2862
13086TIP3   OH260672   1.071   5.827  14.052  0.0364 -0.6556  0.2136
13086TIP3    H160673   1.024   5.910  14.043 -0.3261 -0.7350  1.3068
13086TIP3    H260674   1.163   5.851  14.042 -0.1584 -0.3665 -1.0493
13087TIP3   OH260675   1.997   4.524  16.782  0.0053 -0.0695 -0.1977
13087TIP3    H160676   2.055   4.520  16.859 -0.6677  1.9915  0.5037
13087TIP3    H260677   2.056   4.547  16.710  0.3320  0.3085  0.1774
13088TIP3   OH260678   6.641   2.448   3.381 -0.0271 -0.1926 -0.9615
13088TIP3    H160679   6.596   2.480   3.459  0.2897  0.6106 -1.1005
13088TIP3    H260680   6.725   2.493   3.381  1.1445 -2.2845 -0.2655
13089TIP3   OH260681   3.290   5.186   2.846  1.1028  0.0140 -0.4829
13089TIP3    H160682   3.224   5.147   2.789  1.5585 -0.0797 -0.9507
13089TIP3    H260683   3.331   5.253   2.792 -0.1404  1.6668  0.5138
13090TIP3   OH260684   1.086   0.492   4.010 -0.1049 -0.0305  0.6553
13090TIP3    H160685   1.051   0.500   3.921 -2.0117 -0.7355  1.2993
13090TIP3    H260686   1.077   0.580   4.047 -0.0860  0.0664  0.4305
13091TIP3   OH260687   0.496   1.744  12.371 -0.4754 -0.4518 -0.0716
13091TIP3    H160688   0.451   1.676  12.320 -2.2006  0.3401  0.3327
13091TIP3    H260689   0.494   1.711  12.461  1.3656 -1.2130 -0.2575
13092TIP3   OH260690   5.233   4.363   1.706  0.4742 -0.2771 -0.2825
13092TIP3    H160691   5.163   4.317   1.660  1.0008 -0.7016 -0.6762
13092TIP3    H260692   5.293   4.294   1.733  1.7178  0.2399 -1.6357
13093TIP3   OH260693   2.950   2.586  12.206 -0.3088 -0.7000 -0.4528
13093TIP3    H160694   2.912   2.525  12.143 -1.2212 -0.1342 -0.4684
13093TIP3    H260695   2.954   2.669  12.159  0.5374 -0.6400 -0.2938
13094TIP3   OH260696   4.277   6.137   3.120  0.4734 -0.4798  0.2901
13094TIP3    H160697   4.244   6.135   3.030  0.5124 -3.2482  0.2516
13094TIP3    H260698   4.198   6.131   3.174  0.5099  0.0820  0.4013
13095TIP3   OH260699   3.474   2.450  13.119  0.2328  0.0554  0.4474
13095TIP3    H160700   3.536   2.521  13.134 -0.2690  0.3867  1.0337
13095TIP3    H260701   3.388   2.489  13.136 -0.4168  0.3097 -2.7488
13096TIP3   OH260702   2.688   1.236  16.041 -0.0303  0.5906  0.3059
13096TIP3    H160703   2.635   1.252  15.963 -0.9343 -0.1625  0.7353
13096TIP3    H260704   2.653   1.154  16.077 -0.3544  1.4612  2.0824
13097TIP3   OH260705   1.307   1.306  11.413 -0.0513  0.0567  0.0496
13097TIP3    H160706   1.382   1.248  11.424  0.4522  0.4601 -1.0699
13097TIP3    H260707   1.231   1.247  11.414  0.1199 -0.2330  2.4738
13098TIP3   OH260708   0.395   1.439  14.191 -0.2332 -0.3258  0.1371
13098TIP3    H160709   0.456   1.380  14.234  0.6916  0.6391  0.1679
13098TIP3    H260710   0.402   1.521  14.240 -1.6819 -0.2415  0.2489
13099TIP3   OH260711   0.243   3.877   1.247  0.0837  0.2659 -0.0479
13099TIP3    H160712   0.270   3.968   1.262  1.2519  0.2260 -1.6406
13099TIP3    H260713   0.316   3.839   1.199 -0.7996 -1.2697 -0.2088
13100TIP3   OH260714   6.238   4.587  14.469 -0.2886 -0.4113 -0.3883
13100TIP3    H160715   6.168   4.649  14.451 -1.3278 -1.2348  0.6062
13100TIP3    H260716   6.227   4.566  14.562  0.0470 -2.0388 -0.6856
13101TIP3   OH260717   0.616   4.428   1.096  0.5843  0.2349  0.1087
13101TIP3    H160718   0.559   4.384   1.034 -0.7746  1.8468  0.1464
13101TIP3    H260719   0.578   4.409   1.182 -1.0211  2.6706  0.0449
13102TIP3   OH260720   3.422   1.501   5.906  0.5466 -0.1437 -0.1594
13102TIP3    H160721   3.355   1.566   5.884 -1.5616 -1.5133  1.8271
13102TIP3    H260722   3.479   1.546   5.968  1.0249  0.7543 -1.2053
13103TIP3   OH260723   6.598   4.217   3.699 -0.1319 -0.0770  0.1692
13103TIP3    H160724   6.665   4.179   3.756  0.3650  1.2085  0.4740
13103TIP3    H260725   6.520   4.222   3.754  0.1678  0.5657  0.5453
13104TIP3   OH260726   5.517   0.555  14.893 -0.4291 -0.0439  0.2367
13104TIP3    H160727   5.535   0.472  14.937 -0.7470 -0.7736 -0.9525
13104TIP3    H260728   5.595   0.608  14.909  0.4563 -1.1441 -0.2746
13105TIP3   OH260729   0.331   4.484  14.647  0.2972 -0.2345 -0.0085
13105TIP3    H160730   0.392   4.444  14.708 -1.4904  0.6942  2.5492
13105TIP3    H260731   0.322   4.574  14.677 -2.6402 -0.4493  0.0574
13106TIP3   OH260732   0.864   2.354  11.114 -0.0582  0.6613 -0.1775
13106TIP3    H160733   0.820   2.274  11.088  1.0183 -0.1202  0.3526
13106TIP3    H260734   0.835   2.369  11.204  0.1723  0.5547 -0.0843
13107TIP3   OH260735   3.353   1.968  11.678  0.6036 -0.2579  0.4243
13107TIP3    H160736   3.351   2.048  11.731  1.6983  1.1494 -1.5272
13107TIP3    H260737   3.446   1.942  11.677  1.1500  1.2707 -2.7750
13108TIP3   OH260738   2.277   0.572  15.856  0.4920 -0.4011 -0.2549
13108TIP3    H160739   2.364   0.586  15.819  1.4770  0.6793  2.2679
13108TIP3    H260740   2.288   0.584  15.950 -2.3884 -0.3131  0.1767
13109TIP3   OH260741   2.018   1.023   3.855 -0.0537  0.5508 -0.0316
13109TIP3    H160742   2.003   1.105   3.808 -0.7726  0.9075  0.7813
13109TIP3    H260743   1.933   1.002   3.893  0.0084 -0.8395 -0.6245
13110TIP3   OH260744   6.532   3.811  14.026  0.1986 -0.1439 -0.4283
13110TIP3    H160745   6.452   3.792  14.076  1.2665  0.7356  1.7049
13110TIP3    H260746   6.596   3.747  14.058  0.9049  0.4207 -0.6923
13111TIP3   OH260747   2.824   6.463   2.575 -0.0685  0.6452 -0.3566
13111TIP3    H160748   2.906   6.465   2.623  0.8489  0.4219 -1.8374
13111TIP3    H260749   2.774   6.392   2.614  1.3191 -0.6026 -0.7492
13112TIP3   OH260750   1.427   6.594   4.421  0.1140  0.2298  0.1872
13112TIP3    H160751   1.441   6.609   4.514  0.8581  0.0248  0.1158
13112TIP3    H260752   1.409   6.680   4.385 -0.0547  0.3256  0.5009
13113TIP3   OH260753   6.005   0.424   6.255 -0.0627  0.3682 -0.3383
13113TIP3    H160754   6.082   0.367   6.245 -1.9334 -2.0835 -1.9626
13113TIP3    H260755   5.950   0.378   6.319 -1.3570  0.6036 -1.2378
13114TIP3   OH260756   6.129   1.256  14.459  0.1547  0.2066  0.4477
13114TIP3    H160757   6.037   1.285  14.465 -0.6865 -1.5338 -2.2303
13114TIP3    H260758   6.127   1.164  14.485  0.6824 -0.4398 -1.6011
13115TIP3   OH260759   4.347   4.669   2.030 -0.2184 -0.2989 -0.0966
13115TIP3    H160760   4.258   4.693   2.054 -0.1821 -0.2682  0.0085
13115TIP3    H260761   4.401   4.701   2.102 -0.0934 -0.0838 -0.2828
13116TIP3   OH260762   4.753   5.774   3.145 -0.5044 -0.1935 -0.2169
13116TIP3    H160763   4.844   5.747   3.158 -0.5249  0.0535  0.4663
13116TIP3    H260764   4.754   5.869   3.157 -0.5324  0.0710 -2.0604
13117TIP3   OH260765   6.036   5.977   2.549  0.5637  0.0774  0.3398
13117TIP3    H160766   5.989   5.902   2.584  2.3130 -1.0970  0.2552
13117TIP3    H260767   6.101   5.940   2.489  0.8886  1.7179 -0.3919
13118TIP3   OH260768   5.510   0.910  16.625  0.2002 -0.5273 -0.5652
13118TIP3    H160769   5.571   0.918  16.698 -0.1925 -1.2781 -0.1433
13118TIP3    H260770   5.433   0.960  16.653  0.3010 -0.2622 -0.7537
13119TIP3   OH260771   6.220   5.794  15.439  0.0673 -0.5512  0.8360
13119TIP3    H160772   6.294   5.759  15.390  0.7972  1.5632  0.3429
13119TIP3    H260773   6.161   5.828  15.371  0.2391  0.7637  1.3121
13120TIP3   OH260774   1.937   5.682  16.034 -0.1936 -0.1091  0.4365
13120TIP3    H160775   2.030   5.693  16.013 -0.1528  2.8309  1.7534
13120TIP3    H260776   1.891   5.718  15.958 -0.2149  0.2683  0.6262
13121TIP3   OH260777   0.695   2.056   5.794  0.0515 -0.5812 -0.4330
13121TIP3    H160778   0.632   1.994   5.833  0.5493 -0.3662  0.7615
13121TIP3    H260779   0.716   2.116   5.865  0.9796 -0.1449 -1.0573
13122TIP3   OH260780   0.321   1.965  12.933 -0.3012  0.3972 -0.1918
13122TIP3    H160781   0.339   2.034  12.870 -0.8401  2.1640  1.4954
13122TIP3    H260782   0.225   1.964  12.940 -0.3186 -0.7208 -0.3716
13123TIP3   OH260783   3.374   6.672  16.979  0.0203  0.2950  0.0198
13123TIP3    H160784   3.344   6.740  17.040  0.5649 -0.8293  1.5872
13123TIP3    H260785   3.469   6.671  16.989  0.2756  0.9690 -1.8469
13124TIP3   OH260786   3.532   1.441   1.141 -0.3261  0.3183  0.2751
13124TIP3    H160787   3.465   1.441   1.072 -0.4077  1.1879  0.3499
13124TIP3    H260788   3.585   1.363   1.122 -1.2483 -0.2905  0.1177
13125TIP3   OH260789   5.133   1.478   6.167  0.2021  0.0006  0.2797
13125TIP3    H160790   5.226   1.499   6.162  0.0137  1.5197  2.1181
13125TIP3    H260791   5.094   1.552   6.214 -1.7532 -1.1244  0.5406
13126TIP3   OH260792   2.043   5.518   3.721  0.2873 -0.0077 -0.3243
13126TIP3    H160793   1.971   5.469   3.681 -0.9633  0.1994  1.5213
13126TIP3    H260794   2.017   5.609   3.715  1.2681  0.2352 -1.2138
13127TIP3   OH260795   2.834   3.708  15.732 -0.4501  0.7778  0.3515
13127TIP3    H160796   2.791   3.683  15.814  0.7036  0.1743  0.7944
13127TIP3    H260797   2.917   3.747  15.760 -0.8713  2.3315 -0.4599
13128TIP3   OH260798   0.231   3.066   5.760 -0.7428  0.2165 -0.3432
13128TIP3    H160799   0.263   3.127   5.826  0.2442  1.6596 -2.0639
13128TIP3    H260800   0.309   3.024   5.725 -1.2509 -0.5958 -0.5414
13129TIP3   OH260801   4.012   4.403   5.466  0.4924 -0.0150  0.1019
13129TIP3    H160802   4.078   4.362   5.521  0.8326  0.9082  0.3997
13129TIP3    H260803   3.982   4.333   5.408  2.3400 -0.2575 -0.6203
13130TIP3   OH260804   3.830   3.604   0.080  0.4099 -0.6785 -0.2456
13130TIP3    H160805   3.754   3.547   0.085 -0.0834 -0.1885 -1.6346
13130TIP3    H260806   3.905   3.544   0.079 -0.0334 -1.2403 -0.4097
13131TIP3   OH260807   1.940   3.282  13.265 -0.4277  0.0631 -0.5913
13131TIP3    H160808   1.927   3.343  13.192  1.9107  1.0525 -0.2743
13131TIP3    H260809   1.895   3.202  13.238 -2.3216  1.4217 -1.6873
13132TIP3   OH260810   0.786   0.175   3.954 -0.0011 -0.4569 -0.4790
13132TIP3    H160811   0.793   0.094   4.005  1.6779  0.1730  0.3492
13132TIP3    H260812   0.710   0.220   3.992 -0.3270 -1.1647 -0.2695
13133TIP3   OH260813   2.455   2.058  15.152  0.6841 -0.0446  0.2683
13133TIP3    H160814   2.447   1.963  15.159 -0.1891 -0.0108 -0.1162
13133TIP3    H260815   2.451   2.090  15.242 -0.8809 -0.2561  0.2944
13134TIP3   OH260816   5.553   0.449  16.163 -0.0674  0.3178 -0.1878
13134TIP3    H160817   5.573   0.453  16.069  0.8152  0.5462  0.0027
13134TIP3    H260818   5.503   0.529  16.180  0.1785  0.5077 -0.3638
13135TIP3   OH260819   1.623   6.734  15.103  0.2214 -0.2255 -0.0009
13135TIP3    H160820   1.681   6.730  15.179  0.2056 -1.3190 -0.0244
13135TIP3    H260821   1.565   6.808  15.121 -1.1811 -1.7311  2.1107
13136TIP3   OH260822   6.706   4.098   4.795  0.3683 -0.3912 -0.0551
13136TIP3    H160823   6.669   4.137   4.716 -0.6131 -0.7458  0.2226
13136TIP3    H260824   6.636   4.044   4.831 -0.1050  1.6468  2.3915
13137TIP3   OH260825   0.261   6.421  10.812 -0.2643 -0.3361 -0.6422
13137TIP3    H160826   0.303   6.411  10.726  0.0338 -0.1141 -0.5240
13137TIP3    H260827   0.181   6.471  10.793 -0.5675 -0.9124 -0.8925
13138TIP3   OH260828   0.133   0.359  12.604  0.2454 -0.5129  0.0973
13138TIP3    H160829   0.114   0.293  12.671 -0.1075 -0.5629 -0.0515
13138TIP3    H260830   0.192   0.421  12.647 -0.4252 -0.2322  0.6361
13139TIP3   OH260831   0.890   5.516  10.733  0.0224 -0.1307  0.1287
13139TIP3    H160832   0.847   5.564  10.663  1.3113  0.4576 -0.2745
13139TIP3    H260833   0.981   5.507  10.704  0.0546 -1.9241  0.6567
13140TIP3   OH260834   2.317   1.287   1.648 -0.2399  0.0640 -0.0829
13140TIP3    H160835   2.257   1.228   1.602  1.2413 -0.6781 -1.1621
13140TIP3    H260836   2.304   1.371   1.606 -1.7918  0.3759  0.9244
13141TIP3   OH260837   2.206   1.446   0.847  0.1170  0.3520  0.2695
13141TIP3    H160838   2.249   1.531   0.839  1.7407 -0.4735 -0.1133
13141TIP3    H260839   2.142   1.444   0.776  0.7490  0.8617 -0.3185
13142TIP3   OH260840   0.890   4.821   5.939 -0.5071  0.1316  0.0066
13142TIP3    H160841   0.836   4.758   5.890 -0.3400 -0.4886  0.6006
13142TIP3    H260842   0.872   4.801   6.031  2.0787 -1.3480  0.3045
13143TIP3   OH260843   0.344   1.019   1.125 -0.4024 -0.3402 -0.0112
13143TIP3    H160844   0.279   0.989   1.061  0.2152  3.2400 -2.6507
13143TIP3    H260845   0.301   1.092   1.170  0.7140  0.0182  0.5050
13144TIP3   OH260846   5.819   5.128   2.503 -0.3110  0.0432 -0.3992
13144TIP3    H160847   5.781   5.191   2.564 -0.4022 -0.4712  0.0912
13144TIP3    H260848   5.825   5.175   2.420 -0.5097  0.6462 -0.0795
13145TIP3   OH260849   6.230   5.576  15.672  0.4161  0.2275 -0.1035
13145TIP3    H160850   6.259   5.651  15.619  1.7338  1.2776  1.9572
13145TIP3    H260851   6.309   5.526  15.688  0.5058  1.0391  2.4512
13146TIP3   OH260852   2.946   4.677   2.452 -0.3696 -0.1337 -0.2040
13146TIP3    H160853   3.032   4.698   2.417 -0.4239 -0.0478 -0.2859
13146TIP3    H260854   2.913   4.760   2.486  1.2321 -0.7836  3.5129
13147TIP3   OH260855   0.414   1.419  13.506 -0.1399  0.2290  0.2705
13147TIP3    H160856   0.372   1.457  13.583 -0.3996  1.0027 -0.2476
13147TIP3    H260857   0.494   1.380  13.539  0.0130  1.0231  0.8520
13148TIP3   OH260858   6.218   4.407   1.176 -0.3232  0.4040 -0.6883
13148TIP3    H160859   6.174   4.448   1.250  1.7798 -0.1294  0.9610
13148TIP3    H260860   6.286   4.469   1.151  1.6938 -1.1230  0.6416
13149TIP3   OH260861   0.817   6.683  11.507  0.0499  0.1227  0.4356
13149TIP3    H160862   0.782   6.595  11.523 -1.0587  0.4429 -0.1818
13149TIP3    H260863   0.845   6.681  11.415 -1.3199  0.8516 -0.0084
13150TIP3   OH260864   1.066   4.106   5.375 -0.2329 -0.3915 -0.1150
13150TIP3    H160865   1.059   4.122   5.469  0.8419 -1.9227  0.2577
13150TIP3    H260866   0.982   4.065   5.351 -0.8683  0.8239 -0.0295
13151TIP3   OH260867   4.196   3.144   3.035  0.5396 -0.0222 -0.5699
13151TIP3    H160868   4.121   3.085   3.026 -0.3110  0.7385  1.1786
13151TIP3    H260869   4.266   3.102   2.984 -1.3646 -0.1414 -3.3310
13152TIP3   OH260870   3.827   1.943   0.347  0.2582 -0.3266  0.3205
13152TIP3    H160871   3.875   1.896   0.415  2.2629  0.0608 -0.7672
13152TIP3    H260872   3.790   1.874   0.292  0.2801 -0.6256  0.6729
13153TIP3   OH260873   2.969   3.442  15.005 -0.5608 -0.0609  0.2686
13153TIP3    H160874   2.941   3.457  14.915  1.4307  3.1429  0.0450
13153TIP3    H260875   2.933   3.356  15.027 -4.7136  0.7922 -2.1028
13154TIP3   OH260876   5.757   0.348  14.684  0.2428 -0.0166 -0.1493
13154TIP3    H160877   5.767   0.365  14.590  0.6797  0.9223  0.0594
13154TIP3    H260878   5.845   0.356  14.720  0.2932 -1.7020  0.1495
13155TIP3   OH260879   2.185   3.089   4.122  0.0965  0.5682 -0.7015
13155TIP3    H160880   2.217   3.160   4.176  0.6906  0.0741 -0.3995
13155TIP3    H260881   2.108   3.056   4.169  1.6767 -1.1017  0.8978
13156TIP3   OH260882   5.754   3.013   3.788  0.1642 -0.1394 -0.3232
13156TIP3    H160883   5.672   2.983   3.748  1.2074 -1.8952 -1.2291
13156TIP3    H260884   5.766   2.956   3.864  0.1219  0.6893  0.3187
13157TIP3   OH260885   3.957   6.779   6.287  0.0905 -0.2174  0.4471
13157TIP3    H160886   4.043   6.801   6.252 -0.1251 -1.3376 -0.8749
13157TIP3    H260887   3.897   6.839   6.243  0.0457 -0.3103  0.3811
13158TIP3   OH260888   6.771   2.673   4.394 -0.6485  1.0645 -0.4031
13158TIP3    H160889   6.768   2.580   4.417 -0.9095  1.1862  0.0795
13158TIP3    H260890   6.863   2.697   4.400 -0.7776  1.2612  1.2724
13159TIP3   OH260891   6.147   1.047   1.576  0.0995 -0.0511 -0.3303
13159TIP3    H160892   6.130   1.003   1.492 -0.1397  0.7115 -0.6901
13159TIP3    H260893   6.242   1.048   1.583  0.1096 -0.6434 -0.3051
13160TIP3   OH260894   2.008   3.816   2.159  0.4049 -0.1175  0.0782
13160TIP3    H160895   2.072   3.858   2.101 -0.2490  0.5796 -0.1577
13160TIP3    H260896   2.055   3.742   2.197  1.3674  0.4151 -0.0456
13161TIP3   OH260897   5.519   6.144   5.041 -0.6268  0.4137 -0.3724
13161TIP3    H160898   5.435   6.191   5.046  0.0692  1.6253  0.2236
13161TIP3    H260899   5.585   6.212   5.048  0.4231 -0.5843 -0.3561
13162TIP3   OH260900   3.771   1.912  17.020  0.5563  0.3907  0.2772
13162TIP3    H160901   3.731   1.825  17.016 -1.1521  1.1388  0.0481
13162TIP3    H260902   3.749   1.952  16.935  3.1300  0.3317 -0.4900
13163TIP3   OH260903   3.488   5.251   0.407  0.5995 -0.0464 -0.3336
13163TIP3    H160904   3.550   5.257   0.480 -0.3425  0.9053  0.4175
13163TIP3    H260905   3.442   5.335   0.408 -1.0660 -0.9292 -0.5412
13164TIP3   OH260906   3.533   4.100  17.007  0.0239 -0.0504  0.3140
13164TIP3    H160907   3.629   4.109  17.008  0.1152 -0.8538 -0.2783
13164TIP3    H260908   3.518   4.009  16.982 -0.9009  0.0066  0.6275
13165TIP3   OH260909   2.176   2.013   1.779  0.5412 -0.2624  0.1525
13165TIP3    H160910   2.212   1.933   1.817  0.6348 -1.5389 -2.3607
13165TIP3    H260911   2.082   1.996   1.773  0.8618 -1.6609 -3.2145
13166TIP3   OH260912   3.484   3.043  12.545  0.3195  0.0044  0.9229
13166TIP3    H160913   3.526   2.974  12.596 -0.2101 -0.7901  0.3156
13166TIP3    H260914   3.552   3.109  12.532  1.7724 -1.7138 -0.9077
13167TIP3   OH260915   1.721   0.186   2.701 -0.0216  0.1628 -0.0095
13167TIP3    H160916   1.754   0.271   2.730 -1.6365  1.6014 -2.0946
13167TIP3    H260917   1.756   0.176   2.612  2.6111 -2.8358  1.2195
13168TIP3   OH260918   0.052   4.501  13.721  0.4214 -0.3009 -0.0313
13168TIP3    H160919  -0.027   4.447  13.729 -0.1730  0.7736  2.2307
13168TIP3    H260920   0.114   4.447  13.673 -1.9448 -0.8628 -2.7186
13169TIP3   OH260921   2.437   4.989  12.272  0.4072  0.0646  0.2123
13169TIP3    H160922   2.371   5.039  12.224 -0.5829 -0.3418  1.0997
13169TIP3    H260923   2.408   4.898  12.265  1.9498 -0.3778 -1.0151
13170TIP3   OH260924   0.389   2.661   1.198 -0.4734  0.2418  0.2503
13170TIP3    H160925   0.375   2.611   1.117 -0.1092 -1.5191  1.2103
13170TIP3    H260926   0.485   2.669   1.204 -0.5232  0.8872  0.2137
13171TIP3   OH260927   5.146   1.297  13.876 -0.2769 -0.0865  0.5066
13171TIP3    H160928   5.121   1.287  13.968 -1.4811  0.0467  0.2108
13171TIP3    H260929   5.122   1.213  13.836 -0.7625  0.2390  0.1051
13172TIP3   OH260930   2.603   5.001  12.836 -0.0237  0.5903 -0.2513
13172TIP3    H160931   2.691   5.031  12.811 -0.0706 -0.7391 -2.2296
13172TIP3    H260932   2.557   4.988  12.753 -0.7277 -2.6364  0.4820
13173TIP3   OH260933   4.479   1.565  14.570 -0.2436  0.3983 -0.6725
13173TIP3    H160934   4.543   1.511  14.618 -1.0081 -1.4549 -1.6132
13173TIP3    H260935   4.518   1.578  14.484 -0.9125 -0.3930 -1.1120
13174TIP3   OH260936   0.949   5.877  10.223  0.1567  0.1109  0.4507
13174TIP3    H160937   0.977   5.951  10.277  0.4062 -1.4837  2.6458
13174TIP3    H260938   0.866   5.849  10.262 -0.4670 -0.1402 -0.9916
13175TIP3   OH260939   4.355   0.608   4.118 -0.6955  0.1425 -0.0731
13175TIP3    H160940   4.395   0.523   4.100 -3.1854 -1.3163  0.8424
13175TIP3    H260941   4.416   0.671   4.081  0.7238 -2.0753 -1.7775
13176TIP3   OH260942   4.714   6.079   6.648  0.1168  0.4511 -0.0722
13176TIP3    H160943   4.686   6.032   6.727 -0.0448  0.2451 -0.2493
13176TIP3    H260944   4.702   6.015   6.577  1.9450  0.0159 -0.0310
13177TIP3   OH260945   3.583   4.481  15.680  0.1096 -0.5355 -0.1908
13177TIP3    H160946   3.570   4.560  15.732 -0.7639 -0.3231 -0.7166
13177TIP3    H260947   3.529   4.494  15.602 -2.6461 -3.0106  1.1331
13178TIP3   OH260948   3.613   5.119   6.234 -0.8188 -0.3475  0.1705
13178TIP3    H160949   3.632   5.038   6.187 -1.3068 -0.4943  0.2254
13178TIP3    H260950   3.660   5.110   6.317 -0.5581 -0.4067  0.0182
13179TIP3   OH260951   5.635   3.753  15.220 -0.0654 -0.2724 -0.2001
13179TIP3    H160952   5.717   3.728  15.264 -0.7052 -0.2911  1.0243
13179TIP3    H260953   5.609   3.835  15.262 -0.7301 -0.3226 -0.5059
13180TIP3   OH260954   0.553   5.097   1.875 -0.3130  0.0175  0.1616
13180TIP3    H160955   0.514   5.010   1.877 -1.1667  0.3975  1.1919
13180TIP3    H260956   0.640   5.084   1.839  0.5715 -1.6940  2.6222
13181TIP3   OH260957   1.857   5.893  13.509  0.2813 -0.0742  0.2487
13181TIP3    H160958   1.804   5.817  13.487  1.2656 -0.2726 -1.6577
13181TIP3    H260959   1.795   5.956  13.545 -1.0047 -0.8032 -0.6090
13182TIP3   OH260960   2.968   3.800  13.184  0.8976  0.0793 -0.6129
13182TIP3    H160961   2.979   3.806  13.279 -0.0760 -2.7938 -0.2081
13182TIP3    H260962   2.879   3.767  13.172  1.9168 -2.4259 -2.3020
13183TIP3   OH260963   5.172   5.512   2.581 -0.1159 -0.0946 -0.0598
13183TIP3    H160964   5.265   5.529   2.595 -0.0089  0.2673 -1.1490
13183TIP3    H260965   5.153   5.438   2.639  0.7653  0.0257  0.4132
13184TIP3   OH260966   6.082   2.587   2.992 -0.0300 -0.6421 -0.1987
13184TIP3    H160967   6.123   2.562   2.910 -1.4536  0.9832 -1.4785
13184TIP3    H260968   6.131   2.664   3.021 -1.6032  0.9060 -1.3960
13185TIP3   OH260969   6.498   2.381   0.201  0.2008 -0.3673 -0.5807
13185TIP3    H160970   6.406   2.358   0.207  0.0040  0.2975 -0.9191
13185TIP3    H260971   6.528   2.388   0.292  0.0817 -1.1934 -0.4733
13186TIP3   OH260972   3.061   4.210   4.284 -0.6310 -0.6164  0.0379
13186TIP3    H160973   2.999   4.275   4.251  0.0579  0.4270  0.7227
13186TIP3    H260974   3.036   4.128   4.241 -2.3340 -0.1855  0.1204
13187TIP3   OH260975   5.533   1.682  12.702  0.1753  0.1549 -0.0301
13187TIP3    H160976   5.463   1.650  12.760  0.2615  0.4306  0.2254
13187TIP3    H260977   5.520   1.633  12.621  0.4566 -0.7137  0.4389
13188TIP3   OH260978   5.936   1.910  11.039 -0.5738  0.8061  1.3062
13188TIP3    H160979   6.014   1.920  11.095 -0.4931  1.0934  1.1467
13188TIP3    H260980   5.939   1.986  10.981  0.1196 -0.2410 -0.0614
13189TIP3   OH260981   0.054   3.404   1.695  0.3374  0.4391  0.2489
13189TIP3    H160982  -0.004   3.478   1.674 -0.3506 -0.1649 -0.0063
13189TIP3    H260983   0.087   3.424   1.782 -0.4056  0.7069  0.4791
13190TIP3   OH260984   3.347   1.994  10.683 -0.0167  0.3614  1.2709
13190TIP3    H160985   3.434   1.958  10.666 -0.8432 -1.1065 -0.0918
13190TIP3    H260986   3.300   1.985  10.600 -1.6284  0.6995  2.0940
13191TIP3   OH260987   0.330   4.054  15.109  1.3402 -0.0954 -0.9750
13191TIP3    H160988   0.308   4.017  15.195  1.5959 -0.3009 -0.9965
13191TIP3    H260989   0.255   4.110  15.087  1.1587 -0.2416 -0.7343
13192TIP3   OH260990   1.645   4.123  15.156 -0.2712 -0.0017  0.4514
13192TIP3    H160991   1.683   4.211  15.155 -2.7051  1.1650  1.2081
13192TIP3    H260992   1.591   4.122  15.236 -1.0004 -1.8578 -0.0152
13193TIP3   OH260993   3.019   1.376  14.030  0.4131  0.2327 -0.0901
13193TIP3    H160994   2.979   1.443  14.086 -0.0226 -0.0408 -0.0693
13193TIP3    H260995   2.945   1.324  13.998  0.7534 -0.3036 -0.0189
13194TIP3   OH260996   3.777   5.276  14.821  0.3048  0.2757  0.1261
13194TIP3    H160997   3.709   5.312  14.764 -0.9527 -1.8811  0.1402
13194TIP3    H260998   3.849   5.338  14.815 -0.3661  0.9243 -2.5921
13195TIP3   OH260999   2.061   5.611   6.345 -0.4674 -0.0617  0.1388
13195TIP3    H161000   2.111   5.692   6.343 -1.0449  0.3781  1.7602
13195TIP3    H261001   2.110   5.554   6.405 -2.2409  0.6830  2.4500
13196TIP3   OH261002   4.498   3.612   1.404  0.3480  0.0581 -0.2023
13196TIP3    H161003   4.411   3.589   1.369 -0.8230 -0.5662  2.7950
13196TIP3    H261004   4.535   3.672   1.339 -0.7947 -2.3300 -3.3292
13197TIP3   OH261005   6.697   3.849  11.318 -0.0197 -0.5549 -0.0477
13197TIP3    H161006   6.624   3.905  11.343  0.3913 -0.3263  0.6841
13197TIP3    H261007   6.738   3.893  11.244  0.5897  0.3709  0.8222
13198TIP3   OH261008   5.512   0.636   4.318 -0.4011  0.0130 -0.4026
13198TIP3    H161009   5.510   0.732   4.314  1.7665  0.0736 -1.3881
13198TIP3    H261010   5.541   0.609   4.231 -0.0800 -1.4928  0.1527
13199TIP3   OH261011   1.448   6.182   1.850 -0.5401  0.6534 -0.4867
13199TIP3    H161012   1.447   6.086   1.850  2.2047  0.5499 -0.4741
13199TIP3    H261013   1.410   6.206   1.765  0.1481 -0.5043 -1.1499
13200TIP3   OH261014   0.871   6.714  11.207  0.0240  0.1588 -0.2918
13200TIP3    H161015   0.802   6.663  11.167  1.7217 -0.2991 -2.8326
13200TIP3    H261016   0.857   6.803  11.175  0.1895  0.2077 -0.2307
13201TIP3   OH261017   2.125   6.002   5.555 -0.6210  0.1455  0.3762
13201TIP3    H161018   2.083   5.929   5.600  1.6426 -0.3082  1.8713
13201TIP3    H261019   2.136   5.971   5.465  0.1996 -1.3442  0.9609
13202TIP3   OH261020   4.908   3.992  16.639  0.0619  0.4459  0.5269
13202TIP3    H161021   4.827   3.950  16.609  0.8994  0.6198 -2.3350
13202TIP3    H261022   4.880   4.078  16.672 -0.9922  0.2447  0.1965
13203TIP3   OH261023   3.259   1.018  11.417  0.1981  0.2806 -0.3885
13203TIP3    H161024   3.347   1.036  11.449  0.5215  1.7120 -1.9710
13203TIP3    H261025   3.269   1.005  11.323 -1.2351  0.0273 -0.5372
13204TIP3   OH261026   5.120   4.736  16.822 -0.1468  0.4286  0.4098
13204TIP3    H161027   5.132   4.667  16.756 -1.6342  0.8408 -0.3364
13204TIP3    H261028   5.197   4.792  16.812  0.1106 -0.0406 -0.3331
13205TIP3   OH261029   0.864   5.340  11.317 -0.1384 -0.2957  0.0933
13205TIP3    H161030   0.825   5.394  11.248 -0.0112 -0.6094 -0.2298
13205TIP3    H261031   0.791   5.320  11.376 -0.0874  0.6137  0.4765
13206TIP3   OH261032   0.160   3.302   1.019  0.0612  0.0695  0.1514
13206TIP3    H161033   0.238   3.353   0.997  1.0192 -0.8860  1.1923
13206TIP3    H261034   0.119   3.350   1.090  0.1869  0.1182  0.1918
13207TIP3   OH261035   0.154   4.511  15.469  0.0340 -0.3101  0.1023
13207TIP3    H161036   0.168   4.540  15.379 -1.1517  0.4125  0.1310
13207TIP3    H261037   0.161   4.416  15.465  0.1259 -0.2742 -0.7270
13208TIP3   OH261038   0.515   2.672   0.271  0.1161 -0.0578 -0.2878
13208TIP3    H161039   0.447   2.739   0.271  1.8760  1.8573  1.6477
13208TIP3    H261040   0.529   2.652   0.179 -0.7771  1.9353 -0.9060
13209TIP3   OH261041   3.031   3.844  13.448 -0.4159  0.2500 -0.0057
13209TIP3    H161042   3.122   3.874  13.448 -0.0017 -0.9370  0.5306
13209TIP3    H261043   3.038   3.748  13.453 -1.6990  0.1557  0.1619
13210TIP3   OH261044   1.347   3.187   1.780 -0.3478 -0.2138  0.3450
13210TIP3    H161045   1.424   3.146   1.817 -0.1484  0.5995  0.8645
13210TIP3    H261046   1.284   3.190   1.853 -1.1257 -1.4757 -0.2495
13211TIP3   OH261047   1.304   1.297   2.160 -0.4919  0.0754  0.7925
13211TIP3    H161048   1.261   1.239   2.223 -2.0595  2.6683  2.3019
13211TIP3    H261049   1.382   1.328   2.206  1.6031 -2.3116 -0.8308
13212TIP3   OH261050   3.946   5.725   0.841 -0.2030  0.8721 -0.2037
13212TIP3    H161051   3.889   5.707   0.915 -0.2326  0.0796 -0.4186
13212TIP3    H261052   3.948   5.644   0.791  0.6689  1.0641 -0.5003
13213TIP3   OH261053   2.448   3.568   3.482  0.3689  0.5026  0.2069
13213TIP3    H161054   2.456   3.529   3.569 -1.2603  1.3943  0.8205
13213TIP3    H261055   2.356   3.594   3.477  0.4842  0.6608 -1.7178
13214TIP3   OH261056   1.668   2.685   0.973  0.4577  0.1619  0.3573
13214TIP3    H161057   1.723   2.720   0.903 -0.7814 -1.0036 -1.2748
13214TIP3    H261058   1.665   2.591   0.956  0.5036 -0.2201  2.2878
13215TIP3   OH261059   5.535   2.077   1.056  0.4261  0.0437 -0.4301
13215TIP3    H161060   5.510   2.043   0.970  0.5953 -1.2255 -0.0016
13215TIP3    H261061   5.453   2.083   1.104  0.0482  2.5394 -1.2232
13216TIP3   OH261062   2.418   3.161  15.141 -0.3409  0.5973  0.0311
13216TIP3    H161063   2.417   3.195  15.230 -1.2829 -0.6012  0.5163
13216TIP3    H261064   2.326   3.143  15.121 -0.1304  0.7385 -1.1401
13217TIP3   OH261065   2.913   3.107   3.045  0.5321 -0.5609 -0.3870
13217TIP3    H161066   2.850   3.110   2.972 -0.1951  1.6542  0.2551
13217TIP3    H261067   2.858   3.101   3.123  1.2599 -1.3185  0.0783
13218TIP3   OH261068   3.894   5.812   2.269  0.1607  0.5930 -0.5514
13218TIP3    H161069   3.984   5.779   2.280 -0.4346 -0.6122  1.0933
13218TIP3    H261070   3.884   5.877   2.338  0.1178  1.5792 -1.4637
13219TIP3   OH261071   6.009   2.281   4.666 -0.5853 -0.4299 -0.5423
13219TIP3    H161072   6.063   2.355   4.695  1.1905 -1.0033 -2.1368
13219TIP3    H261073   5.969   2.247   4.746 -1.1142  1.9535  0.2876
13220TIP3   OH261074   2.257   0.791  14.774  0.4169  0.0670  0.3525
13220TIP3    H161075   2.296   0.831  14.696  1.0781 -1.1145  0.0446
13220TIP3    H261076   2.201   0.722  14.740 -1.6004  1.3910  0.8299
13221TIP3   OH261077   3.470   6.287  16.882  0.3104 -0.0291  0.4568
13221TIP3    H161078   3.492   6.284  16.789  0.9957 -2.1560  0.6259
13221TIP3    H261079   3.551   6.316  16.925 -0.7380  3.6110  0.2934
13222TIP3   OH261080   0.826   5.622   5.182  0.4775  0.3803  0.3196
13222TIP3    H161081   0.753   5.654   5.235  1.3252  0.7159  1.3147
13222TIP3    H261082   0.878   5.570   5.243  0.0528 -1.5266 -0.8399
13223TIP3   OH261083   2.396   1.487   2.096  0.8169  0.5768  0.5351
13223TIP3    H161084   2.334   1.531   2.153  0.1505  1.2467 -0.6805
13223TIP3    H261085   2.344   1.423   2.048  1.0877  0.9797 -0.3253
13224TIP3   OH261086   1.743   0.189  15.973  0.0791 -0.1839 -0.8106
13224TIP3    H161087   1.671   0.195  16.036 -0.5401  1.6932 -1.6185
13224TIP3    H261088   1.810   0.138  16.018 -1.0961 -0.5361  0.6186
13225TIP3   OH261089   2.845   0.792   1.681 -0.1332  0.2270  0.6594
13225TIP3    H161090   2.912   0.859   1.670 -2.0034  1.9579 -1.0737
13225TIP3    H261091   2.786   0.805   1.608 -1.7377 -2.0105  1.4386
13226TIP3   OH261092   2.198   4.645   0.640  0.1323 -0.3325  0.1665
13226TIP3    H161093   2.278   4.696   0.654  0.1224  0.2320 -1.6188
13226TIP3    H261094   2.175   4.661   0.549 -0.6701 -2.4244 -0.0467
13227TIP3   OH261095   0.629   1.850   2.305 -0.3743 -0.1290  0.3119
13227TIP3    H161096   0.626   1.832   2.211  0.8931  0.4228  0.1416
13227TIP3    H261097   0.710   1.899   2.317 -0.4987 -0.2291  1.7081
13228TIP3   OH261098   3.940   5.370  11.209  0.1562 -0.2433 -0.1115
13228TIP3    H161099   4.023   5.345  11.249  0.0453  0.0170  0.2772
13228TIP3    H261100   3.925   5.460  11.236 -0.6927 -0.5734  0.5643
13229TIP3   OH261101   2.997   4.299   0.231 -0.4898 -0.5626 -0.0550
13229TIP3    H161102   2.976   4.388   0.260  1.5213 -0.0490 -0.0848
13229TIP3    H261103   2.960   4.293   0.143 -0.9043  0.1153  0.0645
13230TIP3   OH261104   0.196   1.569   0.255  0.5442  0.5948  0.6216
13230TIP3    H161105   0.181   1.651   0.303 -1.2273 -0.1013  1.3367
13230TIP3    H261106   0.200   1.502   0.322 -0.8660 -0.2564 -0.0930
13231TIP3   OH261107   5.670   3.648  11.172 -0.5358 -0.6664 -0.0880
13231TIP3    H161108   5.746   3.675  11.225 -1.8314 -0.2971  1.6638
13231TIP3    H261109   5.641   3.729  11.129 -1.1823 -0.3487  0.9151
13232TIP3   OH261110   6.399   0.166  11.574 -0.0662 -0.1294 -0.8386
13232TIP3    H161111   6.465   0.198  11.513  0.9815  1.8058  1.1577
13232TIP3    H261112   6.416   0.072  11.580  1.0259 -0.0379 -2.0963
13233TIP3   OH261113   3.824   6.170  15.298  0.0952 -0.3228 -0.0958
13233TIP3    H161114   3.848   6.168  15.391 -1.1844  0.7008  0.2773
13233TIP3    H261115   3.730   6.154  15.297  0.3742 -2.2596 -1.3834
13234TIP3   OH261116   1.415   4.261   2.245 -0.1393  0.2236 -0.0937
13234TIP3    H161117   1.422   4.337   2.188 -1.5074  1.1000  0.8515
13234TIP3    H261118   1.341   4.211   2.211  0.0430 -0.0802 -0.0449
13235TIP3   OH261119   5.819   3.907  16.623  0.1886  0.1711 -0.2999
13235TIP3    H161120   5.897   3.897  16.568 -0.1860  0.8752 -0.9789
13235TIP3    H261121   5.846   3.968  16.692  1.3748 -2.4630  1.7408
13236TIP3   OH261122   0.959   6.006  15.034  0.5344  0.6913 -0.0311
13236TIP3    H161123   0.865   6.026  15.027  0.6762  1.0345 -1.2876
13236TIP3    H261124   1.002   6.076  14.985  1.4759  0.6623  0.7240
13237TIP3   OH261125   3.658   3.837  16.088  0.1564  0.2447 -0.5086
13237TIP3    H161126   3.639   3.917  16.137 -1.7995 -0.3823 -0.1689
13237TIP3    H261127   3.621   3.852  16.001 -1.8941 -0.9096  0.0932
13238TIP3   OH261128   4.285   1.737  13.970 -0.1237  0.3987 -0.1930
13238TIP3    H161129   4.336   1.750  13.890 -1.2730 -0.1801 -1.0490
13238TIP3    H261130   4.280   1.824  14.010 -0.4455  0.9285 -1.3351
13239TIP3   OH261131   1.867   1.241   4.828  0.2755 -0.1858 -0.0330
13239TIP3    H161132   1.787   1.291   4.844  0.8524  1.1152 -1.0470
13239TIP3    H261133   1.921   1.298   4.773  1.8128 -1.1142  0.4289
13240TIP3   OH261134   6.068   5.463   4.757 -0.5788 -0.0679  0.1127
13240TIP3    H161135   6.079   5.369   4.740 -1.2367  0.0238 -0.8954
13240TIP3    H261136   5.973   5.475   4.763 -0.4805  0.4653  0.6855
13241TIP3   OH261137   4.927   5.133   0.524 -0.1773  0.1747  0.0726
13241TIP3    H161138   4.899   5.179   0.445 -1.8615  0.2645  0.6916
13241TIP3    H261139   4.934   5.201   0.591 -0.1557 -0.0943  0.3494
13242TIP3   OH261140   2.595   5.226  14.131  0.8832  0.0551  0.5680
13242TIP3    H161141   2.679   5.269  14.116  1.2757  1.3084  4.9328
13242TIP3    H261142   2.607   5.137  14.098  3.2631  0.7448 -0.5773
13243TIP3   OH261143   3.081   3.228  15.709  0.2342  0.1268 -0.2836
13243TIP3    H161144   3.167   3.251  15.673  0.8782 -0.6321  0.7141
13243TIP3    H261145   3.028   3.206  15.632  0.7379  1.2019 -0.9573
13244TIP3   OH261146   1.871   6.655  13.489  0.2155 -0.4420  0.4747
13244TIP3    H161147   1.790   6.701  13.515 -0.4454 -2.0672  1.4234
13244TIP3    H261148   1.939   6.722  13.494 -1.1867  1.2054 -1.2089
13245TIP3   OH261149   2.792   6.165  12.357  0.7855 -0.1339  0.1291
13245TIP3    H161150   2.770   6.083  12.401  3.0025 -0.0899  1.4472
13245TIP3    H261151   2.787   6.232  12.426 -0.1171  0.7301 -0.7314
13246TIP3   OH261152   1.301   4.620   1.054 -0.3139 -0.2094 -0.0501
13246TIP3    H161153   1.252   4.638   0.975  0.0366  2.7193  0.2708
13246TIP3    H261154   1.265   4.680   1.119  2.8009  1.2774  0.5052
13247TIP3   OH261155   3.491   3.840  11.789  0.6398  0.4259 -0.3297
13247TIP3    H161156   3.549   3.859  11.715  1.4578  1.1079  0.4594
13247TIP3    H261157   3.407   3.878  11.764  0.8928  0.5973 -0.9355
13248TIP3   OH261158   4.000   6.718   4.561 -0.4143  0.2835 -0.0418
13248TIP3    H161159   4.095   6.720   4.570 -0.3065 -0.2582 -0.9198
13248TIP3    H261160   3.983   6.752   4.473 -1.1391  1.7968  0.6573
13249TIP3   OH261161   2.723   1.524  15.009 -0.0160 -0.2072  0.0366
13249TIP3    H161162   2.739   1.566  15.094  0.8992 -2.5251  1.0854
13249TIP3    H261163   2.803   1.474  14.992 -0.9206 -1.2381 -1.3034
13250TIP3   OH261164   0.980   4.415  11.979  0.2789 -0.4079 -0.0257
13250TIP3    H161165   0.992   4.405  11.884 -1.3334 -0.5194 -0.2552
13250TIP3    H261166   0.937   4.334  12.006  3.0683 -1.5829  1.3379
13251TIP3   OH261167   1.758   3.853   3.879  0.3571  0.1000 -0.1503
13251TIP3    H161168   1.820   3.823   3.812 -1.3330 -1.4777 -1.0838
13251TIP3    H261169   1.722   3.773   3.916 -0.1029  0.9843  1.3912
13252TIP3   OH261170   0.963   4.691   1.463 -0.4131  0.7121 -0.2476
13252TIP3    H161171   0.963   4.765   1.524 -2.2127  1.6691 -1.2995
13252TIP3    H261172   1.012   4.722   1.387  0.7437 -0.0187  0.1805
13253TIP3   OH261173   1.923   4.140  13.168 -0.3180 -0.1603 -0.7342
13253TIP3    H161174   1.831   4.123  13.186 -0.1403 -1.0175 -0.5930
13253TIP3    H261175   1.922   4.207  13.099 -1.0266  0.5977 -0.0044
13254TIP3   OH261176   5.060   2.173  13.362  0.1270 -0.0944  0.3966
13254TIP3    H161177   5.104   2.108  13.417  0.4886 -1.3130 -1.2710
13254TIP3    H261178   4.967   2.164  13.385 -0.2079 -3.1623 -1.6269
13255TIP3   OH261179   0.119   6.353   2.059 -0.7514 -0.6633 -0.0559
13255TIP3    H161180   0.196   6.349   2.003 -1.0094 -0.0176 -0.4578
13255TIP3    H261181   0.110   6.263   2.093 -0.6654 -1.0941 -1.1401
13256TIP3   OH261182   0.689   0.701   2.341  0.5880 -0.1909  0.1549
13256TIP3    H161183   0.703   0.785   2.298 -3.2813  0.6445  0.1616
13256TIP3    H261184   0.669   0.640   2.270 -0.6647 -0.0662  0.3809
13257TIP3   OH261185   0.415   0.262   6.492 -0.0192 -0.2312 -0.5946
13257TIP3    H161186   0.349   0.222   6.549 -0.5125 -0.2069 -1.1420
13257TIP3    H261187   0.493   0.207   6.502 -0.0452 -0.1293  0.2269
13258TIP3   OH261188   3.471   2.806   4.077  0.2619  0.0377  0.1788
13258TIP3    H161189   3.514   2.728   4.042 -0.9338 -0.2001 -0.7946
13258TIP3    H261190   3.379   2.781   4.086 -0.2263  1.4594 -0.5804
13259TIP3   OH261191   3.733   4.149  16.579 -0.9504 -0.0579  0.7012
13259TIP3    H161192   3.710   4.232  16.537 -0.7359 -0.1619  0.3679
13259TIP3    H261193   3.649   4.108  16.598 -1.1213  1.0620  2.6112
13260TIP3   OH261194   5.803   5.698  12.216  0.5194  0.7041 -0.3988
13260TIP3    H161195   5.819   5.604  12.223  4.1118  1.1926 -0.3977
13260TIP3    H261196   5.873   5.738  12.267 -1.3172  3.4456  0.2001
13261TIP3   OH261197   5.619   5.539  12.794 -0.1076  0.9557  0.2446
13261TIP3    H161198   5.524   5.538  12.781  0.0159  0.8629 -0.7081
13261TIP3    H261199   5.643   5.447  12.802 -0.1762  1.0079  1.1772
13262TIP3   OH261200   3.193   1.955  14.206  0.5488 -0.2465  0.6027
13262TIP3    H161201   3.129   1.884  14.195  0.5903 -0.0747 -0.9471
13262TIP3    H261202   3.186   1.979  14.299  0.4673 -2.1945  1.1328
13263TIP3   OH261203   4.690   3.835   4.866  0.1869  0.1432 -0.1882
13263TIP3    H161204   4.679   3.886   4.786  3.2720  1.8812  0.3275
13263TIP3    H261205   4.641   3.883   4.932  0.0319  0.3660 -0.4651
13264TIP3   OH261206   1.885   6.673  16.434  0.2319 -0.0920 -0.2127
13264TIP3    H161207   1.800   6.711  16.459  0.6618 -0.1339  1.4269
13264TIP3    H261208   1.895   6.695  16.342 -1.2595  0.4978 -0.2594
13265TIP3   OH261209   3.246   2.156  13.736  0.0881  0.2907 -0.0482
13265TIP3    H161210   3.333   2.158  13.695  0.3066  1.3702  0.4322
13265TIP3    H261211   3.240   2.070  13.776  1.3093  0.5230  0.6804
13266TIP3   OH261212   5.748   2.143  15.626 -0.8509 -0.0279  0.1656
13266TIP3    H161213   5.821   2.194  15.592 -2.4457  1.5315 -1.1973
13266TIP3    H261214   5.766   2.053  15.600 -0.0315  0.5283 -1.3241
13267TIP3   OH261215   5.170   5.199  14.358  0.0814  0.2525  0.6492
13267TIP3    H161216   5.172   5.180  14.451  0.1462  0.6709  0.7368
13267TIP3    H261217   5.136   5.288  14.352 -1.5707 -0.3803  0.1649
13268TIP3   OH261218   4.776   2.410  11.903  0.0146 -0.2261 -0.1983
13268TIP3    H161219   4.726   2.330  11.888  2.7408 -1.7070 -2.4796
13268TIP3    H261220   4.712   2.480  11.902 -2.4938 -2.2898  1.7379
13269TIP3   OH261221   5.210   2.334  13.537  0.1041  0.1557 -0.1580
13269TIP3    H161222   5.167   2.279  13.472  0.0501 -0.6104  0.5100
13269TIP3    H261223   5.280   2.279  13.573  0.7811  0.9205 -0.2865
13270TIP3   OH261224   3.938   2.856  14.869 -0.0253 -0.1335  0.6856
13270TIP3    H161225   3.999   2.894  14.806  0.1799  2.2058  2.1942
13270TIP3    H261226   3.877   2.805  14.815 -0.2918  2.3185 -1.5176
13271TIP3   OH261227   5.830   3.419  12.981  0.3143 -0.0901 -0.1990
13271TIP3    H161228   5.772   3.464  13.043 -1.2807 -1.5553 -0.5400
13271TIP3    H261229   5.835   3.479  12.906  0.7478  0.8581  0.5587
13272TIP3   OH261230   0.459   4.788   4.690  0.2712  0.3104 -0.3467
13272TIP3    H161231   0.470   4.694   4.686  1.1886  0.4090 -0.2944
13272TIP3    H261232   0.366   4.802   4.671 -0.1135 -0.6694  0.6445
13273TIP3   OH261233   6.713   2.912  16.943 -0.0309  0.1588  0.1366
13273TIP3    H161234   6.734   2.965  16.866  0.3610  2.5254  1.7629
13273TIP3    H261235   6.618   2.898  16.937 -0.7339  3.5169  0.9648
13274TIP3   OH261236   3.919   6.223  15.692 -0.3168  0.0317  0.0703
13274TIP3    H161237   4.000   6.207  15.741 -0.3800  1.2800  0.6175
13274TIP3    H261238   3.908   6.145  15.638  1.7719  0.2301 -0.7289
13275TIP3   OH261239   4.420   2.533   4.110  0.1859  0.1246  0.2205
13275TIP3    H161240   4.346   2.566   4.162 -0.7044 -0.3521 -0.7259
13275TIP3    H261241   4.382   2.465   4.054  0.9411  1.2095 -1.6904
13276TIP3   OH261242   4.902   2.803  12.134 -0.0046 -0.0005 -0.7024
13276TIP3    H161243   4.953   2.735  12.090  0.2564 -1.6421  1.8878
13276TIP3    H261244   4.936   2.885  12.100  0.3573 -1.1250 -3.2317
13277TIP3   OH261245   0.092   0.063  13.636  0.7028  0.1603  0.4608
13277TIP3    H161246   0.023   0.004  13.667  1.4383 -0.9130  0.1538
13277TIP3    H261247   0.155   0.065  13.708  1.2734 -0.4438 -0.0057
13278TIP3   OH261248   0.887   4.638   3.122 -0.3067 -0.3518 -0.3024
13278TIP3    H161249   0.861   4.709   3.180 -0.5725 -1.1101  0.5270
13278TIP3    H261250   0.808   4.586   3.110  0.1029 -1.0206 -0.1576
13279TIP3   OH261251   0.539   5.210  11.926 -0.1518  0.4269 -0.2954
13279TIP3    H161252   0.515   5.132  11.876 -1.8862  1.2519 -0.8311
13279TIP3    H261253   0.605   5.254  11.872 -1.1229  0.6854 -1.3205
13280TIP3   OH261254   3.039   5.674   4.646 -0.1749 -0.6304 -0.3576
13280TIP3    H161255   3.087   5.745   4.689 -0.4821 -0.5821 -0.0959
13280TIP3    H261256   2.947   5.697   4.657 -0.2573 -0.0633 -1.9594
13281TIP3   OH261257   1.228   5.097  17.075 -0.7044  0.2387 -0.0419
13281TIP3    H161258   1.146   5.125  17.033 -0.6916  1.9513  0.9516
13281TIP3    H261259   1.296   5.130  17.017 -0.7081  0.9410  0.3437
13282TIP3   OH261260   5.972   5.693  10.939 -0.3964  0.1443  0.1224
13282TIP3    H161261   6.042   5.691  10.874 -0.4914 -0.5204  0.0364
13282TIP3    H261262   5.922   5.614  10.923 -0.5091  0.0470  0.9123
13283TIP3   OH261263   5.214   1.220  12.332  0.3351 -0.2481  0.1269
13283TIP3    H161264   5.284   1.196  12.393  0.2841  1.2276  0.8108
13283TIP3    H261265   5.151   1.149  12.339  2.1796 -2.1444 -1.2467
13284TIP3   OH261266   5.330   1.281   0.941  0.1073  0.1157  0.1177
13284TIP3    H161267   5.310   1.188   0.941 -1.1046  0.3126 -2.0602
13284TIP3    H261268   5.381   1.295   0.862 -2.2891  1.7000 -1.2970
13285TIP3   OH261269   1.119   0.067   3.854 -0.4852 -0.3492 -0.2308
13285TIP3    H161270   1.214   0.054   3.857 -0.1733  1.8343  1.1773
13285TIP3    H261271   1.098   0.113   3.934 -2.7832 -0.7692 -0.5124
13286TIP3   OH261272   4.904   4.708  16.395  0.1015  0.0115 -0.0860
13286TIP3    H161273   4.963   4.677  16.326  0.6118  0.9040 -0.0719
13286TIP3    H261274   4.816   4.684  16.365  0.4891 -2.1655  0.3160
13287TIP3   OH261275   1.443   1.633  16.982  0.5172  0.5478  0.1008
13287TIP3    H161276   1.379   1.562  16.991 -0.1342  1.2698  1.4994
13287TIP3    H261277   1.443   1.677  17.067  0.7398  2.3575 -0.7757
13288TIP3   OH261278   4.215   5.089  14.240 -0.3232 -0.1088 -0.2042
13288TIP3    H161279   4.306   5.120  14.248 -0.3286  0.0038 -0.5458
13288TIP3    H261280   4.162   5.168  14.250 -0.5340 -0.5166  2.6916
13289TIP3   OH261281   1.246   6.777   5.968 -0.3595 -0.2711  0.3164
13289TIP3    H161282   1.284   6.689   5.976 -1.7175 -0.8309  0.7673
13289TIP3    H261283   1.320   6.832   5.943  0.6792 -1.4004  0.7974
13290TIP3   OH261284   3.008   0.907   5.965 -0.1164  0.4392  0.0943
13290TIP3    H161285   2.970   0.892   6.052 -0.0473  1.1910  0.2655
13290TIP3    H261286   2.934   0.932   5.911 -0.2632 -0.6785 -0.2384
13291TIP3   OH261287   1.814   0.985   0.631 -0.5701 -0.3672  0.1369
13291TIP3    H161288   1.855   1.060   0.589 -2.8362  2.6025  2.7728
13291TIP3    H261289   1.829   0.997   0.724 -1.1233 -3.1845  0.6967
13292TIP3   OH261290   2.564   1.704  14.211  0.8622  0.2387 -0.1352
13292TIP3    H161291   2.559   1.631  14.273  0.8107  0.5254  0.1934
13292TIP3    H261292   2.519   1.776  14.254 -0.5767  0.0014 -1.1307
13293TIP3   OH261293   3.770   4.361   2.850  0.1503 -0.1337 -0.5708
13293TIP3    H161294   3.808   4.277   2.872  0.1013 -0.4633 -1.6723
13293TIP3    H261295   3.685   4.362   2.895  0.8148  0.0055  0.7209
13294TIP3   OH261296   6.718   3.774  13.716  0.1033  0.3407  0.2597
13294TIP3    H161297   6.628   3.769  13.747  0.1251  1.0673  0.4547
13294TIP3    H261298   6.770   3.784  13.796  0.0607  3.5838  0.0044
13295TIP3   OH261299   6.372   2.801  10.978 -0.3204 -0.7538  0.0249
13295TIP3    H161300   6.379   2.881  11.030 -1.4430 -0.5331 -0.1402
13295TIP3    H261301   6.434   2.813  10.906 -0.2216 -0.1855  0.1978
13296TIP3   OH261302   3.839   1.661  15.930 -0.0616 -0.4443 -0.4218
13296TIP3    H161303   3.892   1.598  15.882 -0.8020 -0.8664 -0.6976
13296TIP3    H261304   3.806   1.612  16.005 -0.5097 -0.3403 -0.5514
13297TIP3   OH261305   0.500   4.404  12.402 -0.0175  0.2635  0.0404
13297TIP3    H161306   0.552   4.484  12.410  2.7825 -1.4092 -0.0238
13297TIP3    H261307   0.519   4.355  12.482 -1.7442 -0.3181  0.1318
13298TIP3   OH261308   2.040   2.434   3.399  0.1551 -0.1754 -0.4395
13298TIP3    H161309   2.047   2.513   3.346 -0.5177 -0.7787 -1.4589
13298TIP3    H261310   1.969   2.453   3.461 -0.4985 -0.2359 -1.1578
13299TIP3   OH261311   5.036   4.691   1.891 -0.7844 -0.0725  0.0678
13299TIP3    H161312   4.957   4.731   1.926 -0.1987  0.2877  1.0199
13299TIP3    H261313   5.061   4.748   1.818 -2.5049 -1.3283 -1.5691
13300TIP3   OH261314   2.795   5.289  16.281  0.7998  0.0973  0.7925
13300TIP3    H161315   2.830   5.224  16.343  0.7186 -0.5859  0.1388
13300TIP3    H261316   2.764   5.360  16.336 -0.4039 -1.0242  1.6353
13301TIP3   OH261317   1.384   5.073  13.680  0.0497  0.3685  0.1306
13301TIP3    H161318   1.337   4.999  13.719 -0.6512  0.3421 -0.7463
13301TIP3    H261319   1.472   5.068  13.717  0.1435 -1.1678 -0.2653
13302TIP3   OH261320   6.398   6.405   4.624 -0.1344 -0.9164 -0.8746
13302TIP3    H161321   6.435   6.336   4.569  1.0529 -0.1508 -1.0878
13302TIP3    H261322   6.312   6.424   4.585  0.9394  0.0655 -2.9540
13303TIP3   OH261323   3.832   5.389  13.865 -0.1373  0.4786  0.1788
13303TIP3    H161324   3.775   5.322  13.827 -0.6851  0.3488  1.1923
13303TIP3    H261325   3.839   5.456  13.797  0.6394 -0.7183 -0.9643
13304TIP3   OH261326   6.565   1.847   3.251 -0.3981  0.0556 -0.2963
13304TIP3    H161327   6.560   1.762   3.206 -0.3696 -1.0145  1.5968
13304TIP3    H261328   6.489   1.848   3.309 -0.3373  1.2995 -0.2201
13305TIP3   OH261329   2.816   0.780  17.043  0.8022  0.6206  0.2539
13305TIP3    H161330   2.895   0.803  17.091  0.2972  0.8468  0.9794
13305TIP3    H261331   2.809   0.684  17.051  2.1758  0.3033 -1.6501
13306TIP3   OH261332   2.660   5.520  14.059 -0.2504  0.4398  0.1507
13306TIP3    H161333   2.653   5.464  13.982 -0.8095 -1.3328  1.4317
13306TIP3    H261334   2.573   5.559  14.068 -0.6457 -0.5515  0.7355
13307TIP3   OH261335   4.154   1.532  12.662  0.2416  0.3652 -0.0487
13307TIP3    H161336   4.156   1.504  12.753  0.9934 -0.9285 -0.4437
13307TIP3    H261337   4.231   1.589  12.653  0.5164 -0.0047 -0.0313
13308TIP3   OH261338   0.040   1.606   3.040 -0.5528 -0.0202 -0.4519
13308TIP3    H161339  -0.028   1.617   2.973  0.1192 -0.6180 -1.2582
13308TIP3    H261340   0.090   1.687   3.037 -1.7675  0.8254  0.8106
13309TIP3   OH261341   1.427   0.296  10.252  0.1754  0.0358  0.9018
13309TIP3    H161342   1.474   0.357  10.308  1.2709 -1.6682  1.9570
13309TIP3    H261343   1.468   0.304  10.166 -0.6867  1.7814  0.6125
13310TIP3   OH261344   5.929   3.494   2.951  0.1397 -0.1186  0.9841
13310TIP3    H161345   5.949   3.587   2.942 -0.5690 -0.0628 -0.1587
13310TIP3    H261346   5.857   3.491   3.014  0.3165  0.0894  1.1976
13311TIP3   OH261347   1.364   5.931  12.610  0.0397 -0.3177  0.3055
13311TIP3    H161348   1.393   5.950  12.521 -1.3600  0.9152  0.0688
13311TIP3    H261349   1.272   5.904  12.600 -0.3309  0.4346  1.4119
13312TIP3   OH261350   5.205   2.175  16.961  0.3056 -0.0837  0.4959
13312TIP3    H161351   5.297   2.199  16.951 -0.4187  2.6562 -0.4724
13312TIP3    H261352   5.189   2.179  17.055  1.0596 -0.1340  0.6297
13313TIP3   OH261353   5.037   5.058   4.859 -0.1445 -0.0995  0.2116
13313TIP3    H161354   4.980   5.001   4.808 -0.3987  1.0903 -0.8541
13313TIP3    H261355   5.122   5.055   4.814  0.1990 -0.5864  0.8644
13314TIP3   OH261356   4.017   5.105   2.547  1.1496  0.5285  0.6022
13314TIP3    H161357   3.972   5.069   2.623  0.4836 -0.2746 -0.1507
13314TIP3    H261358   3.969   5.186   2.527 -1.4675 -1.3171 -1.4434
13315TIP3   OH261359   1.447   2.600   0.098 -0.0717  0.5115  0.4339
13315TIP3    H161360   1.396   2.557   0.167  0.4838 -0.9122 -0.0125
13315TIP3    H261361   1.435   2.693   0.115  0.2257  0.2203  2.5907
13316TIP3   OH261362   1.068   0.506  16.507  0.2548 -0.2654 -0.3306
13316TIP3    H161363   1.006   0.552  16.563  1.7939  0.4042  0.8953
13316TIP3    H261364   1.087   0.424  16.552 -0.5139 -0.9677 -1.2331
13317TIP3   OH261365   5.624   4.209   5.306 -0.1932  0.4987 -0.1074
13317TIP3    H161366   5.662   4.218   5.218  0.8549  1.0717  0.3934
13317TIP3    H261367   5.656   4.124   5.337 -0.3751  0.4031 -0.1739
13318TIP3   OH261368   6.365   6.006   3.366 -0.1121  0.2883 -0.5124
13318TIP3    H161369   6.292   5.950   3.392 -1.6837  2.0481 -0.8751
13318TIP3    H261370   6.439   5.947   3.355 -0.9928 -1.3520  1.6857
13319TIP3   OH261371   3.930   4.160  14.196 -0.2387 -0.0046 -0.0818
13319TIP3    H161372   3.922   4.137  14.289  1.6641  0.1562  0.1600
13319TIP3    H261373   3.858   4.222  14.181 -0.1355  0.5530  1.4759
13320TIP3   OH261374   6.772   2.363  16.794  0.2647  0.0198 -0.2008
13320TIP3    H161375   6.861   2.378  16.825  0.1065 -0.4938  0.5262
13320TIP3    H261376   6.755   2.435  16.734  1.0155  0.3559 -0.0201
13321TIP3   OH261377   1.289   3.968   0.758 -0.1190  0.3353  0.5524
13321TIP3    H161378   1.219   4.023   0.792  1.5316  0.9576  3.2782
13321TIP3    H261379   1.278   3.884   0.802  0.9477  0.5233  1.2237
13322TIP3   OH261380   3.872   2.766   0.632  0.0436  0.3979 -0.3425
13322TIP3    H161381   3.868   2.844   0.687 -1.6641  0.6937 -0.8443
13322TIP3    H261382   3.841   2.695   0.689 -1.1441  0.6010 -0.7084
13323TIP3   OH261383   1.412   0.370  15.971  0.0943  0.1335 -0.7691
13323TIP3    H161384   1.467   0.374  15.893  1.2477 -0.5491 -0.0257
13323TIP3    H261385   1.474   0.355  16.043 -1.0084 -0.0090  0.1772
13324TIP3   OH261386   0.547   2.652   2.223 -0.2600  0.2895 -0.0778
13324TIP3    H161387   0.476   2.684   2.278 -0.2848  1.2740 -0.6378
13324TIP3    H261388   0.596   2.732   2.199  0.4944 -0.2643 -0.4242
13325TIP3   OH261389   1.177   0.468   4.254  0.5412 -0.4730  0.0735
13325TIP3    H161390   1.124   0.421   4.318  1.6871  0.1604  1.5390
13325TIP3    H261391   1.134   0.451   4.170 -0.3628 -2.2356  0.8455
13326TIP3   OH261392   5.342   4.113   0.891 -1.1158 -0.1168  0.2771
13326TIP3    H161393   5.415   4.084   0.835 -2.6495 -0.3028 -1.7392
13326TIP3    H261394   5.365   4.203   0.915 -0.8906  0.3696 -1.5924
13327TIP3   OH261395   2.005   2.293   1.880 -0.1781 -0.2524  0.3962
13327TIP3    H161396   1.935   2.344   1.840 -2.1103 -3.8564 -1.2014
13327TIP3    H261397   2.071   2.285   1.811 -0.9782 -1.8526 -0.2049
13328TIP3   OH261398   3.135   0.281  14.695  0.1475 -0.4690 -0.5475
13328TIP3    H161399   3.049   0.313  14.667  0.4299 -0.4495 -1.4543
13328TIP3    H261400   3.179   0.258  14.613  0.3462 -2.2021  0.0099
13329TIP3   OH261401   0.196   3.060   1.252 -0.0418 -0.1742  0.3778
13329TIP3    H161402   0.267   3.017   1.299  0.5177 -0.2736 -0.5309
13329TIP3    H261403   0.234   3.083   1.167 -0.4840  1.6511  0.6364
13330TIP3   OH261404   3.521   1.096  15.458 -0.9003  0.5134 -1.2778
13330TIP3    H161405   3.452   1.160  15.440 -1.1804  0.1246 -1.6164
13330TIP3    H261406   3.490   1.047  15.534 -0.0884  1.6224 -0.2089
13331TIP3   OH261407   3.250   4.109  11.947  0.6831 -0.3993 -0.7825
13331TIP3    H161408   3.205   4.193  11.935  2.3115  1.0422  2.2422
13331TIP3    H261409   3.250   4.070  11.859 -0.4252  2.5691 -2.2563
13332TIP3   OH261410   5.780   1.822   6.349 -0.1005 -0.1742  0.4744
13332TIP3    H161411   5.788   1.727   6.340 -0.4552 -0.4017  2.1905
13332TIP3    H261412   5.802   1.840   6.440 -0.1283  1.3966  0.2122
13333TIP3   OH261413   3.744   4.809   2.649 -0.0986  0.2545 -0.4592
13333TIP3    H161414   3.796   4.823   2.727 -1.9574 -0.2683  0.9468
13333TIP3    H261415   3.737   4.714   2.640 -0.6913  0.3091 -0.6803
13334TIP3   OH261416   4.856   6.383   3.889 -0.4451  0.0597 -0.0635
13334TIP3    H161417   4.834   6.319   3.957 -0.1053  0.5258  0.4887
13334TIP3    H261418   4.951   6.391   3.893 -0.3204 -0.5992 -1.2256
13335TIP3   OH261419   2.179   5.510   4.298  0.4372 -0.1127  0.8948
13335TIP3    H161420   2.154   5.588   4.347  0.1791 -0.1704  0.8555
13335TIP3    H261421   2.101   5.455   4.297  0.2632  0.1233 -0.0378
13336TIP3   OH261422   6.253   6.311   1.494 -0.7167 -0.3167 -0.1577
13336TIP3    H161423   6.261   6.349   1.407  1.3510  2.3775  1.0662
13336TIP3    H261424   6.196   6.372   1.542  1.7709  0.8573  1.5506
13337TIP3   OH261425   3.772   1.049   5.360 -0.4952  0.4567 -0.1240
13337TIP3    H161426   3.717   1.072   5.435 -0.0197 -2.2190  1.1923
13337TIP3    H261427   3.855   1.093   5.378  0.3015 -1.7068  2.1284
13338TIP3   OH261428   0.962   1.469  17.034  0.0283 -0.0707 -0.1044
13338TIP3    H161429   0.871   1.484  17.057  0.8750  0.6285  3.3844
13338TIP3    H261430   0.972   1.374  17.037 -0.9460 -0.3393 -2.6350
13339TIP3   OH261431   4.373   2.767  14.721  0.5289  1.0623  0.0567
13339TIP3    H161432   4.376   2.671  14.718  1.3046  1.0876 -1.9784
13339TIP3    H261433   4.431   2.790  14.794  0.6466 -0.0213  0.3263
13340TIP3   OH261434   3.166   4.173   0.857  0.1774 -0.2456  0.8739
13340TIP3    H161435   3.223   4.096   0.853 -0.3188 -0.6231  0.9677
13340TIP3    H261436   3.124   4.168   0.943 -1.5367 -1.1117  0.0535
13341TIP3   OH261437   0.759   0.696  11.118  0.3205 -0.2364  0.0172
13341TIP3    H161438   0.764   0.786  11.152 -0.8224 -0.0567 -0.2673
13341TIP3    H261439   0.689   0.655  11.167  0.5124 -0.8307 -0.1957
13342TIP3   OH261440   5.100   0.398  17.032  0.1357 -0.4766 -0.2648
13342TIP3    H161441   5.116   0.439  17.117 -0.8086 -1.7286  0.5743
13342TIP3    H261442   5.183   0.404  16.986  0.0427  2.3713 -0.2476
13343TIP3   OH261443   6.452   2.056  12.110  0.0309 -0.1694 -0.7410
13343TIP3    H161444   6.489   2.095  12.189 -2.0159 -0.0960  0.2343
13343TIP3    H261445   6.529   2.030  12.058  1.4236  1.0943  0.5867
13344TIP3   OH261446   3.554   2.661  14.728 -0.3179  0.5217 -0.2098
13344TIP3    H161447   3.645   2.655  14.699 -0.0308  1.6238  0.3879
13344TIP3    H261448   3.503   2.669  14.647  0.2215  0.9438 -0.5163
13345TIP3   OH261449   0.657   1.918   2.917  0.2896 -0.2454 -0.1000
13345TIP3    H161450   0.726   1.913   2.850  1.4591  0.2055  1.0096
13345TIP3    H261451   0.699   1.966   2.989 -1.3765  0.4927  0.4110
13346TIP3   OH261452   0.488   2.654  12.914 -0.1846 -0.1002  0.1571
13346TIP3    H161453   0.445   2.679  12.996  1.7317  2.6353  0.4856
13346TIP3    H261454   0.580   2.643  12.938 -0.0691 -2.4515 -1.1167
13347TIP3   OH261455   3.535   0.932  15.960  0.1070 -0.4534 -0.5904
13347TIP3    H161456   3.504   0.997  15.897  1.2978  0.7623  0.0353
13347TIP3    H261457   3.516   0.848  15.918 -4.2479  0.0829 -0.1597
13348TIP3   OH261458   3.395   2.595  15.378 -0.6283 -0.6494 -0.4778
13348TIP3    H161459   3.395   2.681  15.419  2.7129 -0.6651 -0.1256
13348TIP3    H261460   3.354   2.537  15.442 -0.9640  0.3101  0.1906
13349TIP3   OH261461   5.958   3.204  14.117  0.0333 -0.6608  0.6175
13349TIP3    H161462   5.954   3.294  14.086  0.6739 -0.4836  1.0300
13349TIP3    H261463   6.035   3.167  14.075  0.0905 -0.8418  0.8776
13350TIP3   OH261464   0.392   0.376   2.756 -0.0094  0.5750  0.6791
13350TIP3    H161465   0.424   0.346   2.841  1.0243  2.0532  0.8521
13350TIP3    H261466   0.455   0.341   2.693  0.0806  0.7362  0.6795
13351TIP3   OH261467   3.795   3.270  12.109  0.0902  0.2922 -0.6619
13351TIP3    H161468   3.814   3.196  12.166  0.3916  0.6540 -0.2911
13351TIP3    H261469   3.776   3.230  12.024  1.0762 -0.1676 -0.6825
13352TIP3   OH261470   3.199   5.787  14.302  0.5769  0.0829 -0.0526
13352TIP3    H161471   3.290   5.776  14.331  0.2973  0.3495  0.9469
13352TIP3    H261472   3.164   5.698  14.299  0.7448  0.0150 -0.0273
13353TIP3   OH261473   2.114   6.745   0.641 -0.0238  0.2138 -0.0734
13353TIP3    H161474   2.055   6.772   0.571 -1.3516  0.1883  1.0102
13353TIP3    H261475   2.194   6.719   0.595 -0.5761  0.9428 -1.5140
13354TIP3   OH261476   2.992   1.163  12.266  0.4478  0.1183 -1.0301
13354TIP3    H161477   2.905   1.161  12.304  1.1142  1.3946  0.6877
13354TIP3    H261478   3.043   1.101  12.319  0.6654 -0.4783 -1.8988
13355TIP3   OH261479   1.748   0.172  12.439  0.0484 -0.2025  0.4706
13355TIP3    H161480   1.660   0.204  12.418 -0.4950 -1.6186  0.4949
13355TIP3    H261481   1.744   0.151  12.533  0.3641 -0.4381  0.4325
13356TIP3   OH261482   3.867   1.039  11.508  0.0845 -0.0173  0.3985
13356TIP3    H161483   3.896   0.991  11.431 -1.0550 -0.9391  0.5186
13356TIP3    H261484   3.817   1.113  11.473 -0.7760 -0.6591  0.2323
13357TIP3   OH261485   0.390   4.686   1.435 -0.0613  0.0865  0.0940
13357TIP3    H161486   0.336   4.691   1.356 -2.2018 -0.2165  1.4616
13357TIP3    H261487   0.378   4.596   1.465 -0.9261  0.7384  1.8282
13358TIP3   OH261488   3.269   2.512  10.287  0.0237 -0.0800 -0.5880
13358TIP3    H161489   3.284   2.578  10.219 -0.2989 -0.9704 -1.5615
13358TIP3    H261490   3.193   2.462  10.255 -0.9286  0.2562  1.0414
13359TIP3   OH261491   6.223   5.999   2.971  0.2524  0.1699  0.0931
13359TIP3    H161492   6.226   5.912   2.932 -1.0128  0.7337 -1.3539
13359TIP3    H261493   6.172   5.987   3.052  1.1957 -0.6388  0.5895
13360TIP3   OH261494   4.929   5.093   1.606 -0.2547 -0.7833  0.0566
13360TIP3    H161495   4.957   5.178   1.641  2.1104 -1.2840 -0.4259
13360TIP3    H261496   4.889   5.113   1.522  1.1991 -0.1708 -0.5306
13361TIP3   OH261497   2.794   6.458   1.870 -0.2090  0.5163 -0.1385
13361TIP3    H161498   2.866   6.419   1.919  0.6850  1.0346 -0.9904
13361TIP3    H261499   2.733   6.489   1.936 -0.5018 -1.4651  0.5782
13362TIP3   OH261500   1.117   2.450  13.763  0.7766 -0.4515 -0.5683
13362TIP3    H161501   1.170   2.483  13.690 -0.6840 -0.4108 -1.6616
13362TIP3    H261502   1.120   2.521  13.828  0.8257  0.2046 -1.2655
13363TIP3   OH261503   0.510   4.592  13.489 -0.0895  0.6091 -0.0225
13363TIP3    H161504   0.572   4.665  13.492  0.4955  0.0870  1.0660
13363TIP3    H261505   0.429   4.631  13.457  0.3838  1.6112 -0.0398
13364TIP3   OH261506   1.807   0.806  13.173  0.4967 -0.2266 -0.2280
13364TIP3    H161507   1.791   0.735  13.110  0.8132 -0.2744 -0.2560
13364TIP3    H261508   1.814   0.884  13.118  0.3023 -0.1968 -0.2112
13365TIP3   OH261509   1.899   5.825   0.793 -0.4237  0.1010  0.0998
13365TIP3    H161510   1.834   5.786   0.734 -1.2166 -0.1876  1.1264
13365TIP3    H261511   1.911   5.759   0.861  1.2095  0.0251 -0.2345
13366TIP3   OH261512   6.645   1.196   4.496 -0.2652 -0.3675  0.6371
13366TIP3    H161513   6.740   1.194   4.508 -0.4120 -1.0404  1.9004
13366TIP3    H261514   6.632   1.177   4.403  0.8230 -0.8611  0.5715
13367TIP3   OH261515   3.916   3.289   4.229  0.4134  0.0216 -0.5139
13367TIP3    H161516   3.983   3.267   4.165 -0.5532  0.5600 -1.7589
13367TIP3    H261517   3.882   3.374   4.201 -0.4721 -0.0227  0.3391
13368TIP3   OH261518   0.302   6.231   0.051 -0.0327  0.5187 -0.0535
13368TIP3    H161519   0.247   6.214   0.127 -0.9963  1.8352 -0.4074
13368TIP3    H261520   0.261   6.183  -0.020 -0.2377  0.8125 -0.1357
13369TIP3   OH261521   5.636   3.241   3.542 -0.2592 -0.1686  0.1835
13369TIP3    H161522   5.559   3.227   3.486 -0.6951 -0.1329  0.7624
13369TIP3    H261523   5.697   3.172   3.515 -0.1384  0.3369 -0.8783
13370TIP3   OH261524   2.803   6.485   0.007  0.1913 -0.2589 -0.5441
13370TIP3    H161525   2.838   6.574   0.016 -0.1541 -0.2384  0.7569
13370TIP3    H261526   2.821   6.462  -0.084  1.6232  0.5850 -0.5197
13371TIP3   OH261527   2.328   1.913   0.181  0.3626  0.2347  0.1874
13371TIP3    H161528   2.354   2.002   0.207  0.2994  0.2059  0.3529
13371TIP3    H261529   2.407   1.861   0.191  0.3357  0.2218  0.3345
13372TIP3   OH261530   3.872   6.592   1.742  0.0725 -0.7431 -0.0498
13372TIP3    H161531   3.812   6.663   1.764  2.0094  1.5417 -1.5537
13372TIP3    H261532   3.944   6.602   1.805  0.5315 -1.1013 -0.5105
13373TIP3   OH261533   2.280   4.761   4.673 -0.4265 -0.0236 -0.1379
13373TIP3    H161534   2.271   4.670   4.647 -0.3796 -0.1341  0.2279
13373TIP3    H261535   2.213   4.774   4.740 -1.1366  0.5028 -0.9417
13374TIP3   OH261536   2.765   1.005  13.575 -0.3687  0.0110  0.2861
13374TIP3    H161537   2.816   1.050  13.507  0.0574 -1.4748 -0.4372
13374TIP3    H261538   2.819   0.929  13.597 -1.0975 -0.1966  1.3986
13375TIP3   OH261539   4.310   5.108  13.145  0.8094  0.6552 -0.2838
13375TIP3    H161540   4.242   5.042  13.160 -0.5003  1.9805 -0.1180
13375TIP3    H261541   4.392   5.065  13.171 -0.1448 -0.4915  0.9902
13376TIP3   OH261542   4.880   1.562  11.669  0.0151 -0.3442  0.0608
13376TIP3    H161543   4.936   1.633  11.636  0.3159 -0.0025  1.2562
13376TIP3    H261544   4.833   1.531  11.592 -0.7079  1.6828 -0.3885
13377TIP3   OH261545   0.263   0.641   1.184 -0.1452 -0.0391 -0.4583
13377TIP3    H161546   0.356   0.641   1.165 -0.3153  0.3296 -1.3645
13377TIP3    H261547   0.252   0.576   1.253  0.9253  0.6970  0.4280
13378TIP3   OH261548   5.806   5.231  14.655 -0.1643 -0.2967 -0.1786
13378TIP3    H161549   5.839   5.259  14.569 -0.1184 -1.2836 -0.4990
13378TIP3    H261550   5.885   5.215  14.706 -0.1111 -1.9251 -0.7042
13379TIP3   OH261551   3.163   5.896  12.933  0.1650 -0.1960  0.0822
13379TIP3    H161552   3.125   5.857  13.012  0.0716  0.7076  0.4898
13379TIP3    H261553   3.253   5.918  12.958  0.1089  0.1730 -0.0352
13380TIP3   OH261554   2.585   2.972  15.906 -0.1811 -0.2312  0.9080
13380TIP3    H161555   2.630   2.968  15.991  0.6658 -0.3478  0.4681
13380TIP3    H261556   2.492   2.969  15.928  0.0381 -1.2927  1.7760
13381TIP3   OH261557   3.671   5.530   4.759 -0.3739  0.2381 -0.0481
13381TIP3    H161558   3.681   5.589   4.834  2.4767 -0.5306  0.2945
13381TIP3    H261559   3.666   5.443   4.797 -0.9534 -0.0255 -0.6973
13382TIP3   OH261560   4.710   3.709   0.838 -0.0375  0.2740  0.3678
13382TIP3    H161561   4.797   3.674   0.818 -0.1303  0.6975 -0.8602
13382TIP3    H261562   4.660   3.634   0.870  0.1682 -0.4282 -0.9204
13383TIP3   OH261563   1.986   0.829  16.224 -0.0672 -0.7734 -0.0708
13383TIP3    H161564   2.017   0.797  16.309  1.1245 -1.2244 -0.6659
13383TIP3    H261565   2.037   0.908  16.208  1.3097 -1.8671 -1.3502
13384TIP3   OH261566   4.045   2.056  14.375  0.7892 -0.4910  0.2376
13384TIP3    H161567   3.961   2.015  14.354 -0.1866  1.0020  1.0738
13384TIP3    H261568   4.067   2.107  14.297  0.1721  0.2626  0.5405
13385TIP3   OH261569   3.736   6.532   3.048 -0.6526  0.4773 -0.3954
13385TIP3    H161570   3.643   6.513   3.036 -0.4157  0.0829 -1.8694
13385TIP3    H261571   3.763   6.570   2.965  1.0166 -1.6659 -0.9364
13386TIP3   OH261572   0.505   0.268  11.341 -0.1142 -0.0712  0.0405
13386TIP3    H161573   0.445   0.294  11.410 -0.7356  0.5515 -0.7083
13386TIP3    H261574   0.569   0.211  11.384 -0.4614  0.3306  1.1209
13387TIP3   OH261575   1.921   0.169   1.241  0.4773 -0.3616  0.2862
13387TIP3    H161576   1.929   0.074   1.249 -1.0263 -0.5340  0.0470
13387TIP3    H261577   2.011   0.201   1.249  1.0947 -1.8396 -0.2823
13388TIP3   OH261578   2.309   1.963  10.417  0.3609 -0.3741 -0.3413
13388TIP3    H161579   2.321   1.872  10.445  1.3960 -0.4246 -0.9061
13388TIP3    H261580   2.349   2.015  10.487  2.1740 -0.4693 -1.2636
13389TIP3   OH261581   6.475   0.837   0.866  0.3907 -0.0676  0.1620
13389TIP3    H161582   6.458   0.804   0.954 -0.4702  2.0556  0.8754
13389TIP3    H261583   6.565   0.810   0.846  1.7514  1.8935  2.9818
13390TIP3   OH261584   1.964   1.550   5.557 -0.2571  0.2036  0.5197
13390TIP3    H161585   1.873   1.533   5.535 -0.4855 -0.0969  1.6291
13390TIP3    H261586   1.982   1.636   5.519 -0.8321  0.0290 -0.1688
13391TIP3   OH261587   4.441   6.807  11.106  0.1837 -0.3921  0.0241
13391TIP3    H161588   4.442   6.875  11.038  1.6278  1.6466  1.9521
13391TIP3    H261589   4.518   6.754  11.087  1.2187  0.8368  0.6371
13392TIP3   OH261590   0.782   4.869   3.280 -0.1333 -0.1236  0.2199
13392TIP3    H161591   0.706   4.922   3.306  0.9387  1.1120  0.9080
13392TIP3    H261592   0.855   4.906   3.329  1.2259 -0.2848 -1.5935
13393TIP3   OH261593   5.326   1.338  16.918 -0.4958  0.2244 -0.6936
13393TIP3    H161594   5.300   1.277  16.987 -1.0495 -0.6933 -1.6814
13393TIP3    H261595   5.269   1.317  16.844  1.0186  0.1933 -1.9154
13394TIP3   OH261596   5.431   5.687   4.425 -0.1912  0.7526  0.1155
13394TIP3    H161597   5.423   5.593   4.436 -1.2465  0.3756 -2.9556
13394TIP3    H261598   5.470   5.718   4.507  1.1190 -2.4303  0.8119
13395TIP3   OH261599   6.689   4.925  16.374 -0.1656 -0.0762  0.1802
13395TIP3    H161600   6.661   4.920  16.282  0.0385 -0.0304  0.1168
13395TIP3    H261601   6.695   4.834  16.401  2.8114 -0.2598 -0.7655
13396TIP3   OH261602   2.458   5.220  12.932  0.2153  0.7829 -0.2382
13396TIP3    H161603   2.500   5.276  12.997  0.0471 -0.6851  1.2042
13396TIP3    H261604   2.519   5.148  12.918 -0.6627 -0.0136 -0.0942
13397TIP3   OH261605   3.773   6.439   5.435  0.0573 -0.6489  0.3114
13397TIP3    H161606   3.827   6.437   5.356 -2.8372  0.0947 -1.8609
13397TIP3    H261607   3.792   6.523   5.476  0.6948 -0.4992 -0.2836
13398TIP3   OH261608   0.919   0.852   1.446  0.7436 -0.4848  0.2254
13398TIP3    H161609   0.893   0.836   1.536  1.0821  0.4988  0.5164
13398TIP3    H261610   0.908   0.768   1.402  0.8615 -1.0488  1.2469
13399TIP3   OH261611   6.637   1.160   3.172  0.2988  0.2103  0.0813
13399TIP3    H161612   6.704   1.200   3.117 -0.4046  1.9351  0.3851
13399TIP3    H261613   6.645   1.206   3.256 -2.1403  1.4981 -0.3087
13400TIP3   OH261614   2.966   2.539   0.242 -0.6208  0.0525 -0.5122
13400TIP3    H161615   2.970   2.464   0.182 -1.3345  0.1347 -0.6719
13400TIP3    H261616   3.047   2.588   0.224  0.5128 -1.3527  0.5158
13401TIP3   OH261617   6.610   3.870  10.760 -0.0930 -0.3070 -0.0128
13401TIP3    H161618   6.655   3.888  10.678  1.1179 -0.5369  0.5830
13401TIP3    H261619   6.524   3.836  10.734 -0.3976  1.2522 -1.1653
13402TIP3   OH261620   2.329   6.728   3.416  0.1273  0.0853  0.5293
13402TIP3    H161621   2.279   6.759   3.492  2.6557 -1.0454  2.8796
13402TIP3    H261622   2.318   6.633   3.417 -0.0264  0.0814 -0.7159
13403TIP3   OH261623   4.281   4.105  16.175  0.2398  0.1375  0.2977
13403TIP3    H161624   4.217   4.170  16.206  0.7337  0.4134  0.7592
13403TIP3    H261625   4.333   4.084  16.253 -0.2491 -1.2175  0.2861
13404TIP3   OH261626   1.046   3.152  13.508  0.3034 -0.2346 -0.3052
13404TIP3    H161627   1.123   3.147  13.451  1.3057 -0.5980  1.0422
13404TIP3    H261628   0.978   3.190  13.452  1.2644 -0.5009 -1.7143
13405TIP3   OH261629   4.212   1.133  12.293  0.2248  0.0782  0.1080
13405TIP3    H161630   4.191   1.186  12.370  1.6488  1.9154 -0.6988
13405TIP3    H261631   4.246   1.051  12.328 -0.5776  0.2759  1.4064
13406TIP3   OH261632   4.754   1.580  11.167  0.0085  0.0604  0.2399
13406TIP3    H161633   4.794   1.665  11.150 -0.7429  0.3209 -0.2581
13406TIP3    H261634   4.782   1.525  11.093  2.7827 -0.9992  1.8877
13407TIP3   OH261635   3.286   0.538  10.690  0.5248 -0.4235 -0.0130
13407TIP3    H161636   3.249   0.490  10.764  1.5709 -0.7171  0.3359
13407TIP3    H261637   3.241   0.622  10.691  0.3970 -0.4899  0.8505
13408TIP3   OH261638   2.455   0.321  13.319  0.0951  0.1655  0.2766
13408TIP3    H161639   2.475   0.308  13.227  1.4122 -2.3621  0.8307
13408TIP3    H261640   2.379   0.265  13.335  0.3259  0.0209  0.8910
13409TIP3   OH261641   1.405   2.866  12.394 -0.2388 -0.6253 -0.1014
13409TIP3    H161642   1.456   2.937  12.356 -2.1592  0.3945 -0.8734
13409TIP3    H261643   1.462   2.830  12.462  1.4351  0.5436 -0.8195
13410TIP3   OH261644   5.816   4.223   0.426 -0.1106 -0.3436  0.2991
13410TIP3    H161645   5.910   4.219   0.404 -0.6591 -1.4909 -2.3307
13410TIP3    H261646   5.793   4.315   0.414  0.1396 -0.5247 -2.0363
13411TIP3   OH261647   4.399   3.741   3.012  0.4648 -0.0006  0.1968
13411TIP3    H161648   4.417   3.714   2.922 -0.1886  1.4099 -0.3818
13411TIP3    H261649   4.348   3.669   3.049  0.6546 -0.5510 -0.5916
13412TIP3   OH261650   4.428   4.985   0.536 -0.0723  0.6030 -0.3881
13412TIP3    H161651   4.494   4.944   0.481 -1.2380  1.1293 -2.2937
13412TIP3    H261652   4.390   5.054   0.480 -1.7694  0.7404  0.8522
13413TIP3   OH261653   1.975   6.130  12.547  0.4007 -0.2954  0.1179
13413TIP3    H161654   1.957   6.118  12.640  0.8055 -1.0082  0.1128
13413TIP3    H261655   1.897   6.173  12.512  0.3355  0.1734  0.8209
13414TIP3   OH261656   5.775   1.625   2.924  0.3847 -0.0212  0.7178
13414TIP3    H161657   5.737   1.711   2.943 -1.4565 -1.0007  1.7657
13414TIP3    H261658   5.820   1.636   2.840 -1.2163  1.5574  0.0025
13415TIP3   OH261659   1.260   5.788   4.756 -0.3660 -0.0129  0.1436
13415TIP3    H161660   1.258   5.815   4.847 -1.0410 -0.0526  0.1462
13415TIP3    H261661   1.342   5.739   4.747 -0.4900 -0.3540  0.8244
13416TIP3   OH261662   1.512   5.867  13.454  0.1924  0.0498  0.1375
13416TIP3    H161663   1.509   5.927  13.379 -1.3492 -0.6420 -0.3871
13416TIP3    H261664   1.522   5.780  13.415 -1.7250 -0.4311  0.6468
13417TIP3   OH261665   0.662   1.187  11.983 -0.0397  0.1829  0.0993
13417TIP3    H161666   0.676   1.164  12.074  0.5796  2.4834  0.6527
13417TIP3    H261667   0.624   1.275  11.986  2.6361  1.5583 -1.8468
13418TIP3   OH261668   2.903   4.595  10.406  0.3508  0.6444  0.3565
13418TIP3    H161669   2.909   4.580  10.500  0.1135  1.1011  0.4507
13418TIP3    H261670   2.910   4.690  10.397 -1.6830  0.8181  0.0978
13419TIP3   OH261671   5.829   5.724   1.904 -0.0252 -0.0800 -0.0590
13419TIP3    H161672   5.782   5.807   1.903  0.1499  0.2246  3.4690
13419TIP3    H261673   5.762   5.658   1.920  0.1530 -0.2225  0.1175
13420TIP3   OH261674   4.086   4.148   3.611  0.5483 -0.0440 -0.1476
13420TIP3    H161675   4.119   4.215   3.550 -0.5831 -1.9574 -3.1020
13420TIP3    H261676   4.151   4.078   3.607  0.1728 -0.4286  0.3789
13421TIP3   OH261677   5.810   1.334  13.035 -0.4177  0.5775 -0.2689
13421TIP3    H161678   5.861   1.254  13.017 -0.1956  0.6852 -0.1257
13421TIP3    H261679   5.756   1.310  13.110  1.0191  1.1388  1.0048
13422TIP3   OH261680   2.530   6.478  16.870  0.6970  0.0178 -0.6894
13422TIP3    H161681   2.462   6.466  16.804  0.5788 -0.7439 -0.4483
13422TIP3    H261682   2.601   6.421  16.842  1.5003  1.2831 -1.2709
13423TIP3   OH261683   0.519   2.114  11.267  0.1205 -0.5279  0.3903
13423TIP3    H161684   0.556   2.176  11.330  1.0035 -1.3455  0.6986
13423TIP3    H261685   0.589   2.051  11.252 -1.1227 -2.1224  0.9765
13424TIP3   OH261686   4.675   0.404   2.466  0.3274  0.2517 -0.6532
13424TIP3    H161687   4.764   0.393   2.499 -0.0684 -0.4804  0.2155
13424TIP3    H261688   4.618   0.386   2.541 -0.5539  1.1011 -1.0900
13425TIP3   OH261689   3.955   5.492  13.361 -0.0548  0.0119 -0.5002
13425TIP3    H161690   3.979   5.458  13.275 -1.7891 -0.9741 -0.6396
13425TIP3    H261691   3.974   5.586  13.356  2.2839 -0.4053 -1.0346
13426TIP3   OH261692   0.814   1.462   2.750 -0.4292 -0.3581 -0.0446
13426TIP3    H161693   0.738   1.509   2.783  0.4348  0.6667  0.5971
13426TIP3    H261694   0.818   1.382   2.802 -0.8834 -0.2637  0.1387
13427TIP3   OH261695   5.824   4.474  16.065  0.3096  0.4379  0.5514
13427TIP3    H161696   5.816   4.429  15.981  0.4581  2.2855 -0.5111
13427TIP3    H261697   5.790   4.411  16.129 -1.3378 -0.4428 -1.0734
13428TIP3   OH261698   1.916   1.030   1.262 -0.0809  0.1493 -0.0494
13428TIP3    H161699   1.885   0.951   1.305 -0.5153  0.2538 -0.1563
13428TIP3    H261700   1.835   1.077   1.238  0.1570  1.5612  1.7285
13429TIP3   OH261701   2.029   2.130  16.755 -0.0945  0.7728  0.0175
13429TIP3    H161702   1.940   2.099  16.740  0.3723 -1.8046  1.9177
13429TIP3    H261703   2.084   2.069  16.705  0.6766  3.3651 -2.6202
13430TIP3   OH261704   3.904   1.172  11.831 -0.4406  0.0061  0.1980
13430TIP3    H161705   3.884   1.260  11.865  1.8038  0.0326  1.6437
13430TIP3    H261706   3.999   1.170  11.825 -0.5411 -1.5089 -2.2733
13431TIP3   OH261707   0.965   2.788   5.450 -0.0107  0.5908 -0.3994
13431TIP3    H161708   1.037   2.851   5.446  0.7658  0.3257  4.0587
13431TIP3    H261709   0.893   2.836   5.489  0.4624 -0.9235  2.7004
13432TIP3   OH261710   2.298   0.935   2.240 -0.3815  0.4620  0.3820
13432TIP3    H161711   2.240   0.871   2.199  0.6091 -0.0256 -0.2832
13432TIP3    H261712   2.248   1.017   2.238 -2.1886 -0.4815  2.3888
13433TIP3   OH261713   6.768   5.035  15.365 -0.4630 -0.0661  0.3990
13433TIP3    H161714   6.704   4.974  15.329  0.3535 -0.9465  0.3881
13433TIP3    H261715   6.831   4.979  15.410  2.9390  0.2078 -3.4713
13434TIP3   OH261716   4.248   3.032   0.110 -0.2590 -0.5876  0.0473
13434TIP3    H161717   4.328   3.083   0.095  0.4414 -1.4987  0.6241
13434TIP3    H261718   4.183   3.073   0.053  0.8644 -0.4235 -1.1535
13435TIP3   OH261719   4.762   1.349   3.060 -0.1399  0.2326 -0.4234
13435TIP3    H161720   4.674   1.374   3.088 -0.3218 -1.9578  1.2623
13435TIP3    H261721   4.810   1.431   3.054 -1.4348  1.2419  1.8479
13436TIP3   OH261722   5.887   5.349  16.622 -0.4976  0.0763  0.1111
13436TIP3    H161723   5.974   5.345  16.662  0.3555 -0.2316 -1.6849
13436TIP3    H261724   5.838   5.278  16.665  0.0436  0.3934  1.2989
13437TIP3   OH261725   0.360   5.115  14.276  0.7416  0.6817 -0.2529
13437TIP3    H161726   0.359   5.046  14.210 -0.3900  1.1158 -0.7186
13437TIP3    H261727   0.327   5.192  14.231  1.9234  1.5294  0.2759
13438TIP3   OH261728   1.140   1.905   3.221  0.5894  0.3655  0.3149
13438TIP3    H161729   1.158   1.874   3.310 -0.9100 -1.4209  0.0657
13438TIP3    H261730   1.185   1.843   3.164  0.4576  0.7209 -0.1871
13439TIP3   OH261731   0.686   0.621   4.796 -0.7993  0.6341 -0.1001
13439TIP3    H161732   0.743   0.637   4.721 -0.2523  0.1884  0.2143
13439TIP3    H261733   0.720   0.541   4.836  0.9925  2.4855  2.5001
13440TIP3   OH261734   4.513   6.328   4.384  0.5331 -0.0738  0.1809
13440TIP3    H161735   4.432   6.377   4.379  0.0245 -0.7192  1.5689
13440TIP3    H261736   4.532   6.302   4.294 -0.7313  0.1849 -0.1665
13441TIP3   OH261737   0.060   1.026  13.728  0.0236  0.7509 -0.6970
13441TIP3    H161738  -0.015   1.085  13.734  0.7217  1.6277 -0.2989
13441TIP3    H261739   0.113   1.062  13.657  0.4403  0.5816 -0.4732
13442TIP3   OH261740   4.245   5.363   3.519  1.1176 -0.4465 -0.2294
13442TIP3    H161741   4.226   5.277   3.556  0.0818  0.0534  0.4305
13442TIP3    H261742   4.330   5.351   3.475  2.5446 -1.0498  2.4261
13443TIP3   OH261743   1.809   4.108  13.680 -0.4576 -0.0074  0.1701
13443TIP3    H161744   1.832   4.190  13.636 -1.8244 -0.8127 -2.2871
13443TIP3    H261745   1.891   4.059  13.684 -0.0404  0.6189 -0.3848
13444TIP3   OH261746   6.431   6.104  13.110  0.2179 -0.2967  0.0174
13444TIP3    H161747   6.349   6.067  13.078  1.0364 -1.5110 -0.7732
13444TIP3    H261748   6.416   6.118  13.204 -0.7455 -0.9163 -0.0309
13445TIP3   OH261749   6.778   2.037  16.381  0.7798 -0.0335 -0.1278
13445TIP3    H161750   6.798   2.014  16.290 -0.6647 -1.4682 -0.1312
13445TIP3    H261751   6.754   2.130  16.378  1.5625  0.1512 -1.0575
13446TIP3   OH261752   6.206   0.466   5.368 -0.8428 -0.3824 -0.0919
13446TIP3    H161753   6.179   0.392   5.314 -2.9089 -0.4503  0.9313
13446TIP3    H261754   6.295   0.443   5.396 -1.2130 -2.2278 -0.2633
13447TIP3   OH261755   4.044   3.651   0.430 -0.1251  0.2403 -0.3728
13447TIP3    H161756   4.135   3.627   0.414 -0.0718  0.2589 -0.1031
13447TIP3    H261757   4.019   3.703   0.354  0.0048  0.0020 -0.5795
13448TIP3   OH261758   3.866   1.011   2.245 -0.0874  0.0681  0.9731
13448TIP3    H161759   3.817   0.974   2.173  0.0932 -0.1853  0.9813
13448TIP3    H261760   3.809   1.000   2.321 -0.0760 -0.0970  0.9573
13449TIP3   OH261761   1.346   4.400  14.819  0.2528 -0.1051 -0.0854
13449TIP3    H161762   1.256   4.421  14.795  0.6878  3.1642  0.6838
13449TIP3    H261763   1.393   4.394  14.736 -0.1973  0.8166 -0.4151
13450TIP3   OH261764   0.275   5.430   1.011 -0.3394 -0.3954  0.3585
13450TIP3    H161765   0.186   5.395   1.010 -0.6140  0.3151 -0.7291
13450TIP3    H261766   0.330   5.354   0.992 -0.8181 -0.5869 -0.3158
13451TIP3   OH261767   2.518   3.290  12.442 -0.5412  0.2366  0.8604
13451TIP3    H161768   2.541   3.371  12.488  0.1200  0.9122 -0.5837
13451TIP3    H261769   2.428   3.303  12.414 -0.1877  0.8231 -0.0394
13452TIP3   OH261770   0.494   5.233  15.556  0.2126 -0.1510 -0.4954
13452TIP3    H161771   0.427   5.213  15.491 -0.2279  1.8311 -0.7345
13452TIP3    H261772   0.448   5.283  15.624  0.5524 -2.5172  1.6617
13453TIP3   OH261773   1.115   3.623  16.761  0.5801 -0.1658  0.4477
13453TIP3    H161774   1.079   3.639  16.674  0.5503 -0.5925  0.3811
13453TIP3    H261775   1.164   3.702  16.781 -0.5843  0.5346  0.6408
13454TIP3   OH261776   3.645   0.932  16.866 -0.3240 -0.2153  0.9590
13454TIP3    H161777   3.570   0.981  16.833  0.0207  0.9321  1.7854
13454TIP3    H261778   3.717   0.954  16.806 -0.2403  0.0940  1.1655
13455TIP3   OH261779   5.478   0.744  14.218  0.4011  0.0560  0.2758
13455TIP3    H161780   5.466   0.673  14.281 -1.0493 -0.2157 -0.2758
13455TIP3    H261781   5.399   0.797  14.225  1.0867  1.1584  0.0633
13456TIP3   OH261782   4.155   4.875  13.768  0.4886 -0.0304 -0.4405
13456TIP3    H161783   4.187   4.901  13.855 -0.0354 -0.7927 -0.0091
13456TIP3    H261784   4.181   4.948  13.711  1.0287  0.3868  0.3058
13457TIP3   OH261785   2.567   2.638   1.336 -0.6835 -0.2238 -0.6437
13457TIP3    H161786   2.565   2.700   1.409 -4.3483 -0.9454  0.0588
13457TIP3    H261787   2.594   2.690   1.260  1.2597  0.9848  0.7924
13458TIP3   OH261788   4.139   3.074   2.435  0.7888 -0.4629  0.2849
13458TIP3    H161789   4.074   3.142   2.418  1.8674  0.8012  1.0763
13458TIP3    H261790   4.159   3.037   2.349  1.1310  1.1190 -0.3462
13459TIP3   OH261791   0.208   6.625   3.341  0.8257 -0.0812 -0.1996
13459TIP3    H161792   0.274   6.610   3.409  1.4592  0.6659 -0.6209
13459TIP3    H261793   0.244   6.697   3.289 -1.1882  1.6819  0.6829
13460TIP3   OH261794   0.679   1.564  12.911 -0.4770  0.1355 -0.3007
13460TIP3    H161795   0.769   1.546  12.884 -0.3114 -0.5516  0.6366
13460TIP3    H261796   0.680   1.653  12.944 -0.2075  0.2288 -0.5620
13461TIP3   OH261797   0.956   1.268  12.571 -0.2974 -0.4630 -0.2202
13461TIP3    H161798   0.943   1.174  12.587  0.4128 -0.2033  2.3481
13461TIP3    H261799   1.041   1.273  12.528 -0.6515 -1.0378 -0.9996
13462TIP3   OH261800   6.023   5.789  12.355  0.5254  0.4380  0.3042
13462TIP3    H161801   6.006   5.874  12.395  1.7886  0.1122  1.5956
13462TIP3    H261802   6.111   5.765  12.384 -0.1534 -1.7544  0.7648
13463TIP3   OH261803   0.866   4.496  12.467 -0.1447 -0.5452  0.1909
13463TIP3    H161804   0.919   4.494  12.387 -1.0608  1.9970 -0.5678
13463TIP3    H261805   0.928   4.478  12.537  1.0424 -1.0387 -0.9409
13464TIP3   OH261806   5.931   3.706   1.753 -0.4775 -0.1713 -0.2120
13464TIP3    H161807   5.970   3.776   1.806 -3.1557  2.2960 -1.2168
13464TIP3    H261808   5.998   3.685   1.688  0.4381  1.4835  0.1212
13465TIP3   OH261809   5.448   4.603   5.242 -0.3681  0.2135 -0.2679
13465TIP3    H161810   5.403   4.531   5.287 -0.3361  0.7709  0.6597
13465TIP3    H261811   5.534   4.568   5.220 -0.3473 -0.0239  0.1953
13466TIP3   OH261812   1.648   1.014  11.717  0.1394  0.0587  0.0978
13466TIP3    H161813   1.657   1.019  11.812 -0.0846 -2.6876  0.3532
13466TIP3    H261814   1.737   1.005  11.685  0.1271 -0.6578  0.2356
13467TIP3   OH261815   3.874   6.007  14.604 -0.9052 -0.1223  0.2002
13467TIP3    H161816   3.850   5.927  14.651  2.5876 -0.4496  1.7586
13467TIP3    H261817   3.871   5.982  14.512 -2.4915 -1.1884  0.5031
13468TIP3   OH261818   3.857   3.798   5.922 -0.0268 -0.0932 -0.5597
13468TIP3    H161819   3.796   3.730   5.894 -0.6200  0.4414 -0.5877
13468TIP3    H261820   3.830   3.819   6.011  1.6740 -1.5877  0.3820
13469TIP3   OH261821   4.624   6.313   7.028  0.3185 -0.0840 -0.1274
13469TIP3    H161822   4.567   6.273   6.962  2.2525 -2.2576 -0.5715
13469TIP3    H261823   4.639   6.245   7.092  2.4725  0.3661 -0.0800
13470TIP3   OH261824   3.769   4.206   4.965 -0.2171  0.0083  0.0712
13470TIP3    H161825   3.794   4.121   4.930 -2.3279 -0.0486 -1.4787
13470TIP3    H261826   3.851   4.247   4.991  0.8911 -2.2492  0.3089
13471TIP3   OH261827   0.103   5.103   6.660 -0.0561  0.3275 -0.6634
13471TIP3    H161828   0.149   5.073   6.739  0.4180 -0.0472 -1.0800
13471TIP3    H261829   0.015   5.066   6.669  0.3509 -0.7322 -0.8869
13472TIP3   OH261830   5.166   1.504   4.849 -0.1270  0.0895 -0.1719
13472TIP3    H161831   5.079   1.510   4.887 -0.9360  1.3996 -2.0897
13472TIP3    H261832   5.225   1.540   4.915 -1.0785 -0.3763  0.9523
13473TIP3   OH261833   4.710   1.682   6.271  0.1359  0.0164 -0.0407
13473TIP3    H161834   4.679   1.594   6.296 -1.2399  0.8348  1.3365
13473TIP3    H261835   4.663   1.741   6.331  0.0790  1.7972 -1.7652
13474TIP3   OH261836   0.324   6.582   5.070  0.8991 -0.2146  0.3561
13474TIP3    H161837   0.413   6.616   5.063  1.2183 -0.9823  0.5449
13474TIP3    H261838   0.330   6.516   5.139  0.2167 -0.3919  0.2461
13475TIP3   OH261839   6.675   5.945   2.369  0.1851  0.9258  0.1627
13475TIP3    H161840   6.750   5.937   2.428  1.0217 -1.1666 -1.0457
13475TIP3    H261841   6.605   5.894   2.411  0.4585  0.2851 -0.1404
13476TIP3   OH261842   2.785   1.617   2.558  0.3488  0.5610 -1.0605
13476TIP3    H161843   2.792   1.543   2.619  2.2476  2.1121  0.7369
13476TIP3    H261844   2.702   1.602   2.512 -0.2231 -1.6955  0.5330
13477TIP3   OH261845   2.169   2.993   2.345  0.2914  0.3262  0.2113
13477TIP3    H161846   2.257   3.029   2.362 -0.0243  1.0924  0.2659
13477TIP3    H261847   2.175   2.902   2.374  0.7105  0.7167  1.4276
13478TIP3   OH261848   4.859   1.637  13.544  0.1821 -0.3208  0.5678
13478TIP3    H161849   4.775   1.611  13.507 -1.5430  0.8706  3.3045
13478TIP3    H261850   4.902   1.685  13.473 -1.4437 -0.9481 -0.9192
13479TIP3   OH261851   2.205   6.540  11.885  0.3082  0.2242 -0.1406
13479TIP3    H161852   2.182   6.546  11.793 -0.0827 -1.1386 -0.1519
13479TIP3    H261853   2.300   6.551  11.887  0.2279  1.1389 -0.5931
13480TIP3   OH261854   0.974   5.632   3.908  0.0460 -0.6505 -0.2245
13480TIP3    H161855   0.948   5.681   3.986 -0.5724  0.2780 -0.9923
13480TIP3    H261856   0.926   5.549   3.915 -1.5085  0.1697 -0.5268
13481TIP3   OH261857   6.117   4.243  14.453 -0.2097 -0.8305  0.1420
13481TIP3    H161858   6.182   4.175  14.473  1.8632  1.4129  1.6573
13481TIP3    H261859   6.145   4.279  14.369  0.6417  0.1885  0.8319
13482TIP3   OH261860   5.559   0.165   5.854  0.0302  0.3049  0.2324
13482TIP3    H161861   5.498   0.215   5.908 -2.6542 -2.5013  0.0692
13482TIP3    H261862   5.625   0.134   5.915 -1.6580 -0.8769  1.5479
13483TIP3   OH261863   3.070   6.247  13.086  0.4766  1.0463  0.1123
13483TIP3    H161864   3.156   6.289  13.088  0.4055  1.3099 -1.2770
13483TIP3    H261865   3.039   6.259  12.996 -1.1064  1.1325  0.6283
13484TIP3   OH261866   5.178   2.250  11.376 -0.1642 -0.2010  0.0732
13484TIP3    H161867   5.137   2.316  11.320  0.0896  0.1928  0.3491
13484TIP3    H261868   5.115   2.236  11.447 -2.2914 -3.4171 -2.1167
13485TIP3   OH261869   2.192   5.680   0.951  0.3618  0.0493  0.5124
13485TIP3    H161870   2.100   5.659   0.963 -0.3803  3.0978  0.8275
13485TIP3    H261871   2.239   5.606   0.990 -1.8833 -1.7871 -0.0779
13486TIP3   OH261872   3.450   2.441   6.461  0.2933  0.0504 -0.4363
13486TIP3    H161873   3.444   2.487   6.377  1.0845  0.0436 -0.5084
13486TIP3    H261874   3.517   2.374   6.447 -0.0724 -0.4134 -0.0054
13487TIP3   OH261875   4.714   5.284   3.794  0.3099 -0.4343 -0.1182
13487TIP3    H161876   4.692   5.365   3.839 -1.0717 -0.7090 -0.2633
13487TIP3    H261877   4.742   5.224   3.864  2.1238  0.3760 -0.0907
13488TIP3   OH261878   5.027   1.565  12.908 -0.5148  0.1638 -0.0011
13488TIP3    H161879   4.954   1.596  12.855 -0.1892  0.2212 -0.4225
13488TIP3    H261880   5.058   1.487  12.862  1.4884  1.7009 -1.4418
13489TIP3   OH261881   1.710   4.864   4.160 -0.1104  0.0165 -0.0338
13489TIP3    H161882   1.703   4.869   4.255 -0.5428 -0.8845 -0.0039
13489TIP3    H261883   1.626   4.895   4.127 -0.7804 -1.6540 -0.0221
13490TIP3   OH261884   5.241   1.334   3.699  0.2090  0.5565  0.3553
13490TIP3    H161885   5.210   1.351   3.610 -1.1148 -2.0239  0.2317
13490TIP3    H261886   5.164   1.351   3.755  0.3956  0.1393  0.7494
13491TIP3   OH261887   5.438   4.213  13.460  0.1289  0.1847  0.5561
13491TIP3    H161888   5.347   4.241  13.448 -0.8734 -2.8402  0.2560
13491TIP3    H261889   5.490   4.282  13.418 -2.1184  1.2227 -0.6884
13492TIP3   OH261890   3.427   4.344  13.657  0.1796 -0.1925 -0.4652
13492TIP3    H161891   3.409   4.409  13.589  0.0045 -0.0788 -0.3133
13492TIP3    H261892   3.347   4.341  13.709 -0.4100 -1.6985 -1.4123
13493TIP3   OH261893   0.149   2.250  12.899 -0.1760 -0.2561 -0.3175
13493TIP3    H161894   0.196   2.222  12.977 -0.4765  0.4366  0.1238
13493TIP3    H261895   0.144   2.346  12.907 -1.5065 -0.3068 -0.4407
13494TIP3   OH261896   0.638   3.612   0.299  0.3996  0.3696  0.2488
13494TIP3    H161897   0.660   3.702   0.321 -2.4658  1.3305 -0.4423
13494TIP3    H261898   0.567   3.619   0.235  0.2975 -2.3870 -0.0843
13495TIP3   OH261899   3.749   6.477   3.910 -0.5339  0.0116 -0.1413
13495TIP3    H161900   3.819   6.415   3.930 -0.8618  0.1700  1.7130
13495TIP3    H261901   3.769   6.554   3.964 -2.1044  0.0660  0.4182
13496TIP3   OH261902   5.904   3.490   3.978  0.0183  0.1477  0.0024
13496TIP3    H161903   5.878   3.490   3.886 -1.8446  0.5152  0.4945
13496TIP3    H261904   5.954   3.409   3.989  1.4634  0.7383 -1.6066
13497TIP3   OH261905   5.590   6.413  13.919 -0.0566 -0.2406 -0.6418
13497TIP3    H161906   5.651   6.423  13.992  3.1038 -0.6655 -2.9585
13497TIP3    H261907   5.570   6.503  13.892 -1.7123 -0.0673  0.9800
13498TIP3   OH261908   3.896   3.220  14.330 -0.2509  0.5833 -0.4017
13498TIP3    H161909   3.975   3.275  14.335  0.2366 -0.1544  0.2581
13498TIP3    H261910   3.889   3.196  14.238 -0.7992  2.2045 -0.8216
13499TIP3   OH261911   4.832   5.308   3.244 -0.2275  0.4109 -0.3108
13499TIP3    H161912   4.900   5.250   3.277 -0.4745  2.1496  3.8974
13499TIP3    H261913   4.871   5.395   3.245 -1.8488  1.1811  0.2300
13500TIP3   OH261914   6.445   5.126   0.852  0.1314  0.1766  0.4161
13500TIP3    H161915   6.408   5.083   0.774  0.3101 -0.6977  0.7952
13500TIP3    H261916   6.369   5.152   0.903  0.0168  0.2913  0.1895
13501TIP3   OH261917   6.292   4.414  12.476 -0.5736 -0.0171 -0.0702
13501TIP3    H161918   6.334   4.382  12.397 -1.1861  0.2432 -0.5169
13501TIP3    H261919   6.278   4.508  12.459 -0.1721  0.1694  0.5911
13502TIP3   OH261920   2.185   3.179   3.776  0.1174 -0.3418 -0.2365
13502TIP3    H161921   2.188   3.101   3.831  0.3444 -0.7691 -0.8449
13502TIP3    H261922   2.277   3.200   3.760  0.1139  1.0161  1.2441
13503TIP3   OH261923   6.041   6.128   1.332 -0.0326  0.5822 -0.0611
13503TIP3    H161924   6.095   6.054   1.302 -0.1664 -0.2593  1.6205
13503TIP3    H261925   6.104   6.190   1.369 -0.0738  0.3241  0.4547
13504TIP3   OH261926   0.385   1.904   0.849  0.4924  0.5567  0.0645
13504TIP3    H161927   0.459   1.844   0.855 -1.2559 -1.7863 -0.3706
13504TIP3    H261928   0.317   1.854   0.803 -2.7605  1.1087  3.7589
13505TIP3   OH261929   3.556   3.639   0.590  0.0293  0.5859  0.2077
13505TIP3    H161930   3.572   3.586   0.668 -0.5840  0.7277  0.4410
13505TIP3    H261931   3.521   3.578   0.526 -1.0362  0.7584  0.6011
13506TIP3   OH261932   2.778   1.850   4.490  0.2843  0.3481 -0.3423
13506TIP3    H161933   2.828   1.898   4.556  3.8623 -1.6652 -1.3076
13506TIP3    H261934   2.799   1.893   4.408  0.2448 -0.4026 -0.7522
13507TIP3   OH261935   1.153   0.686  13.420 -0.1987  0.5855  0.2764
13507TIP3    H161936   1.131   0.719  13.333  0.2637  0.2279  0.0190
13507TIP3    H261937   1.094   0.612  13.433 -1.1088  1.3746  0.7784
13508TIP3   OH261938   0.184   6.239  14.989 -0.0892 -0.2695  0.5027
13508TIP3    H161939   0.251   6.223  14.922 -0.3636 -0.4975  0.2778
13508TIP3    H261940   0.233   6.251  15.070  0.3777  1.8988 -0.0398
13509TIP3   OH261941   1.838   5.497   1.573  0.1954  0.4923  0.4795
13509TIP3    H161942   1.852   5.507   1.479 -1.5749  0.9985  0.2329
13509TIP3    H261943   1.841   5.586   1.607 -1.4311  0.5614  0.5151
13510TIP3   OH261944   2.681   4.386  13.456 -0.0381 -0.0533 -0.0761
13510TIP3    H161945   2.769   4.402  13.421 -0.4625  0.4358 -0.9647
13510TIP3    H261946   2.640   4.330  13.390 -0.2606 -0.6147  0.5385
13511TIP3   OH261947   1.698   0.920   5.133  0.1682  0.1731 -0.3242
13511TIP3    H161948   1.767   0.893   5.194 -0.3870 -0.8337 -0.1271
13511TIP3    H261949   1.746   0.959   5.060  0.8764  0.7606  0.4280
13512TIP3   OH261950   0.181   1.149  14.542  0.1748 -0.3370  0.1466
13512TIP3    H161951   0.206   1.241  14.546 -0.4840 -0.1481  0.1944
13512TIP3    H261952   0.087   1.149  14.563  0.5226 -1.1946  1.9002
13513TIP3   OH261953   6.713   4.421   3.950  0.0954  0.3446  0.0403
13513TIP3    H161954   6.662   4.340   3.956  0.4422 -0.1494 -2.4595
13513TIP3    H261955   6.767   4.421   4.029  0.4142 -2.1318 -0.0756
13514TIP3   OH261956   3.696   2.605   2.648 -0.2989  0.3795 -0.3246
13514TIP3    H161957   3.775   2.558   2.622  0.6293  1.2906  0.7472
13514TIP3    H261958   3.718   2.697   2.637 -1.5139  0.6255 -0.8186
13515TIP3   OH261959   4.212   4.257  15.539  0.1778  0.6361 -0.1541
13515TIP3    H161960   4.174   4.339  15.506 -1.0184  1.0918  2.1473
13515TIP3    H261961   4.282   4.285  15.598 -0.1735  0.0143  0.5717
13516TIP3   OH261962   3.564   6.001   3.596 -0.1374 -0.6851 -0.5000
13516TIP3    H161963   3.581   5.907   3.594 -2.5416 -1.4072  3.1554
13516TIP3    H261964   3.630   6.036   3.655  0.4839 -0.0691 -1.5210
13517TIP3   OH261965   1.150   4.820   5.976 -0.7861  0.3149 -0.4414
13517TIP3    H161966   1.165   4.736   5.934 -2.0842  0.4465 -1.2060
13517TIP3    H261967   1.067   4.851   5.940 -1.1834  1.1367  1.1125
13518TIP3   OH261968   5.855   5.000  16.637 -0.1599 -0.1556 -0.5601
13518TIP3    H161969   5.770   4.999  16.682  0.5761  0.2782  0.8781
13518TIP3    H261970   5.832   5.016  16.545 -1.5199  2.4316  0.1234
13519TIP3   OH261971   3.216   1.314   5.000 -0.4123  0.3111 -0.1084
13519TIP3    H161972   3.161   1.387   5.029 -1.5370 -0.4688 -0.2327
13519TIP3    H261973   3.305   1.341   5.025 -0.6782  2.0936 -0.9063
13520TIP3   OH261974   6.283   0.644   0.629 -0.4642 -0.4459 -0.1705
13520TIP3    H161975   6.198   0.621   0.591 -1.7307  0.9892  1.5939
13520TIP3    H261976   6.288   0.739   0.620  0.2237 -0.3384  1.0950
13521TIP3   OH261977   5.978   0.568  15.408  0.4877 -0.6351  0.8683
13521TIP3    H161978   6.036   0.615  15.349  0.7816 -1.2446  0.6656
13521TIP3    H261979   5.995   0.606  15.494 -0.4454  0.7400  0.4783
13522TIP3   OH261980   3.156   1.918  14.872  0.0419 -0.0660  0.0301
13522TIP3    H161981   3.246   1.931  14.843  0.1849 -3.6500 -1.7207
13522TIP3    H261982   3.103   1.960  14.805  0.4489 -1.4683 -1.2168
13523TIP3   OH261983   4.715   3.760   0.258  0.3789 -0.1049 -0.0109
13523TIP3    H161984   4.724   3.680   0.310  0.4645 -0.2620 -0.2676
13523TIP3    H261985   4.663   3.734   0.182  2.1819 -0.4358 -1.1927
13524TIP3   OH261986   5.060   3.463  14.918  0.3434 -0.7819 -0.1655
13524TIP3    H161987   5.000   3.436  14.849  2.0742 -1.9715 -1.3100
13524TIP3    H261988   5.028   3.548  14.947 -0.0181  0.1357 -2.9985
13525TIP3   OH261989   3.305   0.027   4.639 -0.3978  0.0173  0.9210
13525TIP3    H161990   3.257   0.004   4.559 -0.5881  0.8910  0.7675
13525TIP3    H261991   3.352  -0.053   4.663 -0.8069 -0.4317  0.2703
13526TIP3   OH261992   3.935   1.722   3.569 -0.8221  0.2088  0.0715
13526TIP3    H161993   3.968   1.782   3.503  2.7507 -2.5098 -0.9123
13526TIP3    H261994   3.844   1.749   3.583 -0.4441  3.5866 -2.7068
13527TIP3   OH261995   2.544   1.300  16.292  0.0214  0.7461  0.2989
13527TIP3    H161996   2.575   1.238  16.226 -0.4196  0.8523 -0.0154
13527TIP3    H261997   2.565   1.259  16.376  3.2278  1.8537  0.1798
13528TIP3   OH261998   0.565   4.368  15.895  0.2284  0.1472  0.1189
13528TIP3    H161999   0.480   4.349  15.934  0.6738  0.4646  1.2951
13528TIP3    H262000   0.545   4.391  15.804 -1.0003  0.6915  0.5012
13529TIP3   OH262001   2.177   6.603   0.202  0.3126 -0.0255 -0.3005
13529TIP3    H162002   2.262   6.641   0.226  0.8862  0.1790 -2.4075
13529TIP3    H262003   2.194   6.509   0.197 -0.1719 -0.2255  1.3762
13530TIP3   OH262004   4.552   2.039  16.382  0.1978  0.1621 -0.5761
13530TIP3    H162005   4.486   2.016  16.317 -2.0901  0.0256  1.6203
13530TIP3    H262006   4.571   2.131  16.366 -1.6938  0.6243 -0.3633
13531TIP3   OH262007   3.296   1.022  13.374 -0.5206  0.1640  0.7242
13531TIP3    H162008   3.350   0.944  13.388 -0.5194 -0.1511 -0.7845
13531TIP3    H262009   3.216   0.988  13.332 -0.4507  0.9793 -0.0927
13532TIP3   OH262010   2.651   5.992   3.912  0.0223  0.4800 -0.6398
13532TIP3    H162011   2.687   6.045   3.840 -0.4654  1.7617  0.0232
13532TIP3    H262012   2.726   5.973   3.967 -0.1390  2.7285  0.4795
13533TIP3   OH262013   2.276   5.027   3.871 -0.1835  0.0266  0.0667
13533TIP3    H162014   2.236   5.103   3.829  1.4204  0.6371 -0.4495
13533TIP3    H262015   2.214   5.001   3.939 -0.0752  2.8276  1.3640
13534TIP3   OH262016   1.238   4.491   2.105 -0.1188 -0.0385  0.1452
13534TIP3    H162017   1.292   4.471   2.029 -1.4840 -0.6086 -0.7317
13534TIP3    H262018   1.151   4.457   2.082 -0.6487  0.0544  1.8355
13535TIP3   OH262019   3.143   0.302  16.482  0.0434 -0.2467  0.0511
13535TIP3    H162020   3.074   0.298  16.548  0.0486 -2.8583 -0.0024
13535TIP3    H262021   3.100   0.340  16.406 -1.0406 -0.7312  0.3930
13536TIP3   OH262022   1.646   5.637  16.166  0.3650  0.1788  0.5261
13536TIP3    H162023   1.649   5.617  16.073 -0.8171  0.8268  0.3273
13536TIP3    H262024   1.613   5.726  16.170  0.6053  0.2330  1.5664
13537TIP3   OH262025   2.129   0.374  14.380 -0.2774 -0.4598  0.3474
13537TIP3    H162026   2.176   0.294  14.405 -0.9579 -0.8409  0.4199
13537TIP3    H262027   2.198   0.436  14.356  0.2278 -1.2814 -0.3621
13538TIP3   OH262028   1.410   0.506   2.300 -0.1490  0.0665 -0.3898
13538TIP3    H162029   1.471   0.451   2.251 -1.1627 -3.3065  1.8237
13538TIP3    H262030   1.327   0.497   2.253 -0.1856  0.2571 -0.3636
13539TIP3   OH262031   6.505   4.056  11.391  0.2622 -0.1634  0.5155
13539TIP3    H162032   6.422   4.039  11.346  0.5080 -2.4427  0.7846
13539TIP3    H262033   6.491   4.139  11.437 -2.1049 -0.7814  1.0637
13540TIP3   OH262034   0.470   1.990   5.415  0.4904  0.1456  0.5583
13540TIP3    H162035   0.441   2.054   5.479  1.0814  1.4550 -0.4373
13540TIP3    H262036   0.565   1.983   5.430  1.0950  2.2346 -1.5813
13541TIP3   OH262037   0.491   5.741  13.748 -0.2583 -0.5482 -0.2794
13541TIP3    H162038   0.543   5.685  13.690 -2.3529 -0.9477 -1.8992
13541TIP3    H262039   0.541   5.822  13.754  0.5376 -0.8755 -1.8577
13542TIP3   OH262040   2.131   6.527   3.804  0.0202 -0.6495  0.0450
13542TIP3    H162041   2.182   6.581   3.744 -1.5525 -0.2980 -1.0414
13542TIP3    H262042   2.170   6.440   3.798  0.1195 -0.5280 -1.2284
13543TIP3   OH262043   2.417   4.871   1.754  0.4930  0.1066  0.2045
13543TIP3    H162044   2.492   4.929   1.741 -1.0862  1.9739 -1.0784
13543TIP3    H262045   2.389   4.886   1.844  1.1264  0.0216  0.4197
13544TIP3   OH262046   4.158   1.325   2.653 -0.4134  0.1297  0.0996
13544TIP3    H162047   4.108   1.323   2.571 -1.9808  1.5473  0.9682
13544TIP3    H262048   4.249   1.338   2.625 -0.3061 -3.2530 -1.5634
13545TIP3   OH262049   0.298   1.527   1.545  0.5834 -0.4197  0.0864
13545TIP3    H162050   0.250   1.548   1.625 -1.4159 -0.0631 -1.1284
13545TIP3    H262051   0.387   1.506   1.575  0.4708  1.6712  2.1931
13546TIP3   OH262052   0.278   5.658   5.381 -0.3819  0.2404 -0.0371
13546TIP3    H162053   0.215   5.631   5.447  0.6210  1.4588  1.4877
13546TIP3    H262054   0.224   5.685   5.306 -1.5181 -1.5899  0.0623
13547TIP3   OH262055   4.849   0.067   5.333 -0.1822  0.1737  0.4733
13547TIP3    H162056   4.797   0.147   5.336 -0.1905  0.1291  2.6917
13547TIP3    H262057   4.785  -0.002   5.317 -0.4098  0.4194  0.3089
13548TIP3   OH262058   0.057   6.039   5.513  0.0808 -0.2427 -0.8254
13548TIP3    H162059  -0.002   5.964   5.509  2.3853 -2.7140  3.9357
13548TIP3    H262060   0.139   6.008   5.476  0.8892  0.0414  0.6508
13549TIP3   OH262061   2.806   1.624   5.326  0.3513  0.0650 -0.0806
13549TIP3    H162062   2.832   1.667   5.245  3.8665 -1.9352 -0.2296
13549TIP3    H262063   2.736   1.564   5.301  0.2596  0.6496 -1.2890
13550TIP3   OH262064   3.153   1.085   4.329  0.2303 -0.6142  0.5236
13550TIP3    H162065   3.148   1.137   4.248  1.5732 -0.0806  0.7591
13550TIP3    H262066   3.125   1.145   4.398  1.1588 -0.3730  0.7106
13551TIP3   OH262067   0.303   1.179  12.555 -0.1114 -0.1605  0.5171
13551TIP3    H162068   0.379   1.232  12.530 -0.1247 -0.7160 -0.7894
13551TIP3    H262069   0.235   1.205  12.493 -0.1415 -1.6169 -0.1079
13552TIP3   OH262070   4.873   4.893   2.455 -0.0224  0.5923 -0.7659
13552TIP3    H162071   4.941   4.959   2.470  0.1214  0.5500 -1.2024
13552TIP3    H262072   4.809   4.937   2.398  0.7148 -0.0328 -2.1237
13553TIP3   OH262073   4.696   2.007  13.617  0.1155 -0.0819  0.2393
13553TIP3    H162074   4.779   2.024  13.662  0.2155 -2.5288  1.1647
13553TIP3    H262075   4.629   2.028  13.682 -0.0562  1.9819 -0.5383
13554TIP3   OH262076   4.294   5.877  17.006 -0.0397 -0.2580 -0.3199
13554TIP3    H162077   4.240   5.813  16.959  0.8431 -0.2098 -1.4319
13554TIP3    H262078   4.304   5.950  16.944  0.8929 -0.0589  0.0497
13555TIP3   OH262079   6.251   0.293  13.047 -0.8677  0.3011  0.6119
13555TIP3    H162080   6.294   0.254  12.971 -0.8577  1.0208  0.2447
13555TIP3    H262081   6.293   0.378  13.058 -0.9531  0.2550  1.3519
13556TIP3   OH262082   0.786   5.946   4.550  0.2082  0.1843  1.0190
13556TIP3    H162083   0.853   5.941   4.482 -0.0472 -0.7515  0.8244
13556TIP3    H262084   0.717   6.002   4.512 -0.1516 -0.7124  0.2964
13557TIP3   OH262085   6.227   0.490  15.009  0.0735 -0.1872  0.1148
13557TIP3    H162086   6.297   0.434  14.977 -1.5895 -1.4823 -1.4444
13557TIP3    H262087   6.246   0.502  15.102  1.2189 -2.1935  0.1834
13558TIP3   OH262088   3.747   0.240   6.423 -0.0173  0.0042 -0.3885
13558TIP3    H162089   3.686   0.184   6.375 -0.9230  2.5889 -2.5500
13558TIP3    H262090   3.820   0.254   6.362 -0.1720  1.6641 -0.2468
13559TIP3   OH262091   0.126   3.997  12.434 -0.4215  0.9080  0.3724
13559TIP3    H162092   0.187   4.070  12.445  1.1235  0.3852 -3.2467
13559TIP3    H262093   0.181   3.919  12.443 -1.1391  0.3383 -0.0955
13560TIP3   OH262094   3.683   4.929   4.961 -0.7400 -0.2310  0.5189
13560TIP3    H162095   3.706   4.975   5.042 -1.9491  0.1450  0.6601
13560TIP3    H262096   3.609   4.873   4.985 -1.1688 -0.0475 -0.3555
13561TIP3   OH262097   3.612   2.310   3.760 -0.0080 -0.3546 -0.0399
13561TIP3    H162098   3.655   2.374   3.703 -0.0542  1.7809  2.1865
13561TIP3    H262099   3.677   2.290   3.827 -0.5502 -1.4918  0.1642
13562TIP3   OH262100   1.628   1.135  15.680  0.1726  0.2602  0.1483
13562TIP3    H162101   1.636   1.043  15.656  0.9059  0.4288 -0.2576
13562TIP3    H262102   1.586   1.133  15.766  0.6997 -0.4784  0.4010
13563TIP3   OH262103   1.818   6.459  11.393  0.3488 -0.4549 -0.9296
13563TIP3    H162104   1.768   6.458  11.475  2.1087 -0.2873  0.1901
13563TIP3    H262105   1.787   6.537  11.347 -2.4504 -1.8477 -1.6551
13564TIP3   OH262106   1.553   5.180   3.083  0.2118  0.3180 -0.4607
13564TIP3    H162107   1.641   5.143   3.086  0.3033  0.4036 -1.5904
13564TIP3    H262108   1.498   5.109   3.051 -0.0670  0.3804 -0.1266
13565TIP3   OH262109   6.223   3.151   2.236  0.0564 -0.5086  0.2239
13565TIP3    H162110   6.305   3.136   2.189  1.0557  0.7969  1.4932
13565TIP3    H262111   6.233   3.237   2.277 -0.5736 -1.7208  3.1825
13566TIP3   OH262112   4.287   6.512  14.093 -0.1435  0.0524  0.1450
13566TIP3    H162113   4.219   6.578  14.107  0.9879  0.9202  1.8704
13566TIP3    H262114   4.330   6.538  14.011  0.1269  1.3172  0.6780
13567TIP3   OH262115   4.171   6.150  12.408  0.5444  0.3965 -0.5312
13567TIP3    H162116   4.076   6.155  12.394  0.1326  0.5067  1.8180
13567TIP3    H262117   4.205   6.229  12.366 -0.2474 -0.0792 -2.1806
13568TIP3   OH262118   4.687   3.737   5.706 -0.4233  0.5340  0.0951
13568TIP3    H162119   4.638   3.812   5.738  0.2946  0.7207  0.7916
13568TIP3    H262120   4.671   3.735   5.611 -1.3945  0.8500  0.2473
13569TIP3   OH262121   2.572   5.555   5.132 -0.3191  0.0860 -0.3031
13569TIP3    H162122   2.649   5.498   5.124 -0.3274  0.1128 -0.5845
13569TIP3    H262123   2.595   5.617   5.200 -0.6192 -0.7582  0.5953
13570TIP3   OH262124   1.303   5.412   3.723  0.5126  0.0830 -0.0880
13570TIP3    H162125   1.286   5.497   3.765  1.9913 -0.8256  2.4984
13570TIP3    H262126   1.216   5.380   3.699 -0.1990  1.6477  0.2750
13571TIP3   OH262127   3.174   3.024  11.083  0.4358  0.4174 -0.4747
13571TIP3    H162128   3.086   3.044  11.115  0.7804 -0.8589  1.4959
13571TIP3    H262129   3.171   2.931  11.060  1.6824 -0.1540  1.4176
13572TIP3   OH262130   3.497   0.460   5.589 -0.3047 -0.2854 -0.8879
13572TIP3    H162131   3.445   0.380   5.596 -1.5558  0.4722 -1.0387
13572TIP3    H262132   3.432   0.528   5.569  0.2361  1.3297  2.1700
13573TIP3   OH262133   5.881   0.273   4.436  0.3891 -0.0868  0.0846
13573TIP3    H162134   5.926   0.219   4.371  0.0715  1.1233 -1.2003
13573TIP3    H262135   5.944   0.341   4.458 -0.8744  2.0364 -2.2463
13574TIP3   OH262136   6.325   5.461  13.482  0.0239 -0.7297 -0.7700
13574TIP3    H162137   6.245   5.412  13.498  0.1721 -0.8100 -0.2598
13574TIP3    H262138   6.361   5.478  13.570 -0.7758  1.5382 -0.8202
13575TIP3   OH262139   5.888   3.488  16.343 -0.1027 -0.6484 -0.1692
13575TIP3    H162140   5.941   3.524  16.272 -1.4458  3.1322  0.4855
13575TIP3    H262141   5.942   3.496  16.421 -0.1275 -0.8223 -0.1333
13576TIP3   OH262142   6.769   1.368   3.331  0.4486 -0.3459 -0.3900
13576TIP3    H162143   6.806   1.337   3.248  1.8084  0.0761  0.0319
13576TIP3    H262144   6.826   1.440   3.357  1.4547 -1.8788  2.0099
13577TIP3   OH262145   6.427   2.632   2.651 -0.0115  0.4727 -0.0105
13577TIP3    H162146   6.457   2.626   2.560 -1.8200 -0.3535 -0.6081
13577TIP3    H262147   6.456   2.550   2.692 -1.7397 -0.5582 -0.7243
13578TIP3   OH262148   1.035   4.647   4.616 -0.1198  0.0427 -0.2373
13578TIP3    H162149   1.022   4.629   4.709 -1.9847  0.0529 -0.4567
13578TIP3    H262150   0.958   4.609   4.573  0.9372 -0.3947 -1.8460
13579TIP3   OH262151   5.246   5.637  15.286  0.4565  0.2086 -0.1832
13579TIP3    H162152   5.267   5.726  15.257 -0.4121 -0.5275 -3.3801
13579TIP3    H262153   5.150   5.632  15.284  0.4251 -0.4194  1.3384
13580TIP3   OH262154   1.403   6.252  14.601  0.3251  0.4996 -0.2556
13580TIP3    H162155   1.455   6.207  14.535 -0.2094 -0.3045 -0.1488
13580TIP3    H262156   1.430   6.213  14.684  2.6341  3.0403  0.3425
13581TIP3   OH262157   0.929   0.623   0.235  0.5380 -0.0435 -0.2447
13581TIP3    H162158   0.866   0.673   0.287  0.9460  2.7043 -2.1843
13581TIP3    H262159   0.877   0.583   0.166  0.5088 -0.4190 -0.0058
13582TIP3   OH262160   2.694   2.272  10.372 -0.0696  0.6975 -0.0661
13582TIP3    H162161   2.601   2.278  10.395 -0.7762 -0.0729 -2.4513
13582TIP3    H262162   2.738   2.327  10.437 -2.0924  0.5296  1.5450
13583TIP3   OH262163   3.657   6.395   5.050  0.2095 -0.6138  0.6623
13583TIP3    H162164   3.737   6.435   5.083 -0.4146 -0.2742  1.8504
13583TIP3    H262165   3.663   6.303   5.078 -0.5701 -0.2088  2.3478
13584TIP3   OH262166   3.815   3.202   1.893 -0.6549  0.2512 -0.0186
13584TIP3    H162167   3.879   3.270   1.871  0.0202 -0.2291  0.4265
13584TIP3    H262168   3.858   3.149   1.959 -1.7933  0.3228  0.8010
13585TIP3   OH262169   3.702   0.428   5.776 -0.1548  0.2561  0.0361
13585TIP3    H162170   3.690   0.333   5.766  0.2220  0.2133 -0.0082
13585TIP3    H262171   3.614   0.464   5.764 -0.1721 -0.0240 -0.7277
13586TIP3   OH262172   2.574   2.153  13.433  0.1800 -0.7032 -0.1263
13586TIP3    H162173   2.612   2.123  13.515 -0.1296 -0.1421  0.2273
13586TIP3    H262174   2.522   2.230  13.457  1.5162  0.5596 -1.0867
13587TIP3   OH262175   1.420   2.956   5.842  0.4124  0.3534 -0.5218
13587TIP3    H162176   1.484   2.929   5.776  2.1354 -0.9791  1.5535
13587TIP3    H262177   1.474   2.984   5.917 -1.4253  3.1719 -0.1075
13588TIP3   OH262178   2.150   4.542  12.289  0.1128  0.9974 -0.0607
13588TIP3    H162179   2.176   4.558  12.380  0.1370 -1.5268  0.4364
13588TIP3    H262180   2.060   4.575  12.284  0.2114  1.4160  0.7788
13589TIP3   OH262181   4.195   3.570  12.853 -0.4574 -0.2377 -0.0372
13589TIP3    H162182   4.116   3.622  12.868 -0.7745 -1.0231  1.1519
13589TIP3    H262183   4.235   3.560  12.939  0.8792  0.0144 -0.5895
13590TIP3   OH262184   5.537   3.117  10.640 -0.0320  0.0725 -0.4094
13590TIP3    H162185   5.468   3.094  10.578  0.7815 -0.0546 -1.2974
13590TIP3    H262186   5.613   3.065  10.612  0.5314  0.4866  0.3109
13591TIP3   OH262187   0.005   4.031  14.841  0.2730  0.5229  0.2435
13591TIP3    H162188   0.070   4.076  14.787  0.3175  0.1122 -0.0547
13591TIP3    H262189   0.056   3.969  14.894  0.3187  1.4839  1.3578
13592TIP3   OH262190   1.468   1.381   4.110 -0.4097  0.1665 -0.7973
13592TIP3    H162191   1.454   1.327   4.188 -0.2631 -1.5928 -1.9396
13592TIP3    H262192   1.387   1.431   4.100 -0.6971 -0.1113  0.0709
13593TIP3   OH262193   3.119   6.146   4.438  0.4051 -0.6136  0.1318
13593TIP3    H162194   3.101   6.073   4.379 -1.8044  0.0615 -0.1407
13593TIP3    H262195   3.040   6.152   4.493 -0.1547  2.3867 -0.8115
13594TIP3   OH262196   2.500   2.964   0.705 -0.4078  0.4211  0.1955
13594TIP3    H162197   2.494   2.868   0.700 -1.7904  0.5081  0.0134
13594TIP3    H262198   2.577   2.985   0.651 -0.8250 -0.4995 -0.7881
13595TIP3   OH262199   1.939   3.239   0.743  0.2464 -0.8260  0.0534
13595TIP3    H162200   1.857   3.265   0.785  0.6864 -1.9478  1.7017
13595TIP3    H262201   1.999   3.313   0.760 -0.2242 -0.2592 -0.6640
13596TIP3   OH262202   6.272   5.334   0.737  0.0123  0.7849  0.0188
13596TIP3    H162203   6.330   5.406   0.759 -0.4385  0.7394  1.4381
13596TIP3    H262204   6.300   5.307   0.649  2.6280  0.2707  0.9178
13597TIP3   OH262205   6.673   5.225  10.986 -0.4909  0.0583  0.3220
13597TIP3    H162206   6.647   5.311  11.019  1.0010  0.0088  1.7269
13597TIP3    H262207   6.605   5.166  11.017 -0.9545  0.5447  0.2633
13598TIP3   OH262208   5.547   4.448  13.304 -0.1454  0.8818 -0.2416
13598TIP3    H162209   5.620   4.447  13.242 -0.0233  2.8538 -0.2129
13598TIP3    H262210   5.555   4.532  13.349 -2.0605  0.8767  0.2153
13599TIP3   OH262211   2.001   4.250   3.806 -0.5239 -1.0976  0.1968
13599TIP3    H162212   2.005   4.195   3.885  0.3603  0.1952  1.0941
13599TIP3    H262213   2.082   4.231   3.759  0.2927  0.1380  1.0364
13600TIP3   OH262214   5.599   3.738  16.602  0.4552  0.3561  0.2831
13600TIP3    H162215   5.560   3.720  16.687  1.5791 -1.3899  0.4673
13600TIP3    H262216   5.671   3.798  16.620  1.2481 -0.7037  0.7067
13601TIP3   OH262217   0.073   5.399   3.986 -0.1661  0.0519 -0.5580
13601TIP3    H162218   0.020   5.463   3.938 -1.2154  0.1188  0.6402
13601TIP3    H262219   0.042   5.405   4.076  1.6831 -0.1445  0.1391
13602TIP3   OH262220   0.812   2.325   1.641 -0.6401 -0.1625  0.1476
13602TIP3    H162221   0.769   2.373   1.571  2.1058  0.6422 -1.0816
13602TIP3    H262222   0.816   2.387   1.714 -0.2183  0.2912 -0.2549
13603TIP3   OH262223   6.084   3.308   4.275  0.0415  0.3727 -0.1222
13603TIP3    H162224   6.004   3.254   4.277 -0.0972  0.5068 -1.3354
13603TIP3    H262225   6.105   3.316   4.182 -0.4563  3.1907 -0.0728
13604TIP3   OH262226   6.073   6.013   1.818  0.3733 -0.2600 -0.0814
13604TIP3    H162227   6.112   5.983   1.900  1.0221 -1.7027 -0.8821
13604TIP3    H262228   5.982   6.032   1.841  0.6096 -0.3761  1.0227
13605TIP3   OH262229   1.264   2.217  11.355 -1.1999  0.7775  0.3440
13605TIP3    H162230   1.216   2.300  11.350 -3.0234 -0.2191  0.5245
13605TIP3    H262231   1.205   2.153  11.314 -1.2195 -1.0108  2.9491
13606TIP3   OH262232   0.254   4.459   5.116 -0.0006 -0.9041 -0.7281
13606TIP3    H162233   0.161   4.475   5.130 -0.1652  0.2888 -2.7588
13606TIP3    H262234   0.258   4.413   5.032  1.2649 -0.0826 -1.1484
13607TIP3   OH262235   4.679   3.547  12.629  0.2481 -0.0417 -0.1990
13607TIP3    H162236   4.618   3.569  12.699  0.9062 -0.0491  0.3835
13607TIP3    H262237   4.671   3.452  12.619  1.1419 -0.2383  0.8093
13608TIP3   OH262238   1.543   3.373  14.613 -0.2596  0.8618 -0.2905
13608TIP3    H162239   1.634   3.404  14.622  0.3480 -0.9910  0.3912
13608TIP3    H262240   1.518   3.398  14.525  1.8893 -0.8782 -1.4983
13609TIP3   OH262241   1.581   1.340  16.039 -0.1722  0.2977  0.0317
13609TIP3    H162242   1.618   1.397  16.107  0.3663 -1.2120  1.0655
13609TIP3    H262243   1.601   1.384  15.957  2.3879  0.4687  0.6610
13610TIP3   OH262244   6.218   0.378   0.072  0.2241 -0.6826  0.5256
13610TIP3    H162245   6.259   0.437   0.135  0.4922  0.0517 -0.3030
13610TIP3    H262246   6.277   0.381  -0.004 -1.4646  0.6103 -0.8083
13611TIP3   OH262247   1.557   2.407   3.516  0.3910 -0.2817  0.0789
13611TIP3    H162248   1.552   2.497   3.482  0.9589 -0.2417  0.0928
13611TIP3    H262249   1.511   2.355   3.451  0.4554 -0.0405 -0.1659
13612TIP3   OH262250   2.414   3.196  14.694 -0.7795 -0.2674  0.3600
13612TIP3    H162251   2.328   3.236  14.675 -0.4266  0.9072  1.1282
13612TIP3    H262252   2.465   3.267  14.734  0.9268 -0.6233 -1.0588
13613TIP3   OH262253   5.036   3.350  11.158  0.0946 -0.2326  0.0633
13613TIP3    H162254   5.128   3.326  11.172  0.7736  2.1144  0.1321
13613TIP3    H262255   5.001   3.360  11.246 -0.1459 -0.8744  0.0376
13614TIP3   OH262256   3.627   2.550   0.569  0.0145 -0.7149  0.0712
13614TIP3    H162257   3.651   2.630   0.524 -1.4174  0.6899  1.6775
13614TIP3    H262258   3.657   2.562   0.659  0.2112 -2.2039  0.2343
13615TIP3   OH262259   2.656   2.987  11.242  0.1828  0.0577 -0.1846
13615TIP3    H162260   2.624   3.023  11.159 -0.7218 -0.1562  0.0625
13615TIP3    H262261   2.578   2.950  11.284  1.2459 -3.7207 -1.1663
13616TIP3   OH262262   2.403   5.353  13.601  0.0382 -0.2053 -0.6406
13616TIP3    H162263   2.486   5.338  13.557 -0.0483 -2.0720 -0.2296
13616TIP3    H262264   2.339   5.303  13.551 -0.6497  0.3131 -0.3035
13617TIP3   OH262265   0.609   5.703   6.223  0.8120  0.8212  0.4750
13617TIP3    H162266   0.649   5.779   6.265  1.3054  1.4295 -1.0436
13617TIP3    H262267   0.516   5.723   6.219  0.8485  1.0360  0.7013
13618TIP3   OH262268   4.642   3.986  15.389  0.3207 -0.1000  0.0752
13618TIP3    H162269   4.682   3.905  15.420  1.8728  0.3818 -0.5502
13618TIP3    H262270   4.708   4.053  15.408  0.3130  0.5710 -1.9938
13619TIP3   OH262271   5.374   6.073  15.579 -0.9975  0.0041  0.0062
13619TIP3    H162272   5.323   6.059  15.499 -2.0821  1.5038  0.3798
13619TIP3    H262273   5.451   6.018  15.568 -1.0910  0.1825 -2.0886
13620TIP3   OH262274   2.823   3.716   2.057  0.3588  0.0967  0.4358
13620TIP3    H162275   2.902   3.689   2.011  0.1886 -1.2976  0.9054
13620TIP3    H262276   2.848   3.717   2.150 -0.7705 -2.9940  0.8987
13621TIP3   OH262277   1.877   2.649  12.859  0.5941 -0.1687  0.6436
13621TIP3    H162278   1.897   2.625  12.949 -2.1503  0.9165  1.6469
13621TIP3    H262279   1.901   2.741  12.853 -1.8263  0.5477  1.2069
13622TIP3   OH262280   2.383   2.999  16.206 -0.4460  0.0364  0.3268
13622TIP3    H162281   2.315   2.984  16.272 -0.2775  1.7119  0.9268
13622TIP3    H262282   2.405   2.912  16.174 -2.1190 -0.6279  0.8811
13623TIP3   OH262283   5.066   5.986  13.104 -0.1888  0.0895  0.0767
13623TIP3    H162284   5.006   5.956  13.036  0.4381  0.5096 -0.6801
13623TIP3    H262285   5.115   5.908  13.129 -0.3960 -0.0581  0.0262
13624TIP3   OH262286   0.598   3.864   1.346 -0.0054 -0.0730 -0.3195
13624TIP3    H162287   0.647   3.933   1.302 -0.9205  0.8023 -0.0039
13624TIP3    H262288   0.666   3.808   1.385  0.7568  0.7209 -0.4626
13625TIP3   OH262289   4.756   4.089  12.069 -0.3471  0.2065  0.0481
13625TIP3    H162290   4.770   4.015  12.010 -0.5390 -0.6684  1.0754
13625TIP3    H262291   4.842   4.131  12.074 -0.3589  0.3832 -0.9512
13626TIP3   OH262292   5.683   5.671  14.617  0.1720  0.1061 -0.2626
13626TIP3    H162293   5.749   5.667  14.548 -1.0684 -1.0429 -1.4341
13626TIP3    H262294   5.603   5.698  14.572 -0.3736  0.5975  0.9693
13627TIP3   OH262295   4.385   1.844  14.638  0.6708  0.1790  0.3969
13627TIP3    H162296   4.432   1.761  14.650  0.8862  0.5339  2.2733
13627TIP3    H262297   4.449   1.911  14.661 -0.1760  0.7601  1.1015
13628TIP3   OH262298   6.281   4.909  12.716  0.6770 -0.0024 -0.7121
13628TIP3    H162299   6.347   4.959  12.765  0.4292  1.2668 -1.6222
13628TIP3    H262300   6.208   4.970  12.705  0.1899 -0.7113 -1.4986
13629TIP3   OH262301   1.507   0.557   6.053 -0.0300  0.2256  0.0734
13629TIP3    H162302   1.536   0.647   6.036  2.3577 -0.2777  0.9934
13629TIP3    H262303   1.485   0.522   5.967  0.2965  1.3021 -0.4738
13630TIP3   OH262304   6.165   2.949  11.862  0.1856 -0.7499 -0.2804
13630TIP3    H162305   6.135   2.945  11.771  0.2669 -1.7238 -0.2715
13630TIP3    H262306   6.260   2.955  11.856  0.1106  1.1881 -0.2815
13631TIP3   OH262307   5.625   1.616   2.559  0.2644 -0.2147  0.1664
13631TIP3    H162308   5.647   1.600   2.650  0.0750 -0.3081  0.1971
13631TIP3    H262309   5.624   1.711   2.550  1.7159 -0.2034 -0.0961
13632TIP3   OH262310   0.446   3.928   4.544  0.3152 -0.2792 -0.4941
13632TIP3    H162311   0.524   3.903   4.594 -0.1889 -0.2350  0.3330
13632TIP3    H262312   0.414   3.846   4.507 -0.0420 -0.5268  0.3343
13633TIP3   OH262313   1.939   0.197   2.131 -0.2908 -0.2256  0.0536
13633TIP3    H162314   1.957   0.290   2.115 -0.4361 -0.2361 -0.1742
13633TIP3    H262315   1.863   0.178   2.076 -1.8538  0.1549  1.9577
13634TIP3   OH262316   5.625   2.791   4.235 -0.1695  0.4973 -0.3631
13634TIP3    H162317   5.601   2.858   4.171 -1.0221  0.8753  0.3343
13634TIP3    H262318   5.546   2.737   4.244 -0.5221  1.2442  1.3364
13635TIP3   OH262319   0.053   3.765  13.933 -0.2184  0.1826  0.2357
13635TIP3    H162320   0.003   3.692  13.969  0.5451 -0.2813  0.3881
13635TIP3    H262321   0.145   3.740  13.946  0.0977  0.1488 -1.6934
13636TIP3   OH262322   4.556   5.970  13.274  0.1146  0.0142 -0.6099
13636TIP3    H162323   4.624   6.017  13.324 -0.6939 -0.2098  0.7606
13636TIP3    H262324   4.514   5.914  13.339 -0.0379 -1.3992 -1.8745
13637TIP3   OH262325   0.275   3.042   4.351 -0.6185 -0.1531 -0.5468
13637TIP3    H162326   0.181   3.025   4.355 -0.5564 -0.3210  1.6046
13637TIP3    H262327   0.305   2.992   4.276 -2.0987 -0.9728 -0.6316
13638TIP3   OH262328   5.607   6.244  11.675  0.1092 -0.5448  0.0636
13638TIP3    H162329   5.628   6.299  11.600 -2.7165 -0.1592 -0.5483
13638TIP3    H262330   5.549   6.298  11.729  1.5663 -1.0312  2.2791
13639TIP3   OH262331   5.359   0.788  12.624  0.1055  0.3110 -0.2220
13639TIP3    H162332   5.352   0.728  12.698  0.0313  0.3648 -0.1848
13639TIP3    H262333   5.439   0.838  12.641  0.9411 -0.7344 -0.9647
13640TIP3   OH262334   6.581   2.227   4.597  0.0230  0.2050 -0.2364
13640TIP3    H162335   6.638   2.155   4.570 -1.3722 -1.2818  0.6015
13640TIP3    H262336   6.540   2.196   4.678  0.0897  2.3609  0.6853
13641TIP3   OH262337   2.322   2.037   1.304  0.2262 -0.8028 -0.3772
13641TIP3    H162338   2.276   1.993   1.376  0.0955  0.6519  0.4750
13641TIP3    H262339   2.253   2.067   1.245  0.1252  0.3839  0.3165
13642TIP3   OH262340   3.835   3.710  16.409 -0.3100 -0.1521 -0.5161
13642TIP3    H162341   3.881   3.724  16.492 -0.9037 -0.1466 -0.1793
13642TIP3    H262342   3.861   3.783  16.354  1.2707 -0.9458 -0.8791
13643TIP3   OH262343   1.764   4.388   3.934  0.3535 -0.5287  0.3372
13643TIP3    H162344   1.825   4.337   3.881 -0.4859  0.1698 -1.3858
13643TIP3    H262345   1.808   4.472   3.946 -0.7624  0.5561 -2.2395
13644TIP3   OH262346   5.784   4.024   4.192 -0.1811 -0.0983  0.3198
13644TIP3    H162347   5.697   3.999   4.222  0.4371 -1.8312  0.7571
13644TIP3    H262348   5.806   4.100   4.247 -2.1396  1.6320 -1.1298
13645TIP3   OH262349   0.455   1.697  14.000 -0.2562 -0.0867 -0.6903
13645TIP3    H162350   0.481   1.611  13.970  1.3105  0.4261 -0.8546
13645TIP3    H262351   0.525   1.725  14.059 -0.4092  1.3418 -1.1470
13646TIP3   OH262352   3.241   1.881  10.236 -0.0892 -0.1761  0.4239
13646TIP3    H162353   3.198   1.927  10.308 -2.0456 -0.0987 -0.7155
13646TIP3    H262354   3.170   1.862  10.175  1.3320 -1.2367 -0.9588
13647TIP3   OH262355   0.842   2.332  15.835  0.0386  0.1451 -0.1059
13647TIP3    H162356   0.748   2.351  15.839  0.2566  1.4062 -0.3441
13647TIP3    H262357   0.883   2.413  15.865  1.0229 -1.3502  3.0120
13648TIP3   OH262358   6.297   3.866  14.301  0.1999  0.6508 -0.3392
13648TIP3    H162359   6.225   3.879  14.240 -0.6522 -0.7368  0.3343
13648TIP3    H262360   6.339   3.952  14.307 -1.1364  1.3787 -1.0665
13649TIP3   OH262361   6.648   3.112   5.542  0.0305 -0.3906 -0.0436
13649TIP3    H162362   6.598   3.097   5.622 -1.2495 -3.9295 -1.2908
13649TIP3    H262363   6.731   3.067   5.557  0.2451 -0.0774 -0.2865
13650TIP3   OH262364   2.307   3.608  16.826 -0.0653  0.5831 -0.5072
13650TIP3    H162365   2.358   3.668  16.770  1.8227  1.5241  2.0276
13650TIP3    H262366   2.369   3.538  16.847 -0.3679  0.8041  1.2085
13651TIP3   OH262367   3.666   1.114  13.519 -0.0561  0.3750  0.2805
13651TIP3    H162368   3.685   1.069  13.436 -1.4277 -1.8075  1.0680
13651TIP3    H262369   3.713   1.063  13.585 -0.8564  0.6710  1.0928
13652TIP3   OH262370   3.011   6.231   5.135  0.2780  0.4120 -0.7578
13652TIP3    H162371   3.034   6.143   5.105 -0.0040  0.3647 -0.8411
13652TIP3    H262372   3.045   6.289   5.067 -1.4773  0.2309 -1.8609
13653TIP3   OH262373   0.658   1.319   0.290  0.2560  0.4493  0.3552
13653TIP3    H162374   0.730   1.307   0.351 -0.0733 -0.5219  0.5797
13653TIP3    H262375   0.657   1.412   0.271  1.0062  0.6046  1.0375
13654TIP3   OH262376   0.531   3.525   3.434  0.1674 -0.9664  0.1394
13654TIP3    H162377   0.579   3.461   3.487  1.5254 -0.5073 -0.4960
13654TIP3    H262378   0.589   3.544   3.360 -0.6482  0.2423 -0.2247
13655TIP3   OH262379   1.005   5.691   2.712  0.2739  0.0531 -0.3051
13655TIP3    H162380   1.099   5.669   2.710  0.2468 -0.3362  1.1650
13655TIP3    H262381   1.002   5.775   2.758 -0.0811  0.1542 -0.5168
13656TIP3   OH262382   3.390   4.183   5.872 -0.3229 -0.0667  0.1783
13656TIP3    H162383   3.397   4.134   5.954 -0.7883  0.7437  0.7139
13656TIP3    H262384   3.302   4.161   5.839 -0.5559  0.4565  0.4511
13657TIP3   OH262385   3.312   6.516   3.963  0.5742 -0.3740  0.2388
13657TIP3    H162386   3.296   6.611   3.961  0.2600 -0.3914  1.1718
13657TIP3    H262387   3.251   6.483   4.029  1.6943 -1.0026  1.0048
13658TIP3   OH262388   2.261   6.410   1.558 -0.7990 -0.2813  0.3809
13658TIP3    H162389   2.182   6.461   1.543  0.6169  2.0467  0.3264
13658TIP3    H262390   2.305   6.454   1.631  0.7338 -1.1448  0.0267
13659TIP3   OH262391   1.529   0.062   0.765  0.3885  0.3962 -0.3589
13659TIP3    H162392   1.577   0.056   0.682  0.5857  3.0749 -0.5324
13659TIP3    H262393   1.598   0.056   0.832  0.1076 -3.0898 -0.2100
13660TIP3   OH262394   2.186   4.718  15.708  0.0700  0.0779 -0.6055
13660TIP3    H162395   2.226   4.804  15.696  0.7255 -0.1467 -0.0862
13660TIP3    H262396   2.206   4.671  15.627 -0.5623  0.5167 -1.0201
13661TIP3   OH262397   3.430   6.505  11.023  0.2510  0.3010 -0.2779
13661TIP3    H162398   3.383   6.581  11.057  0.2784  0.4236 -0.5114
13661TIP3    H262399   3.517   6.538  11.003  0.4157  0.0907  0.0809
13662TIP3   OH262400   3.237   1.687  14.355  0.2258 -0.3329  0.2118
13662TIP3    H162401   3.249   1.695  14.450  2.5383  0.8969 -0.1167
13662TIP3    H262402   3.224   1.593  14.341  1.4223 -0.7549  1.6227
13663TIP3   OH262403   0.601   0.237   1.745 -0.4139 -0.0406 -0.1589
13663TIP3    H162404   0.515   0.213   1.710  0.8478  0.1444 -3.8856
13663TIP3    H262405   0.660   0.228   1.670  2.3596  2.4403  1.5250
13664TIP3   OH262406   2.731   3.226   0.715 -0.2404 -0.9754  0.3866
13664TIP3    H162407   2.774   3.283   0.779  0.6832 -0.9307 -0.2469
13664TIP3    H262408   2.639   3.249   0.719  0.0654  0.2850  0.4368
13665TIP3   OH262409   1.000   2.172  13.505  0.3824 -0.5097 -0.0262
13665TIP3    H162410   0.983   2.180  13.599 -0.2680 -0.4436 -0.1512
13665TIP3    H262411   0.945   2.239  13.465  0.5272 -0.6583 -0.4758
13666TIP3   OH262412   4.811   2.584  12.632  0.3510 -0.3719 -0.3901
13666TIP3    H162413   4.833   2.491  12.630  0.5165 -0.3561  0.3166
13666TIP3    H262414   4.811   2.611  12.540  0.0268 -1.1289 -0.6196
13667TIP3   OH262415   3.960   4.951  12.996  0.0663 -0.1478  0.3318
13667TIP3    H162416   3.926   4.896  13.066  1.8409 -0.4141  1.0353
13667TIP3    H262417   3.938   4.903  12.916  0.2234 -1.1054  0.8474
13668TIP3   OH262418   2.658   0.241  12.631 -0.6936  0.3165  0.2911
13668TIP3    H162419   2.690   0.212  12.716 -1.0058 -0.5862  0.1109
13668TIP3    H262420   2.710   0.319  12.611  0.7863 -0.6097  0.3977
13669TIP3   OH262421   5.131   4.984   5.497  0.1377  0.1185  0.0700
13669TIP3    H162422   5.163   5.073   5.514 -1.2692  0.6973 -0.1290
13669TIP3    H262423   5.104   4.986   5.406  0.5688 -0.6860 -0.0835
13670TIP3   OH262424   3.640   2.140   0.447 -0.2399 -0.2075 -0.4902
13670TIP3    H162425   3.608   2.127   0.536 -0.5069  0.5897 -0.4601
13670TIP3    H262426   3.716   2.083   0.440  0.2118  0.2537  0.4862
13671TIP3   OH262427   0.502   5.457   4.790  0.0589  0.1962 -0.8566
13671TIP3    H162428   0.517   5.477   4.697 -1.3733  2.2319 -0.7277
13671TIP3    H262429   0.571   5.505   4.836 -0.8618  1.5220 -0.7791
13672TIP3   OH262430   0.199   2.785  15.244 -0.3022  0.1725  0.4949
13672TIP3    H162431   0.104   2.791  15.233 -0.5494 -2.3679  0.5797
13672TIP3    H262432   0.212   2.791  15.338 -0.5649 -0.9943  0.6198
13673TIP3   OH262433   0.898   1.195  13.177 -0.5477  0.0179  0.1075
13673TIP3    H162434   0.945   1.144  13.112 -1.4585  1.7269 -2.0515
13673TIP3    H262435   0.808   1.196  13.146 -1.5523 -0.9384  2.6739
13674TIP3   OH262436   2.385   4.493   2.082  0.2729  0.1947 -0.0971
13674TIP3    H162437   2.433   4.467   2.161 -0.0493  0.6021  0.2375
13674TIP3    H262438   2.438   4.460   2.010  1.4134  1.2087  0.2467
13675TIP3   OH262439   6.400   4.320  16.999  0.1123  0.5591 -0.2494
13675TIP3    H162440   6.308   4.338  17.021  0.3033  1.4947 -0.1807
13675TIP3    H262441   6.440   4.407  16.992  1.4349  0.1365  1.5547
13676TIP3   OH262442   2.419   6.611   2.477 -0.5072 -0.0357 -0.3429
13676TIP3    H162443   2.384   6.674   2.540  0.5455  1.4037 -1.1632
13676TIP3    H262444   2.343   6.587   2.423 -0.6413  1.7565 -1.0230
13677TIP3   OH262445   3.510   2.951  12.908 -0.6848 -0.3333  0.7756
13677TIP3    H162446   3.434   2.894  12.901  0.2349 -1.4021 -1.2527
13677TIP3    H262447   3.555   2.942  12.824 -0.0260  2.7379  0.6775
13678TIP3   OH262448   1.441   1.597   1.338  0.4384 -0.0174 -0.4059
13678TIP3    H162449   1.417   1.514   1.379 -0.7118 -0.1480 -1.2787
13678TIP3    H262450   1.419   1.585   1.246  3.7181 -0.0304 -1.3051
13679TIP3   OH262451   2.554   0.114   2.189  0.0017 -0.7553  0.2355
13679TIP3    H162452   2.527   0.102   2.280 -1.7876  2.3384  0.2477
13679TIP3    H262453   2.647   0.135   2.194 -0.4622  1.1915  1.6001
13680TIP3   OH262454   2.324   5.705   5.407  0.2214 -0.0001 -0.2365
13680TIP3    H162455   2.288   5.687   5.494  0.8392 -0.5329 -0.0832
13680TIP3    H262456   2.337   5.619   5.368  1.7428  0.1378 -0.1011
13681TIP3   OH262457   0.481   6.092  15.449  0.0496 -0.1846 -0.4667
13681TIP3    H162458   0.440   6.036  15.383  0.1533 -0.1992 -0.5183
13681TIP3    H262459   0.415   6.098  15.519 -0.8582  1.4031 -1.4026
13682TIP3   OH262460   6.146   5.648   4.072 -0.1761  0.1947  0.1772
13682TIP3    H162461   6.156   5.726   4.127 -0.3375  0.1428  0.2825
13682TIP3    H262462   6.053   5.626   4.078  0.0069 -0.4537  0.7715
13683TIP3   OH262463   4.701   1.836  16.185  0.7017  0.8357 -0.0030
13683TIP3    H162464   4.649   1.909  16.219 -0.5150  0.4078 -0.8559
13683TIP3    H262465   4.741   1.797  16.263 -0.0695  1.3327  0.6642
13684TIP3   OH262466   4.957   1.350  15.034 -0.4014 -0.1189  0.5198
13684TIP3    H162467   4.883   1.355  15.095 -0.6093  1.0596  0.1804
13684TIP3    H262468   4.947   1.264  14.992 -2.2536  0.4718 -0.3491
13685TIP3   OH262469   0.360   6.482   1.995  0.5221 -0.3529 -0.4676
13685TIP3    H162470   0.367   6.541   2.071  0.1275 -0.6967 -0.1575
13685TIP3    H262471   0.417   6.409   2.017  2.8007  0.9297 -1.8479
13686TIP3   OH262472   2.135   5.122  16.406  0.0090 -0.5253 -0.3428
13686TIP3    H162473   2.090   5.185  16.462  1.5476  0.0719  0.2548
13686TIP3    H262474   2.172   5.175  16.336  0.6803 -0.8647 -0.2494
13687TIP3   OH262475   2.632   1.998  12.623 -0.1555  0.4832 -0.1776
13687TIP3    H162476   2.537   1.996  12.608 -0.1928 -1.8880 -0.0563
13687TIP3    H262477   2.670   1.983  12.536  0.0411 -0.0228 -0.0094
13688TIP3   OH262478   3.482   0.532  14.171  0.3372  0.3123 -0.1805
13688TIP3    H162479   3.541   0.510  14.100 -0.0853  0.5619 -0.6192
13688TIP3    H262480   3.399   0.490  14.147  0.2285  0.2840  0.2341
13689TIP3   OH262481   6.662   3.761   3.551 -0.0329 -0.5956  0.0809
13689TIP3    H162482   6.749   3.721   3.552  1.1326  1.6537 -1.6050
13689TIP3    H262483   6.648   3.784   3.459 -1.2243  1.4933  0.7233
13690TIP3   OH262484   3.303   1.906   5.470  0.5954 -0.0387  0.1507
13690TIP3    H162485   3.214   1.925   5.499  0.9180 -0.2044  1.3253
13690TIP3    H262486   3.346   1.991   5.466  0.3232  0.0622 -0.6334
13691TIP3   OH262487   1.741   0.989   2.793 -0.1125 -0.3819  0.2586
13691TIP3    H162488   1.809   1.052   2.767 -0.0523 -1.0178 -1.2069
13691TIP3    H262489   1.785   0.931   2.855  0.2195  0.1637  0.5507
13692TIP3   OH262490   6.538   3.784   5.002 -0.4696 -0.1625  0.1749
13692TIP3    H162491   6.612   3.800   5.060 -0.0005 -1.1049 -0.1443
13692TIP3    H262492   6.486   3.865   5.007 -1.0882 -0.6298  2.8099
13693TIP3   OH262493   0.123   2.027   1.806  0.0931  0.1351 -0.2706
13693TIP3    H162494   0.116   2.123   1.801 -1.7405  0.0241 -0.5044
13693TIP3    H262495   0.211   2.011   1.840  1.1250  1.8512 -1.9402
13694TIP3   OH262496   4.332   5.161   6.801 -0.0854 -0.3251 -0.6567
13694TIP3    H162497   4.304   5.149   6.710  0.1862  0.6704 -0.8897
13694TIP3    H262498   4.255   5.139   6.853 -0.0374 -1.5907 -1.0789
13695TIP3   OH262499   3.638   5.305  12.621  0.2636 -0.1091  0.7121
13695TIP3    H162500   3.704   5.238  12.598  0.3661  0.7310 -1.7335
13695TIP3    H262501   3.687   5.371  12.670  0.3158 -1.4090  2.5134
13696TIP3   OH262502   5.979   0.142   5.037  0.0501  0.1440  0.2065
13696TIP3    H162503   5.906   0.106   4.986  0.1228  1.1243 -0.6243
13696TIP3    H262504   5.944   0.153   5.125 -0.0644 -1.6366  0.4248
13697TIP3   OH262505   4.387   5.360  13.026 -0.1548 -0.0529 -0.8089
13697TIP3    H162506   4.410   5.322  12.941 -0.8415 -0.3478 -0.8692
13697TIP3    H262507   4.412   5.293  13.090 -0.1987 -0.0883 -0.8280
13698TIP3   OH262508   6.734   6.069  16.458  0.2117  0.0479 -0.0635
13698TIP3    H162509   6.713   6.015  16.382  1.2715  2.1142 -1.9468
13698TIP3    H262510   6.657   6.123  16.472  0.2150  0.0341  0.0140
13699TIP3   OH262511   5.326   6.302   4.916  0.1891  0.2715  0.0521
13699TIP3    H162512   5.232   6.285   4.918  0.3342 -0.7973 -1.3423
13699TIP3    H262513   5.342   6.345   4.832  1.1175 -0.7385 -0.3197
13700TIP3   OH262514   0.378   1.142  14.760 -0.6985 -0.2130 -0.3460
13700TIP3    H162515   0.317   1.174  14.694 -1.6836 -0.3322  0.4867
13700TIP3    H262516   0.325   1.131  14.839  0.1876 -1.2662  0.1334
13701TIP3   OH262517   0.060   5.097   2.940 -0.4655 -0.2902 -0.2248
13701TIP3    H162518  -0.030   5.116   2.913 -0.4255 -0.8860 -0.8046
13701TIP3    H262519   0.050   5.040   3.016 -0.5821  1.7041  1.3265
13702TIP3   OH262520   4.718   4.850  10.211  0.3151 -0.6262  0.3095
13702TIP3    H162521   4.642   4.822  10.160  0.2768  0.4585 -0.2629
13702TIP3    H262522   4.705   4.811  10.297  1.2337 -3.9682 -0.8998
13703TIP3   OH262523   6.167   5.181  12.896  0.5108  0.5184  0.2393
13703TIP3    H162524   6.091   5.125  12.883 -0.4932  1.9155 -0.2048
13703TIP3    H262525   6.211   5.144  12.972  0.8327 -1.8205 -0.9905
13704TIP3   OH262526   2.033   2.482   4.412  0.5150 -0.4962  0.2572
13704TIP3    H162527   2.083   2.445   4.484  0.5351 -0.9091  0.0345
13704TIP3    H262528   2.003   2.406   4.362  0.7449 -0.2075 -0.3295
13705TIP3   OH262529   3.014   1.005   1.759 -0.1323  0.4318 -0.2598
13705TIP3    H162530   2.939   1.002   1.817  0.2091 -0.3255  0.1488
13705TIP3    H262531   3.036   1.099   1.754  0.8800  0.4036  2.2093
13706TIP3   OH262532   1.896   4.602   5.435  0.4816 -0.2545 -1.0090
13706TIP3    H162533   1.915   4.641   5.520  2.8141 -0.8880 -1.1856
13706TIP3    H262534   1.814   4.643   5.408  0.6425  1.3245  0.7213
13707TIP3   OH262535   0.694   5.709   3.683  0.6716  0.2599 -0.0637
13707TIP3    H162536   0.650   5.778   3.635  0.3938 -0.2762 -0.5864
13707TIP3    H262537   0.748   5.665   3.617  0.2526 -0.5075  0.0998
13708TIP3   OH262538   0.624   3.348   2.044 -0.2071 -0.0525 -0.2156
13708TIP3    H162539   0.706   3.398   2.042  0.3238 -0.9103 -2.2480
13708TIP3    H262540   0.622   3.301   1.961 -2.5208 -0.4855  0.0051
13709TIP3   OH262541   4.049   3.315   5.341 -0.1915 -0.2812  0.3255
13709TIP3    H162542   4.045   3.247   5.274 -1.8377 -0.7223  0.8167
13709TIP3    H262543   3.998   3.280   5.414  0.6260  0.6590  1.3682
13710TIP3   OH262544   1.356   6.345  10.626 -0.2576 -0.8446  0.0605
13710TIP3    H162545   1.271   6.387  10.619  0.1466  0.3039  1.4801
13710TIP3    H262546   1.337   6.256  10.656 -1.0025 -1.0129 -0.8718
13711TIP3   OH262547   4.723   0.685   6.250  0.5406 -0.3294  0.9933
13711TIP3    H162548   4.812   0.716   6.263  0.2132  1.9751 -1.4739
13711TIP3    H262549   4.729   0.625   6.176 -0.2802  2.5530 -1.6149
13712TIP3   OH262550   5.147   4.349   3.652 -0.0385  0.1972 -0.1063
13712TIP3    H162551   5.077   4.413   3.664 -1.8984 -1.4864 -1.3954
13712TIP3    H262552   5.166   4.316   3.739  1.6223  3.0358  0.7430
13713TIP3   OH262553   3.036   2.622   1.704 -1.1837  0.3180 -0.1250
13713TIP3    H162554   3.087   2.550   1.740 -1.8836 -0.6915 -1.0949
13713TIP3    H262555   3.101   2.687   1.677 -0.5714  0.2751  1.1753
13714TIP3   OH262556   4.842   3.292  16.486 -0.3745 -0.4868 -0.4428
13714TIP3    H162557   4.873   3.272  16.574 -2.0393 -2.5906 -0.2388
13714TIP3    H262558   4.919   3.283  16.431  0.6391  0.5857  0.7514
13715TIP3   OH262559   4.124   4.318  12.025 -0.3617  0.3428  0.1112
13715TIP3    H162560   4.137   4.304  11.932 -0.4244 -1.2072  0.3105
13715TIP3    H262561   4.162   4.404  12.042 -0.0522  0.4975 -1.2775
13716TIP3   OH262562   0.381   1.362   2.139 -0.2734 -0.1152  0.4173
13716TIP3    H162563   0.390   1.449   2.178  0.9197  0.0999 -0.2975
13716TIP3    H262564   0.291   1.361   2.105 -0.9425  0.1161  2.0703
13717TIP3   OH262565   6.512   6.095   0.315 -0.2120 -0.8644  0.5068
13717TIP3    H162566   6.586   6.035   0.310  0.3751 -0.1057 -0.2675
13717TIP3    H262567   6.503   6.130   0.226 -0.5221  0.1977  0.9402
13718TIP3   OH262568   2.303   4.670   1.104  0.0969 -0.6661  0.1365
13718TIP3    H162569   2.336   4.757   1.081 -1.3533  0.1737  1.0988
13718TIP3    H262570   2.285   4.676   1.198 -0.8885 -1.7166  0.0218
13719TIP3   OH262571   4.116   1.074   1.549 -0.2746  0.0876 -0.0061
13719TIP3    H162572   4.200   1.120   1.539 -1.8719  3.2186 -0.2002
13719TIP3    H262573   4.135   1.003   1.609  2.3337  1.3003  0.7449
13720TIP3   OH262574   3.382   6.739  12.372  0.1790  0.7958  0.8872
13720TIP3    H162575   3.472   6.769  12.367  0.6922 -0.8133  0.0947
13720TIP3    H262576   3.349   6.742  12.282  0.3553 -1.2275  0.7104
13721TIP3   OH262577   6.642   6.740   2.112  0.2463 -0.0902 -0.0460
13721TIP3    H162578   6.574   6.779   2.167 -0.1863  1.7836 -1.8018
13721TIP3    H262579   6.712   6.718   2.173 -2.0347 -2.5665  1.9047
13722TIP3   OH262580   1.462   4.052   0.269  0.1832  0.7170  0.2034
13722TIP3    H162581   1.526   4.068   0.338 -2.3501  0.7932  2.6860
13722TIP3    H262582   1.428   3.964   0.287 -1.0845  1.0441 -0.4484
13723TIP3   OH262583   0.071   6.428   3.058 -0.1239  0.1115 -0.4187
13723TIP3    H162584   0.159   6.454   3.029 -0.0846  0.5894  0.1171
13723TIP3    H262585   0.083   6.399   3.149 -1.1319  4.0605  1.1579
13724TIP3   OH262586   4.994   0.366   1.437 -0.0212  0.6487 -0.0472
13724TIP3    H162587   4.923   0.419   1.472 -0.8241 -0.3981 -0.0278
13724TIP3    H262588   5.047   0.343   1.513  0.5445  1.7014 -0.1061
13725TIP3   OH262589   0.302   5.990  11.488 -0.4275 -0.1584  0.4628
13725TIP3    H162590   0.316   5.909  11.440 -0.1827  1.3092 -2.1780
13725TIP3    H262591   0.388   6.013  11.523 -0.4358 -0.8708  0.9546
13726TIP3   OH262592   4.329   6.213   0.938 -0.2865 -0.0233 -0.3134
13726TIP3    H162593   4.406   6.267   0.922 -0.2831 -0.9726 -5.0154
13726TIP3    H262594   4.363   6.126   0.958 -0.1245  0.0039 -0.4692
13727TIP3   OH262595   0.350   4.379  15.092 -0.5129  0.5127 -0.2282
13727TIP3    H162596   0.260   4.353  15.113 -0.0076 -0.9221  0.3410
13727TIP3    H262597   0.402   4.303  15.118  0.7106  0.7248 -1.9364
13728TIP3   OH262598   3.197   0.558  13.316 -0.8241 -0.4719 -0.9647
13728TIP3    H162599   3.133   0.620  13.352  0.7957  0.6050  0.1839
13728TIP3    H262600   3.189   0.480  13.370  1.7700  1.2140  2.1999
13729TIP3   OH262601   4.470   6.063  15.197 -0.2661 -0.1012  0.3103
13729TIP3    H162602   4.459   6.081  15.290 -1.9513 -0.3010  0.1897
13729TIP3    H262603   4.557   6.095  15.176 -0.0605  0.4138  1.8442
13730TIP3   OH262604   0.605   0.794  15.964 -0.1261  0.2129  0.6167
13730TIP3    H162605   0.657   0.870  15.938  1.4284 -1.0649 -0.1421
13730TIP3    H262606   0.650   0.719  15.924 -4.0929 -0.8029 -2.6719
13731TIP3   OH262607   0.947   2.103  16.332  0.5511  1.0380 -0.3817
13731TIP3    H162608   0.885   2.073  16.266 -0.5612  2.2823  0.0443
13731TIP3    H262609   0.918   2.192  16.353  0.7141  0.5922  1.9662
13732TIP3   OH262610   2.334   6.086   0.983  0.1412 -0.0073  0.9076
13732TIP3    H162611   2.322   5.991   0.985 -1.0936  0.1455  1.4328
13732TIP3    H262612   2.415   6.101   1.033 -0.3155 -0.6957  1.8890
13733TIP3   OH262613   3.017   3.445  11.034  0.4980 -0.2942 -0.5203
13733TIP3    H162614   3.088   3.404  10.985  0.4176 -0.3296 -0.6081
13733TIP3    H262615   2.941   3.439  10.975  1.1029  2.5304 -1.7724
13734TIP3   OH262616   1.522   3.138  13.813  0.1338 -0.0854 -0.2318
13734TIP3    H162617   1.427   3.127  13.807 -0.4721  0.5159  4.3855
13734TIP3    H262618   1.535   3.233  13.811  0.1817  0.0050  1.9160
13735TIP3   OH262619   0.667   2.624  12.256  0.4001  0.3195 -0.1231
13735TIP3    H162620   0.680   2.712  12.219 -0.3799  1.2603  1.7220
13735TIP3    H262621   0.704   2.565  12.190  1.3520  2.0439 -1.2121
13736TIP3   OH262622   2.722   0.487   4.187  0.0008 -0.0131  0.3789
13736TIP3    H162623   2.673   0.412   4.219 -0.4423  0.0044 -0.2471
13736TIP3    H262624   2.813   0.467   4.207 -0.1966 -0.3289  0.9806
13737TIP3   OH262625   5.477   0.390  11.419  0.3209 -0.1860  0.1867
13737TIP3    H162626   5.555   0.408  11.471 -0.6845  1.4302  1.2516
13737TIP3    H262627   5.502   0.411  11.329  0.6898  1.9884  0.7303
13738TIP3   OH262628   4.914   3.572  16.092 -0.0816 -0.4386 -0.2139
13738TIP3    H162629   5.001   3.579  16.053 -0.5471 -0.6578 -1.3319
13738TIP3    H262630   4.921   3.618  16.175  1.0777 -0.3743 -0.3341
13739TIP3   OH262631   4.488   0.105   5.457 -0.3754  0.8519 -0.6092
13739TIP3    H162632   4.510   0.027   5.509 -0.7821  0.6614 -0.7217
13739TIP3    H262633   4.454   0.070   5.375  1.2575  1.1417 -1.4573
13740TIP3   OH262634   5.562   3.592   0.907  0.0140  0.0761  0.2386
13740TIP3    H162635   5.651   3.628   0.907  0.2883 -0.5747 -0.4894
13740TIP3    H262636   5.524   3.622   0.990 -0.2850  3.2252 -0.9341
13741TIP3   OH262637   2.748   4.534  15.871  0.2180 -0.5112 -0.3345
13741TIP3    H162638   2.814   4.524  15.802  1.9571 -0.7493  1.2981
13741TIP3    H262639   2.764   4.622  15.907  1.0823 -1.3532  1.4559
13742TIP3   OH262640   5.447   6.714  12.088 -0.1879 -0.3997  0.2103
13742TIP3    H162641   5.451   6.754  12.002  0.7431  0.0322  0.4439
13742TIP3    H262642   5.504   6.768  12.143 -1.9299  0.2675  1.4980
13743TIP3   OH262643   1.370   1.734  11.112 -0.3027  0.1601  0.2874
13743TIP3    H162644   1.373   1.658  11.170 -1.3943 -1.3999 -1.5913
13743TIP3    H262645   1.285   1.727  11.068  0.9891  0.4880 -2.4569
13744TIP3   OH262646   6.707   4.999   3.664  0.3872 -0.0636  0.0843
13744TIP3    H162647   6.630   4.962   3.620  0.7881  0.7514 -1.3899
13744TIP3    H262648   6.713   4.952   3.747 -1.2904 -0.6272 -0.0795
13745TIP3   OH262649   6.419   6.440   2.462 -0.3814  0.6431  0.0881
13745TIP3    H162650   6.390   6.451   2.552 -0.7083  1.1511 -0.0758
13745TIP3    H262651   6.418   6.345   2.448  1.3474  0.4408  1.1460
13746TIP3   OH262652   5.908   1.102   5.292 -0.6149  0.0934  0.2075
13746TIP3    H162653   6.003   1.106   5.284 -0.1546 -1.1096  3.4064
13746TIP3    H262654   5.887   1.009   5.283 -1.5334  0.3681 -0.6173
13747TIP3   OH262655   4.860   1.565   5.360  0.1274 -0.0076  0.0772
13747TIP3    H162656   4.831   1.504   5.427  1.7148  0.5471  1.3604
13747TIP3    H262657   4.932   1.520   5.316 -1.1480 -0.5158 -1.5539
13748TIP3   OH262658   2.241   0.009   2.896  0.5217 -0.1501 -0.4382
13748TIP3    H162659   2.288   0.092   2.880 -2.0656  1.6796  0.7344
13748TIP3    H262660   2.278  -0.024   2.978  1.4081 -0.0346 -0.7831
13749TIP3   OH262661   0.101   1.688  11.046 -0.0412  0.1920 -0.0006
13749TIP3    H162662   0.052   1.625  10.992  0.7452 -0.4955  0.0599
13749TIP3    H262663   0.037   1.756  11.067 -0.5873  0.0608 -1.1223
13750TIP3   OH262664   3.215   4.500   2.568 -0.6247 -0.3693  0.1636
13750TIP3    H162665   3.204   4.419   2.618  1.0653 -2.1169 -2.0680
13750TIP3    H262666   3.165   4.485   2.487  0.4397  0.4104 -0.6676
13751TIP3   OH262667   3.346   3.028  15.342 -0.1094  0.2737  0.1301
13751TIP3    H162668   3.262   3.019  15.388 -1.1969  1.0341 -1.6360
13751TIP3    H262669   3.323   3.034  15.250  1.9882 -0.7217 -0.5216
13752TIP3   OH262670   1.355   3.028   0.606  0.0320  0.5335 -0.5420
13752TIP3    H162671   1.283   3.015   0.668 -0.5357  1.4932 -0.9641
13752TIP3    H262672   1.311   3.029   0.520  0.6041  0.7250 -0.8340
13753TIP3   OH262673   6.626   3.850  13.254  0.5659  0.6062 -0.5127
13753TIP3    H162674   6.556   3.912  13.275  0.6147 -0.1064  2.1048
13753TIP3    H262675   6.706   3.902  13.253  0.4513  0.8213  0.4496
13754TIP3   OH262676   0.213   6.196  16.412 -0.8961  0.2383  0.5062
13754TIP3    H162677   0.180   6.214  16.500 -0.9025  2.5664  0.0917
13754TIP3    H262678   0.255   6.110  16.419 -0.8970  0.3644  2.7632
13755TIP3   OH262679   4.580   4.887  15.134  0.8894 -0.0163  0.3527
13755TIP3    H162680   4.557   4.887  15.041 -0.3749 -0.0985  0.6435
13755TIP3    H262681   4.527   4.817  15.171  2.7937 -1.2813  0.8316
13756TIP3   OH262682   5.005   0.691  12.918 -0.5270 -0.3032 -0.0296
13756TIP3    H162683   4.983   0.782  12.938 -1.5595 -0.5600  0.0940
13756TIP3    H262684   5.028   0.692  12.825  2.6039  0.6015  0.6537
13757TIP3   OH262685   6.679   2.791   5.152  0.2350  0.0707 -0.5088
13757TIP3    H162686   6.724   2.776   5.069  0.6156  0.1687 -0.3201
13757TIP3    H262687   6.749   2.807   5.215 -0.0882  0.7586 -0.3169
13758TIP3   OH262688   5.710   2.031   4.382 -0.0927  0.5384 -0.1606
13758TIP3    H162689   5.774   2.102   4.372 -0.7513  1.5084  1.7904
13758TIP3    H262690   5.755   1.966   4.436 -0.4598  0.8746  0.5713
13759TIP3   OH262691   1.610   3.030   3.187  0.3728 -0.0153  0.0628
13759TIP3    H162692   1.522   3.027   3.224  0.4028 -1.2194  0.0619
13759TIP3    H262693   1.665   3.064   3.257 -0.0132  0.2811  0.2240
13760TIP3   OH262694   1.864   3.117  10.296 -0.0712  0.2235 -0.3698
13760TIP3    H162695   1.862   3.165  10.214 -0.4446  0.4886 -0.2112
13760TIP3    H262696   1.844   3.183  10.363  2.7996  0.5956  0.2560
13761TIP3   OH262697   5.920   6.038  12.501  0.1306  0.0471  0.5871
13761TIP3    H162698   5.866   6.019  12.578  0.4073  0.7969  0.9785
13761TIP3    H262699   5.866   6.011  12.427 -0.4672  0.0569  1.0093
13762TIP3   OH262700   6.049   4.474   5.395  0.0767  0.6052 -0.7149
13762TIP3    H162701   6.094   4.431   5.468  1.7950  2.4804 -0.5919
13762TIP3    H262702   5.965   4.502   5.432 -0.2156 -0.7822 -0.2489
13763TIP3   OH262703   4.025   6.809  12.278 -0.2525 -0.5369  0.3755
13763TIP3    H162704   4.057   6.746  12.343  1.3112  0.3014  0.4600
13763TIP3    H262705   3.949   6.850  12.320  1.3328  0.7297  2.1865
13764TIP3   OH262706   3.597   3.464  15.324  0.3299 -0.1053 -0.5046
13764TIP3    H162707   3.666   3.497  15.267 -0.1275 -0.8335 -1.5073
13764TIP3    H262708   3.562   3.388  15.278 -1.7428  0.7636 -0.4820
13765TIP3   OH262709   6.656   3.208  15.081  0.0480 -0.5050  0.0956
13765TIP3    H162710   6.683   3.117  15.074 -2.2539 -1.2459  0.1268
13765TIP3    H262711   6.583   3.207  15.143 -2.1318  0.8129 -2.2641
13766TIP3   OH262712   4.731   6.056   5.983  0.2680  0.7998  0.1293
13766TIP3    H162713   4.809   6.033   5.933 -0.2497 -0.1258 -0.2705
13766TIP3    H262714   4.707   6.142   5.951 -1.0225 -0.4323 -2.4762
13767TIP3   OH262715   4.807   3.645   4.380 -0.4275 -0.3821  0.4504
13767TIP3    H162716   4.736   3.637   4.444  0.5867  0.1832  1.6629
13767TIP3    H262717   4.812   3.738   4.360  1.5994 -0.0122  2.3158
13768TIP3   OH262718   6.715   4.886   5.105  0.2651 -0.2477 -0.7720
13768TIP3    H162719   6.751   4.878   5.193 -1.5413  0.7356  0.1132
13768TIP3    H262720   6.760   4.962   5.067  1.5762 -1.1120 -1.0101
13769TIP3   OH262721   6.697   6.688   0.320 -0.3628 -0.0722 -0.0859
13769TIP3    H162722   6.745   6.625   0.267  0.5080 -0.0064  0.6035
13769TIP3    H262723   6.744   6.771   0.307 -0.5632  0.0952  0.2329
13770TIP3   OH262724   3.966   1.697  13.419 -0.5095  0.1492  0.0657
13770TIP3    H162725   4.059   1.710  13.437 -0.4155  0.9142 -0.9098
13770TIP3    H262726   3.936   1.641  13.491  0.5469  0.4461  0.7688
13771TIP3   OH262727   0.110   0.792  13.866 -0.3691 -0.2087 -0.2539
13771TIP3    H162728   0.196   0.761  13.838  0.9518 -0.0669  3.2174
13771TIP3    H262729   0.105   0.882  13.832  1.2542  0.0805  0.1798
13772TIP3   OH262730   6.056   2.377  13.928  0.4828 -0.4738 -0.2273
13772TIP3    H162731   6.029   2.317  13.998 -1.5444  0.0977 -0.4472
13772TIP3    H262732   6.023   2.463  13.956  2.3195  0.3406 -0.4686
13773TIP3   OH262733   1.153   1.831  15.520  0.4967  0.3463  0.7056
13773TIP3    H162734   1.101   1.769  15.469 -1.3525  3.1935 -1.1544
13773TIP3    H262735   1.106   1.840  15.603  0.1721  0.0901  0.5534
13774TIP3   OH262736   1.170   1.461  13.080 -0.4363 -0.0223 -0.3815
13774TIP3    H162737   1.204   1.505  13.003 -0.4601  2.3046  0.8438
13774TIP3    H262738   1.239   1.469  13.145 -1.9655  1.9437  1.1386
13775TIP3   OH262739   2.995   0.445  12.779  0.5330  0.4088 -0.1860
13775TIP3    H162740   3.031   0.430  12.867  0.3885  0.5054 -0.1111
13775TIP3    H262741   2.992   0.358  12.739 -0.1650  0.2524  0.1966
13776TIP3   OH262742   3.937   1.871  14.941  0.0679  0.0574  0.3944
13776TIP3    H162743   4.004   1.921  14.894 -0.1953  0.3530  0.3366
13776TIP3    H262744   3.901   1.812  14.874 -1.4952  1.6498 -0.2278
13777TIP3   OH262745   5.973   6.028  14.912 -0.0235 -0.4378 -0.1290
13777TIP3    H162746   5.882   6.052  14.927  0.2777  1.2804 -0.8329
13777TIP3    H262747   5.968   5.943  14.868 -1.2109 -0.9737  0.9561
13778TIP3   OH262748   5.268   1.151   4.826 -0.6221  0.1153  0.0401
13778TIP3    H162749   5.222   1.161   4.909  2.1255 -1.5555  1.9518
13778TIP3    H262750   5.249   1.062   4.799  0.6713 -0.3090  0.4207
13779TIP3   OH262751   6.764   6.590  10.495 -0.4201  0.4527 -0.1193
13779TIP3    H162752   6.840   6.572  10.440  0.0636  1.2959  0.2535
13779TIP3    H262753   6.694   6.536  10.458 -0.1686  1.1491 -1.6988
13780TIP3   OH262754   0.761   3.998   1.806  0.3000  0.0428 -0.1596
13780TIP3    H162755   0.767   3.982   1.901  1.5788  0.9428 -0.0638
13780TIP3    H262756   0.691   3.939   1.777 -2.3651  1.9672  1.8318
13781TIP3   OH262757   2.931   5.454  13.601 -0.2735 -0.4780  0.4307
13781TIP3    H162758   2.915   5.476  13.693  1.3699  1.8219  0.2550
13781TIP3    H262759   2.913   5.534  13.553 -0.8849 -1.5715 -1.2685
13782TIP3   OH262760   2.541   1.643   3.281 -0.2203 -0.5028 -0.5085
13782TIP3    H162761   2.550   1.602   3.367 -1.3233 -1.5893 -0.8819
13782TIP3    H262762   2.509   1.573   3.224 -0.2086  0.3821 -1.6452
13783TIP3   OH262763   1.770   2.284  11.687  0.2913 -0.1788  0.1421
13783TIP3    H162764   1.824   2.214  11.725  1.8835  1.9218  2.0384
13783TIP3    H262765   1.686   2.274  11.731  0.3802 -1.1172  0.1280
13784TIP3   OH262766   3.030   0.330  15.360  0.0867 -0.4692 -0.1813
13784TIP3    H162767   3.073   0.310  15.276  2.8929  0.2400  0.9869
13784TIP3    H262768   3.093   0.383  15.407 -1.8080 -0.0621  2.0640
13785TIP3   OH262769   2.919   1.578  11.608  0.2304  0.3348 -0.3373
13785TIP3    H162770   2.918   1.654  11.666 -0.4202 -0.7588  1.1537
13785TIP3    H262771   2.872   1.511  11.656  1.3041 -1.2133 -1.3569
13786TIP3   OH262772   6.401   1.601  12.563  0.5361  0.1620 -0.3554
13786TIP3    H162773   6.338   1.538  12.597  1.7334 -1.6870 -1.4191
13786TIP3    H262774   6.347   1.669  12.521 -0.7824 -0.0527  0.9116
13787TIP3   OH262775   3.813   3.122  11.877 -0.1273  0.4467  0.6137
13787TIP3    H162776   3.905   3.098  11.884 -0.1108 -0.0255 -0.7893
13787TIP3    H262777   3.803   3.151  11.786 -1.5309 -0.2480  0.5229
13788TIP3   OH262778   4.438   1.302  13.347 -0.5296  0.1099  0.4332
13788TIP3    H162779   4.393   1.220  13.326  1.2643 -0.7314 -0.3365
13788TIP3    H262780   4.423   1.315  13.440 -1.4448 -0.7008  0.4130
13789TIP3   OH262781   0.414   2.644  11.480  0.1269 -0.4087  0.1020
13789TIP3    H162782   0.397   2.735  11.456 -1.5769 -0.7555 -0.1659
13789TIP3    H262783   0.327   2.605  11.487  0.7073 -1.4988  2.3013
13790TIP3   OH262784   5.754   4.318  11.874  0.5298  0.5577 -0.1741
13790TIP3    H162785   5.743   4.412  11.865  1.0315  0.5065 -1.5673
13790TIP3    H262786   5.730   4.282  11.788  1.5035 -0.4503 -0.0542
13791TIP3   OH262787   4.792   6.557   4.898 -0.3059 -0.3315 -0.1880
13791TIP3    H162788   4.860   6.490   4.905 -0.2236 -0.2476 -0.1858
13791TIP3    H262789   4.750   6.539   4.814  2.2038  1.9490 -2.0904
13792TIP3   OH262790   4.574   1.276  16.542  0.3332  0.3683 -0.3058
13792TIP3    H162791   4.639   1.264  16.472  0.5830 -2.1611  0.2432
13792TIP3    H262792   4.491   1.253  16.501  0.5155 -1.3873  0.2229
13793TIP3   OH262793   2.233   3.558  13.450  0.3041 -0.3028 -0.8444
13793TIP3    H162794   2.218   3.536  13.542 -0.2729 -2.5278 -1.4113
13793TIP3    H262795   2.264   3.477  13.410  1.5377  0.8731 -2.4361
13794TIP3   OH262796   1.674   6.748  14.820 -0.5089 -0.1660 -0.0849
13794TIP3    H162797   1.765   6.768  14.840 -0.4174 -0.0585 -0.5938
13794TIP3    H262798   1.638   6.714  14.902 -0.6203  1.9066  0.7846
13795TIP3   OH262799   4.995   6.020   1.704  0.0413  0.0305  0.2302
13795TIP3    H162800   5.001   6.048   1.613  1.0779 -1.5626 -0.2369
13795TIP3    H262801   5.077   5.973   1.720 -1.5774 -2.8546  0.8559
13796TIP3   OH262802   1.189   1.512  14.108 -0.1605 -0.1819  0.2237
13796TIP3    H162803   1.096   1.506  14.086  0.1785  1.0227 -1.8112
13796TIP3    H262804   1.192   1.572  14.183 -0.9777  0.3428 -0.1499
13797TIP3   OH262805   2.154   4.062   4.951 -0.1541 -0.0114 -0.3612
13797TIP3    H162806   2.194   4.121   5.014 -0.6044 -0.8367  0.7513
13797TIP3    H262807   2.062   4.058   4.978 -0.2163 -0.8642 -0.6681
13798TIP3   OH262808   5.214   1.717  11.482  0.3938  0.2768  0.4720
13798TIP3    H162809   5.241   1.687  11.568 -1.7502 -0.7348  0.8744
13798TIP3    H262810   5.265   1.664  11.420 -0.5093 -1.5018  1.1753
13799TIP3   OH262811   6.354   6.657   3.304 -0.5602  0.6034 -0.4184
13799TIP3    H162812   6.408   6.704   3.240 -0.7581  1.0794 -0.2379
13799TIP3    H262813   6.365   6.564   3.281  3.1661  0.2999  1.6967
13800TIP3   OH262814   5.031   3.283  16.860 -0.2140 -0.2662  0.2848
13800TIP3    H162815   4.936   3.289  16.849 -0.4743  0.7401  2.6340
13800TIP3    H262816   5.046   3.301  16.953  2.1407 -2.1648  0.3842
13801TIP3   OH262817   5.846   4.571  14.995  0.0614  0.1927 -0.0629
13801TIP3    H162818   5.880   4.485  14.972 -2.0635 -0.6635 -0.2552
13801TIP3    H262819   5.832   4.567  15.090 -1.3660 -0.2307 -0.2655
13802TIP3   OH262820   6.522   5.280   4.107 -0.0846  0.0621 -0.3592
13802TIP3    H162821   6.605   5.249   4.141 -0.1219  0.1410 -0.1950
13802TIP3    H262822   6.467   5.201   4.103 -1.2175  0.5217  2.9970
13803TIP3   OH262823   5.140   1.977  13.552 -0.4358  0.8761 -0.5662
13803TIP3    H162824   5.196   2.006  13.624 -0.8420  2.2963 -0.7843
13803TIP3    H262825   5.157   1.883  13.545  0.9247  1.0280  0.2207
13804TIP3   OH262826   1.552   2.866   4.780 -0.6257 -0.2072  0.0232
13804TIP3    H162827   1.502   2.946   4.795 -0.1908  0.1762 -0.5356
13804TIP3    H262828   1.532   2.811   4.856 -1.4605  0.1551  0.0806
13805TIP3   OH262829   1.413   5.471  12.256  0.7490 -0.4895 -0.0626
13805TIP3    H162830   1.368   5.411  12.316 -0.7992 -0.8832 -1.5457
13805TIP3    H262831   1.360   5.551  12.257  0.6808 -0.5114 -0.9084
13806TIP3   OH262832   3.509   6.537  12.066  0.4391 -0.1286 -0.7079
13806TIP3    H162833   3.565   6.494  12.001  0.7894 -2.1896  0.8516
13806TIP3    H262834   3.570   6.571  12.131 -0.0298 -1.0531  0.2343
13807TIP3   OH262835   0.967   0.835  15.628 -0.2837  0.2049  0.3890
13807TIP3    H162836   0.910   0.863  15.557 -2.3005  0.3066  1.9508
13807TIP3    H262837   0.982   0.742  15.612  0.1841  0.4641 -0.7307
13808TIP3   OH262838   6.810   1.794  10.211 -0.2419  0.0947  1.1421
13808TIP3    H162839   6.854   1.854  10.151  0.7655 -0.2350  1.5344
13808TIP3    H262840   6.717   1.805  10.192  0.0832 -2.1898 -2.5547
13809TIP3   OH262841   1.551   0.302   0.557  0.1102  0.4492 -0.3591
13809TIP3    H162842   1.591   0.389   0.550  2.8301 -0.5879  0.8002
13809TIP3    H262843   1.582   0.268   0.641 -0.4642 -1.8200 -0.9941
13810TIP3   OH262844   3.797   1.552   5.888  0.4011  0.2575  0.5457
13810TIP3    H162845   3.872   1.563   5.946 -0.4959  3.1241  1.3321
13810TIP3    H262846   3.723   1.588   5.937 -1.1292 -0.7324 -0.9317
13811TIP3   OH262847   4.917   0.490  11.654  0.2385 -0.1684 -0.1188
13811TIP3    H162848   4.875   0.570  11.684  1.4230  0.0318  1.1208
13811TIP3    H262849   5.006   0.495  11.690 -0.2066 -2.8939  1.5881
13812TIP3   OH262850   5.862   5.709  16.217  0.0756 -0.0865 -0.5910
13812TIP3    H162851   5.928   5.645  16.188 -0.6559 -0.5846 -1.1992
13812TIP3    H262852   5.883   5.725  16.309  0.2323 -1.2808 -0.3982
13813TIP3   OH262853   4.277   3.519  13.700 -0.1602 -1.2178  0.0204
13813TIP3    H162854   4.249   3.497  13.611  0.4858 -0.0308 -0.4938
13813TIP3    H262855   4.368   3.545  13.690 -0.6124  0.7908  0.7071
13814TIP3   OH262856   4.013   1.106   2.742 -0.5220  0.0665  0.5505
13814TIP3    H162857   4.062   1.165   2.686  0.3989 -0.5679  0.6714
13814TIP3    H262858   4.047   1.019   2.721 -2.4507 -0.5509 -0.2636
13815TIP3   OH262859   0.768   2.970  16.933 -0.4657 -0.2700 -0.2760
13815TIP3    H162860   0.703   2.948  16.867 -0.8099 -0.3759  0.0976
13815TIP3    H262861   0.771   3.066  16.934 -1.6185 -0.2159  0.6677
13816TIP3   OH262862   3.758   1.619   2.457  0.1793 -0.1133  0.3576
13816TIP3    H162863   3.777   1.568   2.379  1.7630 -0.0377  0.6618
13816TIP3    H262864   3.758   1.554   2.528 -1.4207 -0.2103  0.3102
13817TIP3   OH262865   5.417   6.099   0.567  0.2941  0.1431  0.0203
13817TIP3    H162866   5.373   6.169   0.615  1.5668  0.6107  0.5306
13817TIP3    H262867   5.487   6.070   0.625  0.2922 -1.0010 -0.5330
13818TIP3   OH262868   1.571   5.358  15.609 -0.0090  0.0647 -0.2046
13818TIP3    H162869   1.561   5.285  15.547 -1.5964  0.2782 -0.2297
13818TIP3    H262870   1.663   5.382  15.602  0.0721 -0.5684 -1.7621
13819TIP3   OH262871   3.120   3.958  12.447 -0.4266  0.6724  0.4807
13819TIP3    H162872   3.069   4.036  12.423 -1.0314  0.0534 -0.3109
13819TIP3    H262873   3.055   3.898  12.483 -0.2918 -0.1814 -0.6647
13820TIP3   OH262874   1.471   0.006  10.353 -0.2156  0.3841 -0.6805
13820TIP3    H162875   1.462   0.095  10.319  3.2958  0.9782 -0.5107
13820TIP3    H262876   1.405  -0.001  10.421 -0.7747  2.7541 -0.8921
13821TIP3   OH262877   6.112   3.446   1.253 -0.3144 -0.0277 -0.3628
13821TIP3    H162878   6.149   3.358   1.250 -1.2385 -0.4418  0.0743
13821TIP3    H262879   6.059   3.447   1.333 -0.3283  0.9208 -0.3728
13822TIP3   OH262880   5.211   1.648  11.062 -0.8142  0.2444  0.1434
13822TIP3    H162881   5.256   1.728  11.087 -0.7501 -0.2084  1.5432
13822TIP3    H262882   5.135   1.677  11.011 -0.7295  1.1775  0.5409
13823TIP3   OH262883   4.088   0.631   5.478 -0.5106 -0.1773  0.2141
13823TIP3    H162884   4.148   0.646   5.551  0.1800  0.1731 -0.4096
13823TIP3    H262885   4.062   0.719   5.450 -2.6629 -0.3123  1.5177
13824TIP3   OH262886   4.122   6.125  15.828  0.1022 -0.6098 -0.2295
13824TIP3    H162887   4.167   6.196  15.873 -0.0866 -0.7911  0.2528
13824TIP3    H262888   4.100   6.062  15.897  0.7704 -1.4166 -0.7271
13825TIP3   OH262889   4.375   2.024  11.453 -0.1409 -0.3360  0.2175
13825TIP3    H162890   4.299   2.079  11.471  0.6211  1.6275 -1.9431
13825TIP3    H262891   4.450   2.079  11.478  0.6772  0.0539 -2.6996
13826TIP3   OH262892   3.358   0.264   0.980 -0.4062 -0.3751 -0.6718
13826TIP3    H162893   3.435   0.251   1.035  1.1684  0.1309 -2.6319
13826TIP3    H262894   3.292   0.205   1.017  0.5927 -0.1740  1.6081
13827TIP3   OH262895   2.672   4.519   5.862  0.7056 -0.4317  0.3056
13827TIP3    H162896   2.744   4.461   5.889  0.4849 -1.2722 -0.8002
13827TIP3    H262897   2.669   4.587   5.928  2.7976 -0.1477  0.1642
13828TIP3   OH262898   4.465   6.808   3.445  0.1778 -0.3295 -0.2039
13828TIP3    H162899   4.536   6.749   3.421 -0.3497 -2.2891  2.6732
13828TIP3    H262900   4.447   6.789   3.537 -3.2513  0.9588 -0.4686
13829TIP3   OH262901   1.573   4.313  15.787  0.1927  0.5650  0.1267
13829TIP3    H162902   1.536   4.330  15.874  1.5386  1.3071  0.5755
13829TIP3    H262903   1.564   4.397  15.741  1.6659  0.8904  0.3905
13830TIP3   OH262904   3.523   1.979  14.222  0.0181 -1.0465 -0.2548
13830TIP3    H162905   3.429   1.969  14.209 -0.4683  1.1089  1.1214
13830TIP3    H262906   3.543   2.066  14.188  1.6037 -1.5653 -0.7693
13831TIP3   OH262907   1.137   1.077  11.681 -0.3555  0.2668  0.2621
13831TIP3    H162908   1.211   1.018  11.693 -0.4358  0.5763  2.7130
13831TIP3    H262909   1.069   1.044  11.740 -1.0380  1.7665  0.3714
13832TIP3   OH262910   0.855   2.235   0.196  0.0903  1.1469  0.3007
13832TIP3    H162911   0.768   2.275   0.203  0.0144  1.0363 -0.0026
13832TIP3    H262912   0.862   2.178   0.273  0.6816  2.6613  1.4209
13833TIP3   OH262913   3.193   1.854  13.613  0.3033 -0.3514 -0.4582
13833TIP3    H162914   3.166   1.896  13.531  0.6504  0.7925 -0.0059
13833TIP3    H262915   3.119   1.866  13.672  1.3818  2.1145  0.5365
13834TIP3   OH262916   2.877   5.136   0.430  0.3523 -0.1874  0.2072
13834TIP3    H162917   2.790   5.097   0.426 -0.3400  1.1671  1.0569
13834TIP3    H262918   2.935   5.069   0.395 -0.9571 -1.3326  0.1228
13835TIP3   OH262919   2.414   1.611  16.471  0.0123  0.0452 -0.3129
13835TIP3    H162920   2.413   1.658  16.555  0.9053 -0.6068  0.0831
13835TIP3    H262921   2.322   1.603  16.448 -0.2517  0.2740  0.5866
13836TIP3   OH262922   2.594   3.187   4.221  0.9815  0.1622  0.2090
13836TIP3    H162923   2.547   3.268   4.241  1.7634  0.4785  0.8386
13836TIP3    H262924   2.647   3.171   4.299  2.4212  0.1743 -0.7347
13837TIP3   OH262925   0.295   6.561  14.841 -0.0522 -0.2325  0.5680
13837TIP3    H162926   0.389   6.568  14.859 -0.0950 -0.0198  0.7160
13837TIP3    H262927   0.257   6.531  14.923 -0.2031  0.3886  0.7356
13838TIP3   OH262928   2.279   5.088   1.885  0.1828  0.4072 -0.5249
13838TIP3    H162929   2.253   5.062   1.974  0.8908  0.0680 -0.4092
13838TIP3    H262930   2.291   5.183   1.890  0.1728  0.3964 -0.2758
13839TIP3   OH262931   3.980   0.091  14.949 -0.0622 -0.0558  0.4690
13839TIP3    H162932   3.980   0.008  14.902 -0.1470 -0.1450  0.6229
13839TIP3    H262933   3.927   0.150  14.895  1.3886  0.4073 -0.5039
13840TIP3   OH262934   4.625   3.270  13.674  0.7932  0.0701 -0.5073
13840TIP3    H162935   4.651   3.321  13.751  0.8589 -2.5752  1.3476
13840TIP3    H262936   4.706   3.260  13.624  1.3341 -0.3065  0.4126
13841TIP3   OH262937   2.412   5.592   2.564  0.2208  0.1146  0.0094
13841TIP3    H162938   2.420   5.503   2.530 -1.4485 -0.2142  0.4332
13841TIP3    H262939   2.481   5.599   2.631  0.2546 -0.9075  0.0847
13842TIP3   OH262940   2.366   3.438  10.549  0.1594 -0.5873 -0.3494
13842TIP3    H162941   2.334   3.486  10.473  0.0259  0.2456  0.2179
13842TIP3    H262942   2.320   3.354  10.546 -0.7919 -0.0724 -0.4950
13843TIP3   OH262943   2.424   2.934   4.117  0.0498 -0.5704  0.4339
13843TIP3    H162944   2.391   3.019   4.147  0.2108  0.7216 -2.6692
13843TIP3    H262945   2.345   2.887   4.089 -0.0190 -1.4632  1.9802
13844TIP3   OH262946   1.289   3.132  13.364 -0.2594 -0.0595 -0.0070
13844TIP3    H162947   1.354   3.151  13.296 -0.3819 -0.6210 -0.2864
13844TIP3    H262948   1.307   3.197  13.433  0.7552 -0.3524  0.0245
13845TIP3   OH262949   4.146   4.952  12.421  0.1263 -0.1246 -0.1440
13845TIP3    H162950   4.183   4.865  12.411 -0.7293 -0.3856 -1.2677
13845TIP3    H262951   4.054   4.937  12.444  0.1088  0.4875  0.2100
13846TIP3   OH262952   4.263   3.578   3.585 -0.2574  0.1887 -0.3291
13846TIP3    H162953   4.345   3.594   3.539 -0.4952 -0.4007 -0.9771
13846TIP3    H262954   4.242   3.487   3.566  0.4484 -0.6078  2.2654
13847TIP3   OH262955   5.257   2.615   1.539 -0.2606 -0.2784  0.4492
13847TIP3    H162956   5.239   2.705   1.569 -0.1975  0.2012 -0.8793
13847TIP3    H262957   5.232   2.560   1.613  1.9921  0.9401  2.2919
13848TIP3   OH262958   5.270   3.386  13.852 -0.2759  0.0150  0.2432
13848TIP3    H162959   5.194   3.332  13.875 -1.9911  1.2988 -1.9425
13848TIP3    H262960   5.309   3.343  13.776  0.4293  0.0321  0.5884
13849TIP3   OH262961   0.789   3.367  12.856  0.4854 -0.1726 -0.2021
13849TIP3    H162962   0.760   3.448  12.897 -0.7275 -1.7208  2.3214
13849TIP3    H262963   0.709   3.330  12.818  0.5832 -1.0515  0.4007
13850TIP3   OH262964   1.181   4.822  11.493  0.0279 -0.0214  0.3763
13850TIP3    H162965   1.239   4.847  11.421 -1.2745 -0.0468 -0.7203
13850TIP3    H262966   1.175   4.901  11.547  0.0401  0.3997 -0.2281
13851TIP3   OH262967   6.307   4.999   1.558 -0.4135  0.2113 -0.5346
13851TIP3    H162968   6.252   4.922   1.551 -1.8175  1.0809  0.4166
13851TIP3    H262969   6.310   5.035   1.470 -0.8427 -0.2101 -0.7229
13852TIP3   OH262970   2.048   0.127  11.196  0.5098  0.1374  0.1414
13852TIP3    H162971   2.074   0.057  11.256 -1.1274 -0.4482  0.2415
13852TIP3    H262972   2.125   0.182  11.187  1.7577 -1.5114  0.3112
13853TIP3   OH262973   6.301   1.322  10.913  0.3353  0.3725 -0.4203
13853TIP3    H162974   6.317   1.229  10.932 -0.1754  0.5140  0.7476
13853TIP3    H262975   6.389   1.359  10.905  0.5706  0.1050  0.7514
13854TIP3   OH262976   5.580   3.515   5.259 -0.2385 -0.6802 -0.0354
13854TIP3    H162977   5.598   3.597   5.213  1.3526 -0.5741  0.7461
13854TIP3    H262978   5.510   3.474   5.207  1.0231 -0.2472 -2.1656
13855TIP3   OH262979   3.573   6.354   4.575  0.7779 -0.2303  0.0747
13855TIP3    H162980   3.521   6.274   4.566  2.4291 -1.2632 -0.8920
13855TIP3    H262981   3.646   6.342   4.513  1.2761  1.8605  0.1843
13856TIP3   OH262982   3.460   5.417  13.893 -0.1799  0.3277 -0.4281
13856TIP3    H162983   3.372   5.446  13.868 -0.9676  1.7823  3.3940
13856TIP3    H262984   3.446   5.333  13.937  0.5720 -0.0737 -0.9273
13857TIP3   OH262985   1.448   4.633  10.894 -0.1714  0.4796  0.4510
13857TIP3    H162986   1.387   4.687  10.844  0.6731  0.0831 -1.0768
13857TIP3    H262987   1.531   4.639  10.846  0.1965 -1.4069  0.7494
13858TIP3   OH262988   5.703   5.181   6.504 -0.2940  0.2542  0.0201
13858TIP3    H162989   5.694   5.258   6.561 -0.0053  1.9070 -2.0192
13858TIP3    H262990   5.797   5.162   6.505 -0.2281  0.5555 -0.2171
13859TIP3   OH262991   4.235   1.862  14.408 -0.6775 -0.0490 -0.6298
13859TIP3    H162992   4.265   1.859  14.500  1.2775  1.1264 -1.1549
13859TIP3    H262993   4.162   1.923  14.409  0.6078  1.5718 -0.0947
13860TIP3   OH262994   2.084   5.487   2.370  0.0869  0.4426  0.0850
13860TIP3    H162995   2.095   5.465   2.277 -1.2851  0.8774 -0.2143
13860TIP3    H262996   2.140   5.425   2.416  1.0813  0.4598 -1.0468
13861TIP3   OH262997   0.282   3.415  12.016 -0.7632  0.1788 -0.1224
13861TIP3    H162998   0.289   3.507  12.041 -1.8330  0.1500  0.3376
13861TIP3    H262999   0.239   3.373  12.090  0.4177 -0.8566 -0.0036
13862TIP3   OH263000   2.810   4.131   0.849  0.1383  0.2444 -0.0408
13862TIP3    H163001   2.775   4.132   0.760  0.4582 -2.5102 -0.2816
13862TIP3    H263002   2.749   4.076   0.898  1.3305 -0.3577  0.8037
13863TIP3   OH263003   4.750   1.399   1.244 -0.4138  0.2111 -0.5657
13863TIP3    H163004   4.824   1.449   1.279  0.6235 -0.4804 -1.6984
13863TIP3    H263005   4.787   1.314   1.221 -1.6057 -0.2041 -1.0300
13864TIP3   OH263006   3.473   5.155   4.754  0.0424  0.4962  0.2165
13864TIP3    H163007   3.514   5.069   4.760 -1.0229  0.0133  0.8848
13864TIP3    H263008   3.423   5.152   4.672 -0.7391  0.1191  0.6906
13865TIP3   OH263009   6.043   3.764   3.968 -0.0741 -0.3054  0.0338
13865TIP3    H163010   6.038   3.697   3.900 -1.0935 -1.0533  0.8197
13865TIP3    H263011   6.017   3.718   4.048  1.5747  0.4262  1.0365
13866TIP3   OH263012   1.676   5.635   1.275 -0.0752  0.3918  0.3762
13866TIP3    H163013   1.733   5.691   1.329  0.0110  1.4585 -0.7712
13866TIP3    H263014   1.727   5.620   1.195 -0.9709  0.4364 -0.2056
13867TIP3   OH263015   3.963   5.730  10.716 -0.3824  0.0987 -0.3734
13867TIP3    H163016   3.871   5.747  10.735 -0.5262 -1.2738  0.3108
13867TIP3    H263017   4.010   5.763  10.793 -0.5301 -1.1921  0.2977
13868TIP3   OH263018   3.133   3.314  16.862 -0.2151 -0.0112  0.5347
13868TIP3    H163019   3.111   3.243  16.923 -0.3903 -0.5608 -0.1607
13868TIP3    H263020   3.049   3.339  16.824  0.0208 -0.3378 -0.2067
13869TIP3   OH263021   4.762   4.849  16.752 -0.3101  0.0442 -0.0479
13869TIP3    H163022   4.821   4.852  16.827  0.9733 -0.5041 -0.9867
13869TIP3    H263023   4.816   4.879  16.679 -1.2578 -0.3032 -0.9068
13870TIP3   OH263024   1.997   2.530  15.789  0.3281  0.0880  0.4340
13870TIP3    H163025   2.061   2.600  15.773 -1.0262  1.1810 -0.4134
13870TIP3    H263026   2.009   2.470  15.716 -0.0688  0.6584 -0.1113
13871TIP3   OH263027   0.967   0.844  15.205 -0.4533  0.7243 -0.2281
13871TIP3    H163028   0.968   0.759  15.248 -0.7868 -0.0192 -1.5976
13871TIP3    H263029   1.031   0.836  15.134 -1.6057  1.0398 -1.3526
13872TIP3   OH263030   2.416   5.735  12.774  0.3274  0.5037  0.1441
13872TIP3    H163031   2.324   5.717  12.758  0.3347  0.8863 -0.3362
13872TIP3    H263032   2.422   5.831  12.775  0.7904  0.4807 -0.2351
13873TIP3   OH263033   6.622   5.869  10.953 -0.3798  0.2174 -0.3526
13873TIP3    H163034   6.708   5.901  10.980 -0.9408  0.2688  1.4996
13873TIP3    H263035   6.634   5.841  10.862  1.6512 -0.0232 -0.0471
13874TIP3   OH263036   5.370   2.504   4.003 -0.3442  0.0701 -0.7398
13874TIP3    H163037   5.288   2.475   4.042 -0.1056  0.2445 -0.1079
13874TIP3    H263038   5.387   2.439   3.934 -0.7976 -0.1945 -0.6120
13875TIP3   OH263039   4.837   2.483   4.112  0.6346 -0.4192  0.2224
13875TIP3    H163040   4.810   2.574   4.105 -0.1605 -0.5376  1.4845
13875TIP3    H263041   4.830   2.449   4.022 -1.3651  0.1374  0.1077
13876TIP3   OH263042   0.256   3.947   0.603 -0.4799  0.1888  0.0335
13876TIP3    H163043   0.327   3.899   0.560 -0.4943 -0.0383  0.2586
13876TIP3    H263044   0.186   3.883   0.611  0.7435 -0.9723  3.6704
13877TIP3   OH263045   4.026   1.000   1.168  0.1326 -0.2034 -0.8300
13877TIP3    H163046   4.067   0.927   1.215  0.2593  0.0837 -0.4875
13877TIP3    H263047   3.989   1.055   1.237 -0.7662 -0.4221 -1.1351
13878TIP3   OH263048   5.228   3.435  11.417  0.0299 -0.4355  0.4693
13878TIP3    H163049   5.303   3.466  11.366 -0.2464  2.3763  1.6054
13878TIP3    H263050   5.263   3.424  11.506 -0.7067  0.1694  0.8451
13879TIP3   OH263051   3.868   5.329   3.273 -0.2915  0.4936  0.2816
13879TIP3    H163052   3.849   5.370   3.358  0.8286  1.1231  0.2400
13879TIP3    H263053   3.891   5.239   3.295 -4.1890 -0.7026  0.2627
13880TIP3   OH263054   3.439   3.528  16.165 -0.0552  0.0004 -0.1626
13880TIP3    H163055   3.459   3.583  16.089  0.8427 -2.3876 -1.7972
13880TIP3    H263056   3.395   3.586  16.226  0.3366  2.3601 -1.9734
13881TIP3   OH263057   3.051   1.738   0.906  0.2753 -0.1384 -0.5922
13881TIP3    H163058   3.001   1.682   0.966  0.9642 -0.8079 -0.6337
13881TIP3    H263059   3.054   1.823   0.950 -0.4669 -0.2258 -0.3583
13882TIP3   OH263060   2.097   2.000   1.464  0.2309  0.6439 -0.6257
13882TIP3    H163061   2.076   1.983   1.556 -0.5534  2.1184 -0.5004
13882TIP3    H263062   2.054   1.929   1.416  0.5552 -0.0764  0.1286
13883TIP3   OH263063   1.099   5.856   1.002 -0.4368 -0.3539 -0.3580
13883TIP3    H163064   1.020   5.856   0.949  0.1508 -0.0912 -1.2521
13883TIP3    H263065   1.109   5.765   1.030 -0.9072 -0.4387 -0.4610
13884TIP3   OH263066   5.662   4.901  12.313 -0.1829 -0.2919  0.2090
13884TIP3    H163067   5.606   4.831  12.347  0.6949 -0.9316  0.3628
13884TIP3    H263068   5.731   4.910  12.378  0.8263 -0.6759 -0.7736
13885TIP3   OH263069   1.558   0.535  15.233 -0.5255  0.2851  0.7083
13885TIP3    H163070   1.631   0.573  15.282  0.2914  1.5775 -1.3595
13885TIP3    H263071   1.563   0.577  15.147 -1.9733 -1.7326 -0.4410
13886TIP3   OH263072   1.422   1.334  14.583 -0.5163 -0.5485 -0.0734
13886TIP3    H163073   1.409   1.416  14.535 -0.8302 -0.6360 -0.1423
13886TIP3    H263074   1.368   1.270  14.535 -1.9896 -0.3339  1.2243
13887TIP3   OH263075   0.008   3.136   3.283 -0.2834  0.2358 -0.5921
13887TIP3    H163076   0.011   3.087   3.365 -1.2602 -0.3341 -0.8853
13887TIP3    H263077  -0.000   3.070   3.215  0.5248  0.7034 -1.1708
13888TIP3   OH263078   1.379   0.056   0.464  0.0455  0.4761  0.0225
13888TIP3    H163079   1.369  -0.019   0.524  2.8918 -0.5569 -0.6308
13888TIP3    H263080   1.437   0.024   0.395  0.2388  2.9159 -1.0525
13889TIP3   OH263081   1.048   3.002  13.114  0.0572 -0.2497  0.4264
13889TIP3    H163082   1.102   2.974  13.040 -0.5537 -0.0848 -0.0927
13889TIP3    H263083   1.056   3.097  13.115  1.0906 -0.3253  1.3820
13890TIP3   OH263084   4.188   6.747  11.787  0.4122  0.0144 -0.0528
13890TIP3    H163085   4.195   6.655  11.762  2.6218  0.2797 -0.6383
13890TIP3    H263086   4.165   6.745  11.880  1.0947 -1.1498  0.1093
13891TIP3   OH263087   1.974   5.209  16.910 -0.4677  0.0294 -0.0976
13891TIP3    H163088   1.920   5.288  16.901  2.0920  1.9097 -0.2568
13891TIP3    H263089   2.051   5.239  16.958  1.9340 -1.6579 -2.6163
13892TIP3   OH263090   0.969   4.841  14.116  0.4748 -0.1344 -0.5390
13892TIP3    H163091   0.887   4.888  14.130  0.0815 -0.1434 -2.5963
13892TIP3    H263092   0.952   4.783  14.042  0.7311 -4.1194  2.2050
13893TIP3   OH263093   3.613   5.994   3.037  0.2905 -0.3860 -0.0194
13893TIP3    H163094   3.528   6.028   3.008  0.4925 -1.7669 -2.5325
13893TIP3    H263095   3.595   5.906   3.068  0.8063 -0.7702 -0.7777
13894TIP3   OH263096   3.345   2.474   0.986  0.7430  0.2972  0.4805
13894TIP3    H163097   3.367   2.509   1.072  2.6087 -1.0795  0.6074
13894TIP3    H263098   3.429   2.460   0.943 -0.1311  0.4017 -1.3620
13895TIP3   OH263099   2.070   4.967   2.295 -0.1272 -0.1483  0.2164
13895TIP3    H163100   2.099   4.891   2.345  0.6434 -0.0920 -0.1397
13895TIP3    H263101   2.017   5.017   2.356  0.6771 -0.1579  0.9363
13896TIP3   OH263102   4.159   5.735   2.332 -0.1853  0.1353 -0.5357
13896TIP3    H163103   4.216   5.737   2.408  1.7650 -0.3902 -1.9146
13896TIP3    H263104   4.196   5.800   2.272 -0.4258 -0.8748 -1.8422
13897TIP3   OH263105   1.830   2.668  11.670 -0.2722  0.5348  0.7897
13897TIP3    H163106   1.755   2.719  11.699 -1.2754 -0.4695  0.0601
13897TIP3    H263107   1.793   2.602  11.611  1.5120  1.8336 -1.9970
13898TIP3   OH263108   0.442   2.241   4.777 -0.2903 -0.9951 -0.6557
13898TIP3    H163109   0.486   2.162   4.809  0.1527  0.3030  2.1618
13898TIP3    H263110   0.470   2.248   4.686  1.2725 -2.9625 -0.3967
13899TIP3   OH263111   4.090   6.221   2.905  0.3106 -0.3529 -0.1615
13899TIP3    H163112   4.006   6.250   2.869 -0.3080 -1.8019  0.0173
13899TIP3    H263113   4.078   6.127   2.919  0.8928 -0.0685  2.7984
13900TIP3   OH263114   1.280   2.510   2.043 -0.6830  0.3098 -0.7391
13900TIP3    H163115   1.340   2.437   2.030 -0.9931 -0.3621  1.1958
13900TIP3    H263116   1.215   2.500   1.974 -1.1884 -1.7976 -0.0628
13901TIP3   OH263117   4.117   0.035   3.320 -0.0434 -0.3121 -0.2268
13901TIP3    H163118   4.209   0.053   3.303  0.2133 -0.1014  1.3151
13901TIP3    H263119   4.070   0.096   3.263  0.7621 -0.1242 -0.7042
13902TIP3   OH263120   4.787   5.353  14.019  0.4397 -0.1065  0.4882
13902TIP3    H163121   4.811   5.441  13.988 -0.6231 -0.3135 -0.9672
13902TIP3    H263122   4.696   5.342  13.993  0.2704 -1.2987  1.4942
13903TIP3   OH263123   5.907   0.665  14.058 -0.3174  0.0309  0.2778
13903TIP3    H163124   5.896   0.755  14.091 -0.1280 -0.6100  2.2367
13903TIP3    H263125   5.818   0.630  14.055 -0.4507  0.4369 -1.0361
13904TIP3   OH263126   2.559   5.900  15.722 -0.5841 -0.0751 -0.7765
13904TIP3    H163127   2.491   5.953  15.763  1.2694  1.3918  0.5625
13904TIP3    H263128   2.607   5.962  15.667  0.1536 -0.9019 -1.0789
13905TIP3   OH263129   3.147   3.930   5.102 -0.3048 -0.0081 -0.3974
13905TIP3    H163130   3.052   3.939   5.109 -0.0147  2.8302  1.6835
13905TIP3    H263131   3.177   4.019   5.081  2.0048 -0.2855  1.3569
13906TIP3   OH263132   2.061   1.063   2.684  0.0699  0.4681  0.3209
13906TIP3    H163133   2.151   1.049   2.713 -0.4008  0.6247  1.9664
13906TIP3    H263134   2.047   0.997   2.616  0.7587 -0.9688  1.5184
13907TIP3   OH263135   6.790   1.117  12.734 -0.0918 -0.2290  0.2995
13907TIP3    H163136   6.739   1.041  12.705  0.3834 -0.1269 -0.8245
13907TIP3    H263137   6.839   1.085  12.809 -0.7568 -0.7116  0.5398
13908TIP3   OH263138   1.604   2.607  12.336  0.3072  0.2624  0.1843
13908TIP3    H163139   1.652   2.674  12.385 -3.3625  2.1190  1.6476
13908TIP3    H263140   1.548   2.657  12.276 -1.1424 -1.5630 -0.0815
13909TIP3   OH263141   4.856   6.092  12.057 -0.1707 -0.0286 -0.1262
13909TIP3    H163142   4.906   6.123  12.132  0.0506 -0.8385  0.0752
13909TIP3    H263143   4.917   6.036  12.010 -1.0049 -1.3922  0.3651
13910TIP3   OH263144   2.516   5.435   1.080 -0.5716 -0.4828 -0.1416
13910TIP3    H163145   2.594   5.483   1.051 -0.4847 -0.2953  0.4025
13910TIP3    H263146   2.484   5.484   1.156 -1.1278 -0.6514 -0.2607
13911TIP3   OH263147   4.492   3.963   3.159 -0.5036  0.2948  0.4809
13911TIP3    H163148   4.427   3.894   3.148  0.9519 -1.2810  1.3112
13911TIP3    H263149   4.517   3.958   3.251  0.9657  0.6837  0.1295
13912TIP3   OH263150   6.734   6.360  16.032 -0.1641 -0.2213  0.7539
13912TIP3    H163151   6.800   6.428  16.019  1.0243 -1.2386  1.3098
13912TIP3    H263152   6.692   6.384  16.115 -1.9833  1.5730 -0.5701
13913TIP3   OH263153   0.580   3.218  12.691 -0.0544 -0.3124  0.6903
13913TIP3    H163154   0.505   3.238  12.747 -1.6663 -0.2567 -1.3840
13913TIP3    H263155   0.589   3.295  12.635 -1.3671 -2.0443 -2.1067
13914TIP3   OH263156   0.492   5.902  14.625  0.1451  0.0958  0.0219
13914TIP3    H163157   0.518   5.811  14.616  2.9745  0.8827 -0.8523
13914TIP3    H263158   0.397   5.901  14.615  0.1346 -2.6793 -0.3995
13915TIP3   OH263159   3.086   0.949   2.785 -0.0011  0.3444  0.3619
13915TIP3    H163160   3.033   0.888   2.835  0.0198  0.7250  0.8592
13915TIP3    H263161   3.049   1.035   2.805  0.4378  0.5615  0.2637
13916TIP3   OH263162   5.356   5.268   5.012  0.0983  0.1910  0.2620
13916TIP3    H163163   5.370   5.255   5.106 -0.6751 -2.6372  0.0650
13916TIP3    H263164   5.264   5.294   5.005 -0.0294 -0.2577  0.2509
13917TIP3   OH263165   0.703   0.727  12.879  0.1769  0.4569 -0.3687
13917TIP3    H163166   0.712   0.770  12.964 -0.2066  2.7735 -1.4277
13917TIP3    H263167   0.779   0.757  12.828 -0.1872 -0.0001 -1.2114
13918TIP3   OH263168   2.285   4.178   2.049 -0.7089 -0.3244 -0.2481
13918TIP3    H163169   2.240   4.218   2.124 -1.9711 -1.5322 -0.3279
13918TIP3    H263170   2.363   4.232   2.037  0.4308 -0.9911  2.9560
13919TIP3   OH263171   5.875   6.033   0.483  0.3388 -0.1111  0.0151
13919TIP3    H163172   5.792   6.067   0.513  0.5762 -0.6966  1.4163
13919TIP3    H263173   5.933   6.109   0.478 -0.5118  0.4667 -1.9626
13920TIP3   OH263174   3.810   3.535  13.384  0.0063  0.0451 -0.2503
13920TIP3    H163175   3.737   3.512  13.327  0.7004 -1.1936 -0.6892
13920TIP3    H263176   3.829   3.627  13.362 -2.2185  0.8280  0.8253
13921TIP3   OH263177   6.438   5.440   0.128 -0.1773 -0.2888  0.8740
13921TIP3    H163178   6.526   5.446   0.164  1.2526  0.6857 -2.3962
13921TIP3    H263179   6.419   5.346   0.127  1.9211 -0.7608 -0.5884
13922TIP3   OH263180   2.167   6.171  11.519  0.4761  0.1169 -0.3672
13922TIP3    H163181   2.255   6.190  11.553  0.0128  1.0155  0.3710
13922TIP3    H263182   2.149   6.082  11.548  0.2762  0.7045  1.4150
13923TIP3   OH263183   3.321   1.869   0.530  0.6123  0.7808  0.4183
13923TIP3    H163184   3.286   1.791   0.572 -0.6327  1.6333  1.0172
13923TIP3    H263185   3.300   1.941   0.590 -0.2619  1.8807 -1.1120
13924TIP3   OH263186   5.327   0.286   5.173 -0.0396  0.8245 -0.1244
13924TIP3    H163187   5.260   0.218   5.172 -1.3554  2.0704 -0.0187
13924TIP3    H263188   5.330   0.315   5.264  1.9939 -0.4328  0.2931
13925TIP3   OH263189   6.153   3.389   2.865 -0.0172 -0.0112 -0.5318
13925TIP3    H163190   6.177   3.324   2.931  0.5392  0.2302 -0.4952
13925TIP3    H263191   6.068   3.423   2.895  1.2340  1.7290  1.3381
13926TIP3   OH263192   6.673   6.818  15.139  0.1275 -0.1401 -0.2130
13926TIP3    H163193   6.595   6.762  15.143  0.1959 -0.1665  1.0944
13926TIP3    H263194   6.725   6.781  15.068 -1.4303  0.4064 -1.7049
13927TIP3   OH263195   3.428   5.738  14.499 -0.1984  0.4636 -0.8784
13927TIP3    H163196   3.473   5.810  14.455  0.4233 -0.0990 -1.1736
13927TIP3    H263197   3.415   5.769  14.588 -1.2602  1.5261 -1.3715
13928TIP3   OH263198   4.609   4.426  16.401  1.1907  0.5265  0.2931
13928TIP3    H163199   4.546   4.440  16.471  1.3999 -0.0924  0.6137
13928TIP3    H263200   4.615   4.510  16.356 -1.7157 -0.0017 -1.2880
13929TIP3   OH263201   1.512   2.051   5.231 -0.3546 -0.2218 -0.5064
13929TIP3    H163202   1.468   2.053   5.316 -0.9681 -1.2723 -0.7743
13929TIP3    H263203   1.464   2.113   5.177 -1.2777 -1.0638 -0.6754
13930TIP3   OH263204   3.621   6.103   2.270  0.4372 -0.9780 -0.5195
13930TIP3    H163205   3.566   6.180   2.284 -0.2647 -1.6014  0.1792
13930TIP3    H263206   3.710   6.135   2.285  0.3685  0.1685 -2.2165
13931TIP3   OH263207   3.193   4.065   2.938 -0.3383 -0.3075 -0.3612
13931TIP3    H163208   3.192   4.132   3.007 -0.7756 -1.2976  0.6399
13931TIP3    H263209   3.262   4.004   2.965 -0.1284 -0.4055 -1.1075
13932TIP3   OH263210   5.679   2.299   1.203  0.0932  0.1916 -0.5298
13932TIP3    H163211   5.628   2.228   1.164 -0.8189  1.6218 -2.0725
13932TIP3    H263212   5.671   2.371   1.140  0.8240  1.7233  1.0698
13933TIP3   OH263213   1.183   3.873   4.435  0.3186 -0.6906 -0.0342
13933TIP3    H163214   1.212   3.917   4.515  0.5131  0.7205 -0.8485
13933TIP3    H263215   1.254   3.888   4.372  0.1966 -1.8334 -0.4661
13934TIP3   OH263216   0.122   3.903   4.373  0.3900 -0.4475 -0.1528
13934TIP3    H163217   0.072   3.946   4.304 -0.6736 -1.1959  0.1241
13934TIP3    H263218   0.177   3.972   4.410 -0.3340  0.3608 -0.5628
13935TIP3   OH263219   4.681   2.464  13.855  0.2924  0.0455  0.1105
13935TIP3    H163220   4.616   2.501  13.795  1.3110 -0.1386 -1.1280
13935TIP3    H263221   4.739   2.412  13.800  0.8881 -0.6623  1.3515
13936TIP3   OH263222   1.568   6.795  13.875  0.2098 -0.1334 -0.2073
13936TIP3    H163223   1.576   6.859  13.945  1.2259  0.3415 -0.7307
13936TIP3    H263224   1.655   6.758  13.866  0.8098  1.5552 -2.8032
13937TIP3   OH263225   0.432   4.366   3.221  0.2195  0.1884 -0.8808
13937TIP3    H163226   0.395   4.326   3.299 -0.0571  1.6411 -0.2229
13937TIP3    H263227   0.507   4.311   3.199 -0.2033 -0.7239 -0.0983
13938TIP3   OH263228   4.718   3.853   2.998 -0.2132  0.4588  0.1674
13938TIP3    H163229   4.736   3.770   3.044 -0.0154 -0.3204 -1.2439
13938TIP3    H263230   4.627   3.872   3.017 -0.6882 -0.8681 -0.6204
13939TIP3   OH263231   3.178   5.373   0.187  0.1344  0.2254  0.5877
13939TIP3    H163232   3.138   5.409   0.266 -0.6520 -0.1658  0.3747
13939TIP3    H263233   3.205   5.285   0.211 -1.8784 -0.6438 -0.0917
13940TIP3   OH263234   4.660   5.495  10.849 -0.0350 -0.0424 -0.3863
13940TIP3    H163235   4.671   5.586  10.819 -0.8111 -0.1389 -0.9925
13940TIP3    H263236   4.747   5.469  10.878  0.2122  0.8787 -0.2731
13941TIP3   OH263237   5.346   3.834   5.263 -0.2488 -0.8427 -0.0875
13941TIP3    H163238   5.303   3.919   5.258 -0.2122 -0.6848  1.6139
13941TIP3    H263239   5.409   3.835   5.191 -2.6230 -0.8587 -2.2885
13942TIP3   OH263240   2.062   0.474  12.168 -0.4719  0.1868  0.1760
13942TIP3    H163241   2.102   0.431  12.244 -0.3422 -0.5922 -0.3195
13942TIP3    H263242   2.003   0.408  12.131 -1.4918  0.9867  0.3241
13943TIP3   OH263243   4.293   5.814   3.769  0.3952 -0.0994  0.6239
13943TIP3    H163244   4.244   5.895   3.786 -2.3045 -1.7797  1.5131
13943TIP3    H263245   4.256   5.782   3.686  0.2916 -1.1873  1.0793
13944TIP3   OH263246   4.590   2.746  17.039 -0.0380 -0.1525  0.1361
13944TIP3    H163247   4.531   2.742  16.964 -0.0957  1.4176  0.0757
13944TIP3    H263248   4.532   2.748  17.115  0.0169 -1.4999  0.2457
13945TIP3   OH263249   2.199   3.517  16.052  0.1995 -0.7636 -0.2039
13945TIP3    H163250   2.218   3.436  16.100 -0.3871 -1.2140 -0.7077
13945TIP3    H263251   2.268   3.522  15.985 -0.0824 -1.1478 -0.5280
13946TIP3   OH263252   3.774   2.550  12.012  0.0233  0.1826  0.0044
13946TIP3    H163253   3.684   2.583  12.015  0.7133  2.1793  1.4348
13946TIP3    H263254   3.774   2.475  12.071 -0.3348  1.3901  1.6181
13947TIP3   OH263255   2.525   4.299   1.930  0.2280 -0.0331 -0.0339
13947TIP3    H163256   2.517   4.322   1.837  0.8195  0.4891  0.0411
13947TIP3    H263257   2.602   4.243   1.934 -0.2703 -0.7228  0.0265
13948TIP3   OH263258   6.491   1.939  11.342 -0.4864  0.2060  0.7874
13948TIP3    H163259   6.439   1.899  11.273 -1.1149  0.4331  1.1159
13948TIP3    H263260   6.471   2.032  11.336 -2.1343  0.0284  2.5216
13949TIP3   OH263261   2.747   6.504  11.864  0.0692 -0.3714 -0.0731
13949TIP3    H163262   2.832   6.496  11.906  0.9890  2.2289 -1.3060
13949TIP3    H263263   2.763   6.486  11.772 -0.2502  2.0739 -0.6679
13950TIP3   OH263264   5.399   3.273   3.051 -0.7029 -0.1245 -0.5174
13950TIP3    H163265   5.459   3.282   3.125 -1.8318 -0.8861  0.5330
13950TIP3    H263266   5.438   3.327   2.982  1.0238 -0.3823  0.2065
13951TIP3   OH263267   2.298   4.775  16.146 -0.6674  0.2054 -0.4400
13951TIP3    H163268   2.380   4.737  16.115 -0.3103  0.2170  0.4612
13951TIP3    H263269   2.317   4.868  16.157 -1.0180  0.3372 -0.9287
13952TIP3   OH263270   2.785   4.916   1.926 -0.3612 -0.4797  0.2771
13952TIP3    H163271   2.782   5.007   1.956 -0.0092 -0.5571  0.5547
13952TIP3    H263272   2.855   4.876   1.978 -0.5844 -0.9344  0.2289
13953TIP3   OH263273   4.049   1.331   0.545 -0.6187  0.0096  0.0519
13953TIP3    H163274   4.082   1.348   0.634  1.1517 -0.9397 -0.3697
13953TIP3    H263275   4.055   1.415   0.500  1.3708 -0.1259 -0.0111
13954TIP3   OH263276   5.784   3.229   4.214  0.3302 -0.7914 -0.1518
13954TIP3    H163277   5.765   3.314   4.254  0.9226  0.6692 -2.7497
13954TIP3    H263278   5.784   3.168   4.287 -1.3150  1.2200  1.6670
13955TIP3   OH263279   0.672   5.114  15.353 -0.3132 -0.2402 -0.7371
13955TIP3    H163280   0.612   5.161  15.412  0.5170 -1.8128  1.5075
13955TIP3    H263281   0.697   5.179  15.287 -2.5517  1.1495 -0.3212
13956TIP3   OH263282   1.295   5.951  16.242  0.6471  0.0050  0.2381
13956TIP3    H163283   1.214   5.958  16.192 -0.1573 -0.5701  1.3978
13956TIP3    H263284   1.299   6.033  16.292  1.3083  0.4600 -0.5311
13957TIP3   OH263285   2.283   2.697  14.025  0.5376  0.4477  0.0461
13957TIP3    H163286   2.343   2.755  14.072  2.1843 -1.9243  1.0249
13957TIP3    H263287   2.288   2.727  13.934  2.6299  0.8002  0.2371
13958TIP3   OH263288   4.924   1.664   0.371 -0.1368  0.5018  0.0925
13958TIP3    H163289   4.842   1.643   0.415  0.7740 -0.3754  1.4541
13958TIP3    H263290   4.898   1.692   0.283 -1.7759 -1.9808 -0.3172
13959TIP3   OH263291   2.614   5.678   2.725  0.5157 -0.2743 -0.4225
13959TIP3    H163292   2.688   5.733   2.700  1.1564 -0.1073  1.6202
13959TIP3    H263293   2.602   5.696   2.818 -0.8211 -1.8066 -0.2593
13960TIP3   OH263294   2.934   3.218   1.106 -0.4613  0.5977  0.0817
13960TIP3    H163295   2.957   3.255   1.191  0.2296 -0.6568  0.4674
13960TIP3    H263296   2.876   3.145   1.127 -1.2974  1.0581 -0.6133
13961TIP3   OH263297   1.755   0.031  16.663  0.0402  0.2594 -0.1482
13961TIP3    H163298   1.755  -0.060  16.692 -2.0925  0.1152 -0.4505
13961TIP3    H263299   1.731   0.081  16.741  0.4590  0.4965 -0.1691
13962TIP3   OH263300   5.429   0.795   5.150 -0.1268 -0.7040  0.6767
13962TIP3    H163301   5.449   0.702   5.138  1.8727 -0.2307 -0.0330
13962TIP3    H263302   5.494   0.826   5.212  0.8982  0.7541 -1.0399
13963TIP3   OH263303   6.544   1.558   3.667 -0.1915  0.0988  0.1144
13963TIP3    H163304   6.613   1.514   3.618 -0.9085 -0.6544 -0.2617
13963TIP3    H263305   6.529   1.501   3.743  0.9092  1.2531  1.2518
13964TIP3   OH263306   0.583   1.178  15.895 -0.0643 -0.1988 -0.1845
13964TIP3    H163307   0.668   1.157  15.857 -0.2890 -1.0112 -0.2448
13964TIP3    H263308   0.523   1.113  15.859 -0.4095 -0.5931  1.0374
13965TIP3   OH263309   1.736   5.201  13.459  0.7731 -0.1054 -0.3214
13965TIP3    H163310   1.807   5.201  13.396  1.5895 -0.9085  0.5683
13965TIP3    H263311   1.780   5.207  13.544 -0.2127 -0.6618  0.2433
13966TIP3   OH263312   2.097   5.676   1.925  0.9133  0.3338 -0.9160
13966TIP3    H163313   2.133   5.751   1.972  3.9580 -0.8588 -1.1404
13966TIP3    H263314   2.047   5.629   1.992 -0.3241  2.0447 -0.5732
13967TIP3   OH263315   6.573   4.566  11.178 -0.3753  0.4522  0.1893
13967TIP3    H163316   6.538   4.478  11.196 -0.9217  1.0332  2.2487
13967TIP3    H263317   6.630   4.553  11.102 -1.9056 -1.3037 -0.7547
13968TIP3   OH263318   6.478   6.684  12.428 -0.4472  0.3797  0.0704
13968TIP3    H163319   6.544   6.735  12.379  0.0143 -0.9231 -0.7080
13968TIP3    H263320   6.396   6.730  12.412 -0.0236  0.9576 -0.5197
13969TIP3   OH263321   2.804   3.040  12.209 -0.0837  0.3599 -0.1206
13969TIP3    H163322   2.827   2.999  12.293  2.1460  0.4996 -0.6075
13969TIP3    H263323   2.791   3.132  12.230 -3.2791 -0.1341  0.6483
13970TIP3   OH263324   0.117   1.842  11.401 -0.2278 -0.5787 -0.2246
13970TIP3    H163325   0.058   1.910  11.433 -1.3889 -2.0257  0.8457
13970TIP3    H263326   0.065   1.761  11.404  1.2189 -1.6011 -1.0803
13971TIP3   OH263327   3.200   0.007   6.554  0.2148 -0.5417  0.6421
13971TIP3    H163328   3.278  -0.033   6.593  2.1154  0.4527 -1.8454
13971TIP3    H263329   3.152  -0.066   6.514  1.6848 -0.8489 -0.6578
13972TIP3   OH263330   3.505   3.600   0.054 -0.2803 -0.2893 -0.3391
13972TIP3    H163331   3.433   3.561   0.005 -0.6267  0.2134 -0.2311
13972TIP3    H263332   3.565   3.527   0.070 -0.3483 -0.5358 -1.1718
13973TIP3   OH263333   0.044   2.972  11.574  0.1679 -0.1619  0.3610
13973TIP3    H163334   0.124   2.969  11.626 -0.8367  0.2443  1.9777
13973TIP3    H263335   0.030   3.065  11.556 -0.5218 -0.1178  1.0578
13974TIP3   OH263336   3.891   3.346  10.793  0.3380 -0.0086  0.2350
13974TIP3    H163337   3.858   3.436  10.793 -0.4248 -0.2826  0.5317
13974TIP3    H263338   3.827   3.298  10.740 -0.9668 -0.9809  2.5581
13975TIP3   OH263339   5.811   5.229  12.318  0.7627  0.1792 -0.2902
13975TIP3    H163340   5.881   5.164  12.324  0.1354 -0.4486  0.4608
13975TIP3    H263341   5.842   5.291  12.252  0.9817 -1.3700 -1.7225
13976TIP3   OH263342   5.183   1.108   5.824 -0.4524  0.0678 -0.1110
13976TIP3    H163343   5.224   1.060   5.896  0.0966 -0.1667 -0.5691
13976TIP3    H263344   5.090   1.110   5.846 -0.0437  2.1181  1.8566
13977TIP3   OH263345   4.952   4.898   3.815 -0.9309  0.5147  0.8648
13977TIP3    H163346   5.046   4.918   3.819 -1.0082  0.9650  0.5351
13977TIP3    H263347   4.948   4.803   3.804 -0.4725  0.6295 -0.4798
13978TIP3   OH263348   5.906   5.439  15.053  0.5416 -0.3678 -0.2161
13978TIP3    H163349   5.890   5.350  15.022  0.0589  0.1600 -1.5496
13978TIP3    H263350   5.977   5.471  14.997  0.3077  0.2915 -0.1366
13979TIP3   OH263351   4.117   2.597   6.037 -0.3844  0.0543  0.0570
13979TIP3    H163352   4.077   2.553   6.112 -0.5945  0.3175  0.0975
13979TIP3    H263353   4.209   2.605   6.061 -0.0318 -1.6954 -0.5649
13980TIP3   OH263354   3.324   1.460   1.629 -0.0098 -0.8289 -0.2392
13980TIP3    H163355   3.412   1.431   1.656  0.0268 -1.1014 -0.6469
13980TIP3    H263356   3.335   1.491   1.539  0.4981  2.8830  0.9190
13981TIP3   OH263357   4.409   0.284   0.271  0.5029  0.1817 -0.2645
13981TIP3    H163358   4.372   0.371   0.254 -0.7332 -0.5888 -1.8879
13981TIP3    H263359   4.499   0.290   0.241  0.4853  0.9802 -0.1674
13982TIP3   OH263360   4.571   0.921   2.252 -0.0223  0.7099  0.7708
13982TIP3    H163361   4.487   0.962   2.232  0.3433  2.1538  2.0612
13982TIP3    H263362   4.550   0.854   2.317 -0.2202  0.7951  0.7963
13983TIP3   OH263363   6.563   2.694  13.067  0.3192 -0.1067  0.4049
13983TIP3    H163364   6.622   2.713  12.994 -1.3021  0.1236 -0.9194
13983TIP3    H263365   6.533   2.604  13.050 -1.1192  0.4230 -0.0318
13984TIP3   OH263366   6.514   0.064  11.884  0.2541 -0.4861 -0.0396
13984TIP3    H163367   6.473   0.151  11.891  1.2548  0.5080 -3.7651
13984TIP3    H263368   6.605   0.079  11.910  0.6928 -0.0609 -1.6831
13985TIP3   OH263369   1.120   0.551  14.188 -0.2366  0.4133  0.4460
13985TIP3    H163370   1.211   0.555  14.215  0.1785 -0.2055 -0.7941
13985TIP3    H263371   1.122   0.567  14.094 -1.6958  3.2787  0.7713
13986TIP3   OH263372   2.180   1.118   0.896  0.4464 -0.1151 -0.5250
13986TIP3    H163373   2.216   1.176   0.963 -0.9978 -0.2942  0.4614
13986TIP3    H263374   2.192   1.030   0.933  1.4197 -0.3803 -1.4151
13987TIP3   OH263375   1.202   6.337   4.922  0.5011 -0.0875 -0.7891
13987TIP3    H163376   1.229   6.255   4.881 -2.4716 -0.3967 -2.4641
13987TIP3    H263377   1.161   6.311   5.004  1.5078 -0.0170 -0.2496
13988TIP3   OH263378   3.874   3.817   6.561  0.1567  0.3149  0.3340
13988TIP3    H163379   3.798   3.764   6.584  0.3422 -0.2886 -0.3961
13988TIP3    H263380   3.948   3.756   6.562  0.4288  0.6282 -0.1803
13989TIP3   OH263381   5.691   0.149   0.189  0.0137 -0.4449 -0.5301
13989TIP3    H163382   5.606   0.136   0.231  1.4743 -0.4243  2.7672
13989TIP3    H263383   5.742   0.072   0.213  1.1395 -0.1652 -1.9055
13990TIP3   OH263384   0.517   3.299  13.072 -0.3482  0.1025 -1.0385
13990TIP3    H163385   0.453   3.281  13.002  0.3826 -0.3377 -1.6081
13990TIP3    H263386   0.530   3.214  13.114 -2.9389  0.8133  1.5873
13991TIP3   OH263387   3.075   0.280  16.939  0.0284  0.4598 -0.0569
13991TIP3    H163388   3.005   0.323  16.988  0.8929  2.6383 -0.6352
13991TIP3    H263389   3.051   0.292  16.847  1.1964  1.3886 -0.2713
13992TIP3   OH263390   1.509   6.210  17.072 -0.2583  0.1343  0.6540
13992TIP3    H163391   1.425   6.184  17.110 -0.9808  0.0750 -0.9183
13992TIP3    H263392   1.558   6.128  17.063 -0.3841  0.0489  0.7432
13993TIP3   OH263393   3.591   4.215   0.566 -0.0150  0.5066  0.0489
13993TIP3    H163394   3.596   4.309   0.578 -0.5148  0.9337 -2.5542
13993TIP3    H263395   3.497   4.196   0.564  0.0807 -0.0254  0.3224
13994TIP3   OH263396   1.614   4.939  11.237 -0.3524  0.3475 -0.2405
13994TIP3    H163397   1.651   4.913  11.153 -0.4929 -0.2359 -0.1246
13994TIP3    H263398   1.649   4.877  11.300  0.5004  1.3550  0.3040
13995TIP3   OH263399   5.339   2.638   2.517 -0.1317  0.1761  0.0330
13995TIP3    H163400   5.263   2.606   2.564 -1.0712  1.1582 -0.7726
13995TIP3    H263401   5.380   2.700   2.577  0.1266 -0.4608  0.5226
13996TIP3   OH263402   5.923   1.966   3.587  0.5771  0.4908  0.6951
13996TIP3    H163403   5.961   1.906   3.651 -0.0207  0.4277  0.9991
13996TIP3    H263404   5.978   2.044   3.591  1.8468 -0.3074 -0.2641
13997TIP3   OH263405   4.670   0.858   3.184 -0.0063 -0.2606 -0.3174
13997TIP3    H163406   4.684   0.873   3.090  4.4858  0.2736  0.2287
13997TIP3    H263407   4.652   0.945   3.220  1.2829  0.0194 -0.3261
13998TIP3   OH263408   5.546   6.643   1.923 -0.1568  0.2161  0.2437
13998TIP3    H163409   5.622   6.626   1.978 -0.8820  1.2076  1.5998
13998TIP3    H263410   5.479   6.675   1.983 -1.1813  0.7526 -1.1303
13999TIP3   OH263411   0.385   0.403  15.806  0.1325 -0.3285  0.7298
13999TIP3    H163412   0.326   0.328  15.815  1.9059 -1.6666  2.0007
13999TIP3    H263413   0.441   0.381  15.731  0.9338 -0.4968  1.3661
14000TIP3   OH263414   1.084   4.014   3.413  0.1243  0.3076  0.5394
14000TIP3    H163415   1.016   3.980   3.355  0.7511 -2.0995  1.1174
14000TIP3    H263416   1.079   3.960   3.491  1.9649  0.7856  1.0473
14001TIP3   OH263417   3.840   0.690   3.466  0.2438 -0.1407 -0.9160
14001TIP3    H163418   3.900   0.725   3.532  0.0556 -1.2823 -0.1097
14001TIP3    H263419   3.829   0.762   3.404  1.6433  0.4341 -0.5456
14002TIP3   OH263420   3.445   2.930   5.218  0.3107 -0.2097  0.1744
14002TIP3    H163421   3.483   2.990   5.155  0.0815 -0.3318 -0.0858
14002TIP3    H263422   3.448   2.844   5.174  0.0120 -0.2689  0.2631
14003TIP3   OH263423   3.844   0.226  14.723 -0.1417  0.4959  0.5006
14003TIP3    H163424   3.847   0.245  14.629 -0.7964 -1.5773  0.0082
14003TIP3    H263425   3.754   0.196  14.738 -0.7934  3.0627  2.3261
14004TIP3   OH263426   1.587   6.732  16.193  1.1468 -0.3121 -0.5810
14004TIP3    H163427   1.578   6.640  16.168  0.7470 -0.8018  1.1814
14004TIP3    H263428   1.678   6.754  16.172  1.0872 -0.9182 -1.5514
14005TIP3   OH263429   2.192   0.774   3.966  0.0871  0.0624  0.2954
14005TIP3    H163430   2.126   0.827   3.921  1.2769  0.3456 -1.1796
14005TIP3    H263431   2.196   0.692   3.917  2.4901  0.9632 -1.1797
14006TIP3   OH263432   3.748   1.229   2.691  0.2853 -0.0858  0.4476
14006TIP3    H163433   3.798   1.151   2.666  0.4431 -0.0624  0.6871
14006TIP3    H263434   3.675   1.195   2.743 -0.6314 -0.2321 -0.8912
14007TIP3   OH263435   1.564   0.073   6.682 -0.1392 -0.0533  0.3690
14007TIP3    H163436   1.487   0.129   6.666 -1.8301 -1.7911  1.8979
14007TIP3    H263437   1.573   0.021   6.602  0.3856  1.1473 -0.3833
14008TIP3   OH263438   3.393   2.621   1.450  0.3718  0.6264  0.1726
14008TIP3    H163439   3.450   2.659   1.517 -0.0712  0.3100  0.7424
14008TIP3    H263440   3.307   2.660   1.467  0.2330  0.4624 -0.1445
14009TIP3   OH263441   3.570   1.363   4.515 -0.0926  0.2938  0.4936
14009TIP3    H163442   3.484   1.370   4.555  0.1619 -0.8322  1.3044
14009TIP3    H263443   3.554   1.333   4.426 -0.5762  1.0664  0.3121
14010TIP3   OH263444   1.401   1.501  13.217 -0.0071 -0.1822 -0.3989
14010TIP3    H163445   1.479   1.449  13.239 -0.3986 -1.3377 -1.6015
14010TIP3    H263446   1.429   1.592  13.230  0.8474 -0.6384  1.3004
14011TIP3   OH263447   4.532   1.732  11.036 -0.1170 -0.1734  0.3584
14011TIP3    H163448   4.611   1.685  11.063 -0.4460 -1.3736 -0.6655
14011TIP3    H263449   4.478   1.735  11.115 -0.4354 -2.3075  0.2920
14012TIP3   OH263450   3.778   2.992  11.411 -0.7641 -0.3770 -0.0365
14012TIP3    H163451   3.796   3.068  11.467  0.7412 -1.1074  0.5126
14012TIP3    H263452   3.776   3.028  11.322 -1.2782  0.4932  0.3167
14013TIP3   OH263453   5.948   2.091  13.181  0.3921 -0.1446  0.1067
14013TIP3    H163454   5.864   2.100  13.135  0.1223 -1.8755  0.1788
14013TIP3    H263455   5.928   2.117  13.271  0.3511  1.0087 -0.2198
14014TIP3   OH263456   2.407   4.292  12.749  0.4481  0.0946  0.2620
14014TIP3    H163457   2.340   4.237  12.791  1.6721 -0.7682  1.1601
14014TIP3    H263458   2.469   4.230  12.711  1.4864  0.8532  0.6684
14015TIP3   OH263459   4.335   4.607   3.635  0.5272 -0.0305  0.2755
14015TIP3    H163460   4.242   4.625   3.649 -0.4271 -3.3433 -0.7239
14015TIP3    H263461   4.358   4.658   3.557  0.1925  2.4295  1.7053
14016TIP3   OH263462   6.022   1.048  15.498 -0.1473 -0.5542 -0.1349
14016TIP3    H163463   5.958   0.977  15.495 -0.1401 -0.5551 -0.2695
14016TIP3    H263464   6.073   1.031  15.577 -1.4654  0.4358  0.9793
14017TIP3   OH263465   5.650   6.376  12.109 -0.1133 -0.4873 -0.0134
14017TIP3    H163466   5.649   6.307  12.043  2.0450  0.3572 -1.0699
14017TIP3    H263467   5.607   6.450  12.066  0.9401 -0.0596 -0.3744
14018TIP3   OH263468   0.411   1.205   4.711  0.2630 -0.2505  0.2638
14018TIP3    H163469   0.405   1.139   4.643 -1.9054  1.4105 -1.3223
14018TIP3    H263470   0.448   1.282   4.667  1.0510  0.1495  1.5739
14019TIP3   OH263471   2.081   5.579   4.712 -0.1999 -0.2862 -0.3249
14019TIP3    H163472   2.078   5.674   4.722  2.0521 -0.1300 -0.7663
14019TIP3    H263473   2.092   5.546   4.800 -3.3080 -0.3576  0.1487
14020TIP3   OH263474   0.186   0.910  15.466  0.3161 -0.4394 -0.0040
14020TIP3    H163475   0.154   0.858  15.540  0.6849  0.6151  0.9427
14020TIP3    H263476   0.271   0.873  15.444  0.4333 -0.4458  0.4511
14021TIP3   OH263477   2.168   0.548  13.934 -0.4821  0.3172  0.1264
14021TIP3    H163478   2.077   0.539  13.961 -1.5851 -0.3028 -3.2820
14021TIP3    H263479   2.191   0.463  13.897  0.6742  1.1058 -1.0846
14022TIP3   OH263480   2.715   5.580  11.689  0.0731  0.2739  0.6027
14022TIP3    H163481   2.662   5.657  11.669  1.5914  1.0854 -0.4635
14022TIP3    H263482   2.657   5.505  11.672 -0.4887  1.1059 -1.3488
14023TIP3   OH263483   3.162   6.775   2.774 -0.4734 -0.1680 -0.0913
14023TIP3    H163484   3.098   6.836   2.810 -2.1423 -1.2163 -1.1971
14023TIP3    H263485   3.140   6.691   2.813  0.4147 -0.4926 -0.2687
14024TIP3   OH263486   1.457   3.590   2.884  0.0976 -0.4910 -0.2748
14024TIP3    H163487   1.415   3.673   2.865  0.0082 -0.1190  1.3899
14024TIP3    H263488   1.481   3.555   2.798 -0.5974  0.8505 -1.0499
14025TIP3   OH263489   2.425   1.722  13.206  0.4355 -0.8975 -0.1007
14025TIP3    H163490   2.474   1.666  13.266 -0.5583  0.6367  2.3151
14025TIP3    H263491   2.452   1.811  13.230 -2.5260 -0.0596  0.5522
14026TIP3   OH263492   3.436   4.244  15.383 -0.1116  0.5712  0.1056
14026TIP3    H163493   3.494   4.171  15.402 -0.2617  0.2018 -0.8067
14026TIP3    H263494   3.348   4.207  15.388 -0.2419  0.9638  0.7865
14027TIP3   OH263495   5.217   0.804   0.048  0.4748 -0.1003 -0.4781
14027TIP3    H163496   5.271   0.802  -0.031  0.9531 -0.7903 -0.1504
14027TIP3    H263497   5.272   0.764   0.115  0.1628  0.6929  0.2670
14028TIP3   OH263498   2.558   1.712   3.991 -0.3954  0.1942  0.8567
14028TIP3    H163499   2.541   1.727   3.898  0.6183  0.8733  0.7661
14028TIP3    H263500   2.522   1.625   4.008 -2.4967  0.8940  0.3425
14029TIP3   OH263501   3.604   3.455   5.131 -0.2842  0.0803  0.1014
14029TIP3    H163502   3.696   3.433   5.150 -0.7248 -0.9433  1.1934
14029TIP3    H263503   3.579   3.393   5.063 -0.7120 -1.0157  1.2096
14030TIP3   OH263504   6.391   6.083  17.080  0.1595  0.0813 -0.0609
14030TIP3    H163505   6.367   6.006  17.132  2.0500 -1.9281 -1.9488
14030TIP3    H263506   6.487   6.083  17.080  0.2049  1.8965 -0.9349
14031TIP3   OH263507   0.576   4.096   4.307 -0.1213  0.3180 -0.6731
14031TIP3    H163508   0.522   4.100   4.227  0.5667  2.0848 -1.0893
14031TIP3    H263509   0.635   4.022   4.292 -0.6778 -0.0004 -1.3598
14032TIP3   OH263510   4.715   1.906   0.340  0.9005  0.2896 -0.4402
14032TIP3    H163511   4.731   1.832   0.282 -1.8317 -1.9335  1.3225
14032TIP3    H263512   4.648   1.957   0.296 -0.2760 -0.7143  0.1138
14033TIP3   OH263513   2.082   4.150  16.415  0.1681 -0.0747 -0.0344
14033TIP3    H163514   2.095   4.056  16.420  1.1036  0.0014 -0.7453
14033TIP3    H263515   2.085   4.179  16.506 -2.0804 -0.9325  0.3822
14034TIP3   OH263516   5.785   3.460  16.774  0.1088  0.0041 -0.3233
14034TIP3    H163517   5.856   3.516  16.743 -1.1482  1.4056 -0.8209
14034TIP3    H263518   5.736   3.437  16.695 -0.4858 -0.2016  0.0961
14035TIP3   OH263519   3.601   0.271  13.673 -0.0721  0.6674 -0.1966
14035TIP3    H163520   3.553   0.341  13.716  0.7501  1.1762 -0.0793
14035TIP3    H263521   3.684   0.264  13.721  0.8671  1.2379 -1.6426
14036TIP3   OH263522   6.184   4.596  13.642 -0.6105  0.6103 -0.1014
14036TIP3    H163523   6.234   4.638  13.572  0.1181  0.7441  0.4848
14036TIP3    H263524   6.186   4.503  13.621  0.2942  0.5615  0.1589
14037TIP3   OH263525   5.896   3.208   3.363 -0.2620  0.2438  0.3307
14037TIP3    H163526   5.843   3.129   3.351  2.4692 -1.6185 -0.6708
14037TIP3    H263527   5.887   3.256   3.281 -0.7539  0.1750  0.3433
14038TIP3   OH263528   1.956   4.455  16.303  0.4211  0.1122  0.1324
14038TIP3    H163529   2.029   4.510  16.333 -0.9577  3.1243 -1.5481
14038TIP3    H263530   1.900   4.446  16.380  0.5648  1.3927  0.4219
14039TIP3   OH263531   3.934   6.400  15.945  0.3930 -0.8686 -0.0955
14039TIP3    H163532   4.028   6.382  15.943  0.7228  0.6172  0.7986
14039TIP3    H263533   3.909   6.387  16.036 -0.2682 -1.2397 -0.3271
14040TIP3   OH263534   2.437   0.362  12.701 -0.5414  0.2445  0.6290
14040TIP3    H163535   2.481   0.446  12.714 -1.1371  1.0061 -1.7277
14040TIP3    H263536   2.508   0.298  12.698  0.1140  0.9725  0.2773
14041TIP3   OH263537   3.153   0.229  11.448  0.5078  0.2086 -0.0503
14041TIP3    H163538   3.090   0.196  11.512  0.6991  1.1578  0.6542
14041TIP3    H263539   3.229   0.172  11.457  0.3043 -0.0355  0.1446
14042TIP3   OH263540   0.889   2.615  16.885 -0.2282 -0.2214 -0.2381
14042TIP3    H163541   0.852   2.689  16.931  0.9243  0.2892 -0.0873
14042TIP3    H263542   0.925   2.559  16.954  0.3847 -0.0767 -0.4296
14043TIP3   OH263543   6.011   6.218  11.780 -0.0088 -0.6095 -0.6193
14043TIP3    H163544   6.067   6.295  11.788  0.6346 -0.7409 -2.9513
14043TIP3    H263545   6.068   6.151  11.743 -0.9980 -1.6547 -0.2883
14044TIP3   OH263546   0.538   4.917   3.702 -0.7611 -0.4958  0.0682
14044TIP3    H163547   0.613   4.884   3.751 -0.2111  0.3097 -0.1983
14044TIP3    H263548   0.569   5.000   3.666 -1.6703 -0.3296 -0.3429
14045TIP3   OH263549   5.259   4.311  12.878 -0.0252 -0.1548  0.0260
14045TIP3    H163550   5.261   4.404  12.856  1.9811 -0.1166  0.1619
14045TIP3    H263551   5.173   4.297  12.917 -0.6042  1.4985 -0.5637
14046TIP3   OH263552   0.470   0.355  14.202  0.3049 -0.3889 -0.0722
14046TIP3    H163553   0.433   0.326  14.119  0.4833  1.0128 -0.6800
14046TIP3    H263554   0.563   0.332  14.196  0.8882  1.9033 -1.4107
14047TIP3   OH263555   6.500   1.510  12.278  0.2646  0.4002  0.4336
14047TIP3    H163556   6.533   1.489  12.366  0.9670  0.9481  0.3149
14047TIP3    H263557   6.564   1.470  12.219 -0.9362 -1.1442  0.1339
14048TIP3   OH263558   6.754   6.770  15.655 -0.6880  0.1742  0.2695
14048TIP3    H163559   6.832   6.752  15.708  0.7254  2.9214 -0.6553
14048TIP3    H263560   6.755   6.704  15.586  2.1710  1.3456 -0.9719
14049TIP3   OH263561   0.428   1.043  15.705  0.0804 -0.3647 -0.4221
14049TIP3    H163562   0.466   1.036  15.618 -3.2941  1.4007 -2.2526
14049TIP3    H263563   0.376   0.964  15.715  2.4281 -1.8217  1.2330
14050TIP3   OH263564   3.969   1.293  12.217  0.0531 -0.3299  0.5106
14050TIP3    H163565   3.983   1.385  12.240 -0.7657 -0.1890  0.4707
14050TIP3    H263566   4.058   1.257  12.208  0.4233  0.8297 -0.9613
14051TIP3   OH263567   0.109   0.918   0.898  0.0785  0.5872 -0.0161
14051TIP3    H163568   0.029   0.971   0.902 -0.0467  0.3308  1.2614
14051TIP3    H263569   0.139   0.927   0.808 -1.6140  0.3814 -0.6470
14052TIP3   OH263570   3.317   1.874   1.305  0.0946  0.0447  0.0467
14052TIP3    H163571   3.366   1.833   1.376 -1.3570  0.6726  1.4724
14052TIP3    H263572   3.317   1.967   1.327  0.8052  0.4534 -1.5446
14053TIP3   OH263573   1.066   1.509   5.673 -0.5005 -0.2401 -0.5518
14053TIP3    H163574   1.085   1.471   5.587 -0.1805 -1.3421 -0.0095
14053TIP3    H263575   1.147   1.552   5.699 -0.9997  1.2481 -1.3641
14054TIP3   OH263576   4.064   0.093   1.861  0.0776  0.0070 -0.1091
14054TIP3    H163577   4.049   0.119   1.952  2.3004  2.4039 -0.2981
14054TIP3    H263578   4.061  -0.002   1.862  0.4720 -0.0516  2.5615
14055TIP3   OH263579   0.316   3.162   1.918  0.0181  0.2490 -0.0300
14055TIP3    H163580   0.272   3.098   1.861 -0.0624 -0.2048  0.5334
14055TIP3    H263581   0.383   3.202   1.862  0.3768 -0.6594 -0.2748
14056TIP3   OH263582   2.720   5.461   5.489 -0.5991 -0.2856 -0.1214
14056TIP3    H163583   2.805   5.498   5.515 -1.3970  1.4984  0.1425
14056TIP3    H263584   2.662   5.481   5.562 -1.1716 -1.8358 -0.1360
14057TIP3   OH263585   6.732   3.040  16.108 -0.1891 -0.1766  0.3423
14057TIP3    H163586   6.809   3.000  16.067 -0.6395 -2.0127  1.1733
14057TIP3    H263587   6.741   3.134  16.090  1.8690 -0.4226 -0.1660
14058TIP3   OH263588   2.973   0.264   2.000 -0.1211 -0.5654  0.5253
14058TIP3    H163589   2.880   0.282   1.988  0.1413  0.1975 -0.4784
14058TIP3    H263590   3.007   0.253   1.911  0.8258 -0.4483  0.8594
14059TIP3   OH263591   4.094   2.076   3.551 -0.2205  0.0333  0.3045
14059TIP3    H163592   4.118   2.165   3.524 -0.3150  0.4365  1.4716
14059TIP3    H263593   4.166   2.047   3.606 -0.5180 -0.3339  0.5096
14060TIP3   OH263594   1.085   5.031  11.650 -0.2598 -0.0591 -0.6226
14060TIP3    H163595   1.033   5.057  11.726  0.9585 -2.0789  1.0293
14060TIP3    H263596   1.023   4.991  11.590 -0.8715 -0.9672  0.5898
14061TIP3   OH263597   2.507   0.827  15.359  0.0377  0.1280  0.0938
14061TIP3    H163598   2.579   0.876  15.319  0.1165 -0.2534 -0.2329
14061TIP3    H263599   2.442   0.820  15.289 -0.4072  0.6533  0.4498
14062TIP3   OH263600   2.268   4.197  10.712  0.0008  0.6189  0.1811
14062TIP3    H163601   2.321   4.235  10.782  1.9898 -1.7530  0.0989
14062TIP3    H263602   2.319   4.210  10.632  0.0233 -0.8094 -0.0652
14063TIP3   OH263603   3.281   4.493   6.252  0.4975 -0.7742  0.1125
14063TIP3    H163604   3.278   4.589   6.246  0.1573 -0.6718  1.6093
14063TIP3    H263605   3.199   4.464   6.212  0.0130 -0.3609  0.7864
14064TIP3   OH263606   5.686   3.870   1.649  0.7327  0.4073  0.1002
14064TIP3    H163607   5.773   3.832   1.637  0.3068 -0.2403 -1.1257
14064TIP3    H263608   5.667   3.859   1.742  0.8353 -1.9638 -0.1140
14065TIP3   OH263609   0.084   3.542  12.945  0.8076 -0.1915 -0.2086
14065TIP3    H163610   0.124   3.461  12.975 -0.8306 -0.7976  0.4165
14065TIP3    H263611  -0.007   3.536  12.972  0.3321  1.2683 -1.3300
14066TIP3   OH263612   1.744   1.683  14.090 -0.3129 -0.3381 -0.3565
14066TIP3    H163613   1.691   1.645  14.020  0.5462 -1.8213 -0.2303
14066TIP3    H263614   1.790   1.609  14.128  0.3961  0.6659  0.7906
14067TIP3   OH263615   6.754   3.600  11.397  0.4719 -0.0664  0.1214
14067TIP3    H163616   6.727   3.683  11.357  0.5668 -0.2152 -0.2533
14067TIP3    H263617   6.801   3.626  11.476  0.5782  0.2410 -0.0408
14068TIP3   OH263618   4.724   2.633   0.696  0.7243  0.0133  0.3216
14068TIP3    H163619   4.762   2.567   0.753  0.0052 -0.0729  0.7092
14068TIP3    H263620   4.630   2.616   0.698  0.5237  1.0488  0.4266
14069TIP3   OH263621   6.667   1.730  12.062 -0.3900  0.1424 -0.2404
14069TIP3    H163622   6.670   1.707  12.155 -0.1626 -0.9516 -0.5053
14069TIP3    H263623   6.701   1.653  12.017 -0.1444  0.8052 -1.2172
14070TIP3   OH263624   6.309   0.580  10.994  0.5281 -0.0809 -1.0563
14070TIP3    H163625   6.219   0.557  10.968  0.4204 -1.7758  0.5592
14070TIP3    H263626   6.361   0.505  10.966  0.9992 -0.2341  0.1592
14071TIP3   OH263627   3.287   4.453   0.488 -0.2128 -0.0546 -0.0728
14071TIP3    H163628   3.282   4.429   0.580 -2.9006 -2.0272 -0.6074
14071TIP3    H263629   3.278   4.371   0.440  0.1548  1.0139 -2.1086
14072TIP3   OH263630   0.005   4.321   0.839 -0.1628  0.0633 -0.3080
14072TIP3    H163631  -0.000   4.399   0.783  1.4668 -2.2311 -4.0980
14072TIP3    H263632   0.099   4.302   0.843 -0.2811 -0.3790  2.7795
14073TIP3   OH263633   2.865   0.171  13.553 -0.3250 -0.7775 -0.0651
14073TIP3    H163634   2.812   0.148  13.629  1.8919 -2.5371  1.0789
14073TIP3    H263635   2.910   0.252  13.578 -1.1740 -0.1890 -0.3898
14074TIP3   OH263636   0.294   2.296  12.345  0.3039  0.0614  0.1298
14074TIP3    H163637   0.382   2.278  12.312 -0.1447 -0.6267 -0.7009
14074TIP3    H263638   0.296   2.389  12.369  0.8884  0.3683 -1.0633
14075TIP3   OH263639   4.414   4.760  15.764  0.2103 -0.2366 -0.2397
14075TIP3    H163640   4.339   4.728  15.815  1.1698 -0.7055  0.9125
14075TIP3    H263641   4.490   4.737  15.816  1.0868  1.7636 -0.5814
14076TIP3   OH263642   3.831   4.345  14.462 -0.3232  0.1128 -0.6073
14076TIP3    H163643   3.748   4.299  14.456 -1.2872  1.7369 -0.3009
14076TIP3    H263644   3.807   4.437  14.470  1.5335  0.7573 -1.7459
14077TIP3   OH263645   4.537   3.723   3.738  0.5842 -0.3343 -0.3002
14077TIP3    H163646   4.621   3.767   3.746 -0.0706  0.8155  0.5847
14077TIP3    H263647   4.518   3.723   3.645  1.1506  0.2014 -0.4189
14078TIP3   OH263648   0.813   3.619   3.616 -0.2059  0.1014  0.3766
14078TIP3    H163649   0.862   3.623   3.534 -0.1744  2.0618  0.4372
14078TIP3    H263650   0.761   3.700   3.616 -0.3720  0.0202  2.1815
14079TIP3   OH263651   4.125   4.836  11.674  0.3056  0.1181  0.0369
14079TIP3    H163652   4.040   4.880  11.678 -0.6936 -1.7520  1.7577
14079TIP3    H263653   4.185   4.901  11.637 -1.3778  2.2998  0.9117
14080TIP3   OH263654   0.560   5.880  16.631  0.1970 -0.5853 -0.5670
14080TIP3    H163655   0.615   5.911  16.703 -1.4571  0.9816  0.0731
14080TIP3    H263656   0.515   5.803  16.666 -0.0638 -0.2542 -0.1784
14081TIP3   OH263657   0.612   1.898  10.594 -0.6089  0.8566  0.1997
14081TIP3    H163658   0.591   1.861  10.679  1.8682 -1.2030  0.0421
14081TIP3    H263659   0.703   1.871  10.578 -0.1507  3.2634 -2.0141
14082TIP3   OH263660   0.595   6.140   2.371 -0.0714  0.0920 -0.4422
14082TIP3    H163661   0.632   6.076   2.310 -0.4260  0.6822 -1.3040
14082TIP3    H263662   0.540   6.088   2.429 -0.9743 -0.3273 -1.6161
14083TIP3   OH263663   5.672   2.510  11.392  0.0525  0.3707 -0.2437
14083TIP3    H163664   5.710   2.591  11.427 -0.8400 -0.1495  2.0843
14083TIP3    H263665   5.741   2.445  11.402  0.3064  0.5320 -0.8791
14084TIP3   OH263666   2.535   0.925   1.653 -0.5186  0.0193  0.3749
14084TIP3    H163667   2.585   0.944   1.574 -1.3016 -1.1197 -0.4300
14084TIP3    H263668   2.540   1.005   1.705  1.0814  0.3397 -0.2346
14085TIP3   OH263669   1.111   5.770  15.719  0.3855 -0.0495  0.6965
14085TIP3    H163670   1.119   5.856  15.677 -0.1681 -1.0579 -1.6638
14085TIP3    H263671   1.194   5.726  15.699 -0.3124 -0.9399 -0.3619
14086TIP3   OH263672   2.270   6.500  16.755 -0.5500  0.4067  0.1241
14086TIP3    H163673   2.215   6.569  16.717 -0.8191 -0.1404 -0.4985
14086TIP3    H263674   2.216   6.463  16.825 -1.0878 -0.2673 -0.6183
14087TIP3   OH263675   6.527   5.089  11.818 -0.9504 -0.0372 -0.6800
14087TIP3    H163676   6.498   5.093  11.910 -0.4318  1.6785 -0.5628
14087TIP3    H263677   6.527   5.180  11.789  1.8719 -0.2000 -1.4564
14088TIP3   OH263678   3.915   2.009  16.382 -0.4067  0.0266 -0.2999
14088TIP3    H163679   3.861   2.074  16.427  1.1628  0.9554  0.3323
14088TIP3    H263680   3.860   1.931  16.378 -1.4110  0.5979  1.2548
14089TIP3   OH263681   4.411   6.178  16.313  0.2463 -0.5577  0.1136
14089TIP3    H163682   4.329   6.177  16.362 -0.3244 -1.3839 -0.8149
14089TIP3    H263683   4.469   6.118  16.360 -0.0028 -0.6835  0.2589
14090TIP3   OH263684   5.031   4.337  15.859 -0.0980  0.5257  0.2840
14090TIP3    H163685   4.985   4.255  15.873 -1.7071  1.7622  3.0082
14090TIP3    H263686   5.107   4.332  15.918  1.5938 -0.1671 -1.8122
14091TIP3   OH263687   0.426   1.793  14.641 -0.1383  0.1151 -0.6912
14091TIP3    H163688   0.371   1.850  14.587 -1.8647  0.3458  1.1841
14091TIP3    H263689   0.481   1.853  14.692 -0.8872  0.0806  0.1861
14092TIP3   OH263690   2.544   4.502  12.846  0.5662 -0.1326  0.6154
14092TIP3    H163691   2.481   4.573  12.859  0.5479  0.1353 -0.7325
14092TIP3    H263692   2.493   4.432  12.806  1.2912  0.5407 -1.6781
14093TIP3   OH263693   6.691   2.190   1.997 -0.1461  0.3893  0.4458
14093TIP3    H163694   6.768   2.228   1.955 -0.4871  0.4424 -0.1375
14093TIP3    H263695   6.650   2.263   2.043  0.3463  0.2857  1.0518
14094TIP3   OH263696   5.136   3.355  10.814  0.1482 -0.0246 -0.6129
14094TIP3    H163697   5.142   3.324  10.723  0.4459 -1.0998 -0.2471
14094TIP3    H263698   5.047   3.333  10.841  0.4819 -0.9705 -0.2273
14095TIP3   OH263699   2.590   1.092  14.228 -0.0835  0.5315 -0.5754
14095TIP3    H163700   2.614   1.127  14.142 -0.3817  0.2771 -0.7605
14095TIP3    H263701   2.499   1.116  14.240  0.2059  1.3816  0.0762
14096TIP3   OH263702   5.925   1.247   0.572 -0.3051 -0.1663 -0.1474
14096TIP3    H163703   5.940   1.286   0.658  0.7918 -1.5948  0.3534
14096TIP3    H263704   5.857   1.182   0.587 -1.6777  1.0582 -0.8457
14097TIP3   OH263705   6.141   0.382   1.583  0.2932 -0.0625  0.1994
14097TIP3    H163706   6.169   0.313   1.643  1.1060 -1.5405 -1.7865
14097TIP3    H263707   6.214   0.444   1.582  1.1140 -1.0170 -0.6813
14098TIP3   OH263708   0.811   2.148  12.726  0.4197 -0.0439  0.0500
14098TIP3    H163709   0.762   2.068  12.745  0.0377 -0.1839 -1.3819
14098TIP3    H263710   0.810   2.154  12.630  0.6961  1.5277  0.1274
14099TIP3   OH263711   4.539   3.189   4.798 -0.1092  0.1692 -0.2678
14099TIP3    H163712   4.576   3.101   4.796  1.7141  0.8478  0.7725
14099TIP3    H263713   4.465   3.186   4.737 -0.3242 -2.1556  0.0151
14100TIP3   OH263714   0.925   3.710  11.109  0.3858 -0.2383 -0.2912
14100TIP3    H163715   0.887   3.774  11.170  0.6473 -1.2132  0.9339
14100TIP3    H263716   0.960   3.763  11.038  0.8735  1.0193  0.8455
14101TIP3   OH263717   6.180   2.023  13.536 -0.0280  0.5218 -0.2519
14101TIP3    H163718   6.197   2.110  13.572  0.4419  0.2018  0.3082
14101TIP3    H263719   6.208   2.030  13.444  0.7337  0.7532 -0.0146
14102TIP3   OH263720   2.178   5.723  16.949  0.1914  0.6339  0.2415
14102TIP3    H163721   2.174   5.742  17.042 -1.8878 -1.8290  0.7796
14102TIP3    H263722   2.097   5.759  16.913 -0.5887 -1.2119  0.0555
14103TIP3   OH263723   4.032   5.581  15.035  0.2133 -0.4967 -0.1137
14103TIP3    H163724   4.014   5.549  15.124 -1.3911 -1.3429 -0.6865
14103TIP3    H263725   4.127   5.588  15.030  0.4133 -1.7187  1.2517
14104TIP3   OH263726   5.772   5.176   1.873 -0.4594 -0.1074 -0.6419
14104TIP3    H163727   5.721   5.166   1.954 -1.1989 -1.1331 -1.2132
14104TIP3    H263728   5.785   5.271   1.865 -1.2525  0.0868  0.1561
14105TIP3   OH263729   5.805   3.818  15.591 -0.1192  0.8020  0.5778
14105TIP3    H163730   5.779   3.726  15.595  1.8193 -0.0244 -2.2134
14105TIP3    H263731   5.723   3.866  15.585 -1.1676 -1.0361 -0.7746
14106TIP3   OH263732   2.017   1.375  16.684 -0.2683  0.1658  0.2929
14106TIP3    H163733   1.973   1.459  16.699 -0.6194  0.1062 -0.3563
14106TIP3    H263734   2.061   1.355  16.766  1.5272  1.9871 -0.1468
14107TIP3   OH263735   6.420   0.021  12.203  0.5822 -0.2184  0.3141
14107TIP3    H163736   6.346   0.073  12.172 -0.1277 -1.4941 -0.2322
14107TIP3    H263737   6.496   0.080  12.197 -0.4123  1.1967  1.1470
14108TIP3   OH263738   5.414   3.742   2.150  0.0530 -0.1575  0.8133
14108TIP3    H163739   5.490   3.777   2.196 -0.0919  0.5110  0.5492
14108TIP3    H263740   5.363   3.698   2.218  1.0616 -1.3211  0.8653
14109TIP3   OH263741   0.850   6.545  14.105 -0.1611  0.3949 -0.1008
14109TIP3    H163742   0.872   6.523  14.195  0.6486 -1.3189 -0.6604
14109TIP3    H263743   0.755   6.556  14.105 -0.4589 -1.7928  0.5754
14110TIP3   OH263744   0.968   2.818  14.721  0.1023  0.8813  0.0955
14110TIP3    H163745   0.890   2.775  14.686  0.1692  0.8416 -0.0074
14110TIP3    H263746   1.041   2.778  14.673  0.2453  0.3805  0.7263
14111TIP3   OH263747   5.081   6.161   0.733  0.1173  0.0562  0.4574
14111TIP3    H163748   5.086   6.068   0.709 -0.7225  0.5902 -1.9987
14111TIP3    H263749   5.002   6.168   0.787  0.7782 -0.8003  1.5839
14112TIP3   OH263750   0.963   2.508   5.718  0.3548 -0.3586  0.3127
14112TIP3    H163751   0.991   2.556   5.796  1.8033 -0.1925 -0.2863
14112TIP3    H263752   0.868   2.518   5.717  0.3693  0.1000  1.7515
14113TIP3   OH263753   0.915   6.342   0.111  0.1922  0.2121  0.2733
14113TIP3    H163754   0.911   6.401   0.186 -0.9140  0.7555 -0.1786
14113TIP3    H263755   0.914   6.254   0.148  1.2438  0.4737  0.9405
14114TIP3   OH263756   5.106   6.678   4.819 -0.0063 -0.2573  0.0981
14114TIP3    H163757   5.181   6.735   4.807  0.3059 -0.2430  1.8728
14114TIP3    H263758   5.065   6.674   4.733  0.6222  1.6921 -0.3453
14115TIP3   OH263759   0.159   3.836   3.409  0.3367 -0.6112  0.2507
14115TIP3    H163760   0.111   3.806   3.487  1.1102  1.6794  1.7296
14115TIP3    H263761   0.187   3.756   3.365 -2.4151 -2.0011  0.8332
14116TIP3   OH263762   3.238   6.202  14.808  0.2264 -0.1345 -0.0841
14116TIP3    H163763   3.205   6.132  14.751  0.6920  3.1561 -5.0550
14116TIP3    H263764   3.159   6.248  14.836  0.0594 -0.9142  0.7720
14117TIP3   OH263765   1.933   0.622  10.283 -0.0867 -0.6896  0.5097
14117TIP3    H163766   1.992   0.696  10.295 -0.7326 -0.0538 -0.1397
14117TIP3    H263767   1.940   0.572  10.364 -0.3209  0.5667  1.3203
14118TIP3   OH263768   2.688   0.411  15.478 -0.2215 -0.0994  0.0826
14118TIP3    H163769   2.657   0.321  15.483 -0.7975 -0.0379 -1.8286
14118TIP3    H263770   2.648   0.446  15.398  1.6156  1.2098 -0.3164
14119TIP3   OH263771   3.822   5.172   6.460  0.5697 -0.5886 -0.8624
14119TIP3    H163772   3.876   5.115   6.516 -0.4264 -0.0276  0.7365
14119TIP3    H263773   3.845   5.261   6.487  0.9249 -0.2453 -2.2089
14120TIP3   OH263774   4.738   1.171  14.935  0.0025 -0.3205  0.0403
14120TIP3    H163775   4.745   1.076  14.937 -1.1355 -0.4567 -1.1412
14120TIP3    H263776   4.765   1.195  14.846  0.2240  0.4727  0.3047
14121TIP3   OH263777   5.709   1.721   0.892  0.8066  0.5174  0.0321
14121TIP3    H163778   5.676   1.794   0.945  0.3876 -0.3220  0.9502
14121TIP3    H263779   5.654   1.722   0.813 -0.9944 -0.4110  1.2128
14122TIP3   OH263780   3.361   5.527   2.524  0.2378  0.4877  0.2037
14122TIP3    H163781   3.431   5.589   2.541 -1.0096  1.4768  2.0576
14122TIP3    H263782   3.287   5.581   2.496 -0.4968 -0.2705  0.6237
14123TIP3   OH263783   6.357   0.608  11.642  0.3204  0.4382  0.6517
14123TIP3    H163784   6.269   0.643  11.656  0.4551  0.8571  0.4548
14123TIP3    H263785   6.370   0.547  11.715 -0.5501 -0.4523  0.0843
14124TIP3   OH263786   4.905   6.364   2.072 -0.1987 -0.0977 -0.1191
14124TIP3    H163787   4.820   6.338   2.035  0.2753  1.0640 -2.1782
14124TIP3    H263788   4.968   6.343   2.003  0.8830  1.3024  0.4113
14125TIP3   OH263789   4.656   3.470   1.587 -0.5247 -0.8493 -0.1978
14125TIP3    H163790   4.747   3.472   1.555 -1.3869 -2.1566 -3.1427
14125TIP3    H263791   4.607   3.522   1.523 -1.6846  1.3561  2.3311
14126TIP3   OH263792   2.622   0.910   2.035 -0.1159  0.0175  0.5568
14126TIP3    H163793   2.634   0.902   2.130  0.1499  0.8072  0.5919
14126TIP3    H263794   2.651   0.825   2.001 -0.0612 -0.2165  1.1634
14127TIP3   OH263795   1.499   1.404  11.845 -0.2801 -0.0451 -0.3661
14127TIP3    H163796   1.450   1.435  11.769 -0.5956 -1.5116 -0.7904
14127TIP3    H263797   1.581   1.372  11.809  0.4160  1.0842  0.1731
14128TIP3   OH263798   0.781   6.050   0.066 -0.1127 -0.0800  0.7350
14128TIP3    H163799   0.817   6.064   0.154 -0.2895 -1.1311  0.9884
14128TIP3    H263800   0.696   6.009   0.081  0.2128 -1.0367  0.0566
14129TIP3   OH263801   3.664   5.258   0.640 -0.0735 -0.2018  0.2015
14129TIP3    H163802   3.693   5.167   0.635 -0.3170 -0.4086  1.8963
14129TIP3    H263803   3.673   5.281   0.733 -0.1850  1.4513 -0.1680
14130TIP3   OH263804   3.440   3.785   4.285 -0.2176  0.2990  0.4254
14130TIP3    H163805   3.415   3.773   4.377  0.5533  2.0454  0.9167
14130TIP3    H263806   3.529   3.752   4.279 -0.5527 -0.5572  0.0985
14131TIP3   OH263807   0.529   2.469  13.985  0.0636 -0.1089 -0.1781
14131TIP3    H163808   0.579   2.475  14.066 -1.4883 -0.7441  0.8692
14131TIP3    H263809   0.438   2.489  14.010 -0.2987  0.7405 -1.9540
14132TIP3   OH263810   2.294   6.392   0.928 -0.5491 -0.3556 -0.0158
14132TIP3    H163811   2.382   6.356   0.930 -0.0913  0.3679 -2.9551
14132TIP3    H263812   2.306   6.486   0.910 -1.8957  0.2698  1.9367
14133TIP3   OH263813   3.932   0.855   1.860 -0.3102 -0.3882 -0.3130
14133TIP3    H163814   4.005   0.882   1.805  0.1955 -1.5795 -0.2348
14133TIP3    H263815   3.900   0.774   1.821 -1.1762 -0.2325  0.0367
14134TIP3   OH263816   5.316   6.323  15.477  0.1515 -0.2644 -1.1132
14134TIP3    H163817   5.377   6.382  15.434  0.4879 -0.3831 -0.7954
14134TIP3    H263818   5.370   6.269  15.534 -0.3320  0.1541 -0.2347
14135TIP3   OH263819   5.308   2.114   6.282  0.1334 -0.0619  0.1468
14135TIP3    H163820   5.298   2.177   6.353 -2.0860 -0.3859  0.2086
14135TIP3    H263821   5.280   2.162   6.204 -0.7460 -0.6948  0.0605
14136TIP3   OH263822   6.685   3.967   2.531 -0.4763 -0.0661  0.1900
14136TIP3    H163823   6.691   3.966   2.627  0.2290  1.1533  0.1823
14136TIP3    H263824   6.760   3.915   2.502 -1.6053 -1.8091  0.2944
14137TIP3   OH263825   2.820   3.370  16.204 -0.0138  0.0103 -0.4326
14137TIP3    H163826   2.808   3.305  16.135 -0.0441  2.0785 -2.4702
14137TIP3    H263827   2.913   3.392  16.200  0.3011 -0.8177  1.1875
14138TIP3   OH263828   3.478   5.909  16.618 -0.1309 -0.4732 -0.6146
14138TIP3    H163829   3.505   5.962  16.543  0.1424  0.2895  0.0080
14138TIP3    H263830   3.537   5.935  16.688 -2.1081  0.8791  0.6630
14139TIP3   OH263831   3.181   0.502   4.142  0.6333  0.3311 -0.3375
14139TIP3    H163832   3.243   0.436   4.111  0.2069  0.4087 -1.4057
14139TIP3    H263833   3.222   0.538   4.221  0.7458 -1.3804  0.4289
14140TIP3   OH263834   0.537   5.498  16.019  0.1427 -0.1317 -0.0404
14140TIP3    H163835   0.568   5.577  15.974 -0.3601  0.8446  1.2467
14140TIP3    H263836   0.592   5.428  15.985 -0.2864  0.5166 -2.2343
14141TIP3   OH263837   5.112   5.333  13.439  0.2877 -0.6411 -0.3293
14141TIP3    H163838   5.137   5.390  13.366  1.2186 -0.8362 -0.1807
14141TIP3    H263839   5.129   5.386  13.518 -1.7244 -0.0303 -0.2343
14142TIP3   OH263840   2.999   1.849   1.235 -0.3785 -0.4269 -0.1214
14142TIP3    H163841   2.960   1.925   1.193 -1.3035 -0.5218  0.5241
14142TIP3    H263842   3.093   1.863   1.229 -0.5379  1.4060  1.0979
14143TIP3   OH263843   0.434   2.102   3.008  0.1300 -0.4666  0.1466
14143TIP3    H163844   0.446   2.091   3.102  0.3831  0.5654  0.2472
14143TIP3    H263845   0.511   2.060   2.969  1.5345  1.5655  0.5564
14144TIP3   OH263846   5.957   2.748  14.569 -0.3464 -0.0798 -0.4402
14144TIP3    H163847   5.869   2.787  14.571 -1.0783 -1.6470  1.3322
14144TIP3    H263848   5.954   2.687  14.495 -0.6670  0.0630 -0.5494
14145TIP3   OH263849   6.211   1.693  12.851 -0.3165  0.5144 -0.0035
14145TIP3    H163850   6.250   1.780  12.846  1.4087 -0.1657  0.9187
14145TIP3    H263851   6.194   1.670  12.759  2.6581  0.3593 -0.6129
14146TIP3   OH263852   4.959   5.614   1.650  0.5091 -0.3298  0.3480
14146TIP3    H163853   5.049   5.635   1.674  0.5306 -0.7005  0.5984
14146TIP3    H263854   4.959   5.615   1.554  0.0636  2.6926  0.2996
14147TIP3   OH263855   5.514   2.597   5.939  0.1913 -1.1688  0.4213
14147TIP3    H163856   5.585   2.612   6.002 -0.9041 -1.4356  1.7773
14147TIP3    H263857   5.503   2.501   5.938  0.9115 -1.2678 -1.0365
14148TIP3   OH263858   3.774   5.094  10.386 -0.2029  0.4489 -0.2221
14148TIP3    H163859   3.817   5.177  10.407 -1.0264  0.8476 -0.0902
14148TIP3    H263860   3.680   5.114  10.389 -0.4206 -0.5973  0.3016
14149TIP3   OH263861   4.045   1.760  15.496 -0.2150  0.6853 -0.5678
14149TIP3    H163862   3.973   1.808  15.537 -0.3702  1.4805 -1.7180
14149TIP3    H263863   4.107   1.828  15.469  0.7614  0.0416  0.0097
14150TIP3   OH263864   5.161   6.541  16.292  0.4659  0.1143 -0.4789
14150TIP3    H163865   5.179   6.500  16.376  0.3630 -1.3690 -1.1408
14150TIP3    H263866   5.157   6.468  16.230 -3.7240  0.6375 -1.1003
14151TIP3   OH263867   1.608   1.200  14.710 -0.5405 -0.1809 -0.1550
14151TIP3    H163868   1.675   1.257  14.750 -1.6059  0.1769  1.1850
14151TIP3    H263869   1.555   1.260  14.658  0.2238 -0.4831 -1.3086
14152TIP3   OH263870   3.067   6.762  13.497 -0.2080 -0.3410 -0.0201
14152TIP3    H163871   3.035   6.847  13.525 -0.8876  0.0820 -1.9313
14152TIP3    H263872   3.006   6.699  13.536  0.2045  0.0258  1.2691
14153TIP3   OH263873   5.835   1.611  13.021 -0.6345  0.0822  0.0495
14153TIP3    H163874   5.855   1.518  13.030 -0.1919  0.3258  2.1540
14153TIP3    H263875   5.860   1.649  13.105  2.3023  2.6894 -1.7955
14154TIP3   OH263876   5.274   3.784  15.529 -0.2506  0.3242  0.2172
14154TIP3    H163877   5.218   3.781  15.607  2.0894 -0.9089  1.9890
14154TIP3    H263878   5.284   3.877  15.510  2.6718  1.1490  4.3149
14155TIP3   OH263879   4.120   0.463   0.910 -0.4071 -0.1043 -0.2855
14155TIP3    H163880   4.205   0.500   0.885  0.9441 -2.0341  1.1946
14155TIP3    H263881   4.099   0.402   0.839  0.0757 -0.5584 -0.0422
14156TIP3   OH263882   2.621   6.516  13.585  0.1478  0.0115 -0.2513
14156TIP3    H163883   2.618   6.426  13.553 -0.3424  0.0258 -0.2653
14156TIP3    H263884   2.567   6.515  13.665  1.5928 -0.0826  0.7530
14157TIP3   OH263885   2.511   1.212  12.196 -0.2241  0.5856 -0.5324
14157TIP3    H163886   2.503   1.216  12.100  1.6721 -0.7748 -0.7919
14157TIP3    H263887   2.439   1.155  12.223 -0.2237  0.2356 -1.2442
14158TIP3   OH263888   5.639   6.468   0.674 -0.8043  0.1380 -0.2268
14158TIP3    H163889   5.661   6.426   0.591  2.4389  1.8149 -0.3812
14158TIP3    H263890   5.682   6.414   0.740 -0.2640  0.7816 -0.0332
14159TIP3   OH263891   4.934   5.614   2.962 -0.1876 -0.2019  0.6523
14159TIP3    H163892   4.933   5.526   2.924 -1.6075 -0.6135  1.5545
14159TIP3    H263893   4.881   5.606   3.042 -0.7131  1.5752  0.5202
14160TIP3   OH263894   3.354   5.689   2.825 -0.6138 -0.1066  0.4577
14160TIP3    H163895   3.447   5.670   2.814 -0.4567  0.1925  1.2285
14160TIP3    H263896   3.336   5.758   2.762 -0.5550 -0.8774 -0.4192
14161TIP3   OH263897   1.879   1.996  12.833  0.1379  0.4569 -0.5803
14161TIP3    H163898   1.909   2.080  12.868  0.8569  0.0530 -0.2148
14161TIP3    H263899   1.883   2.007  12.738  3.2667 -0.1701 -0.6154
14162TIP3   OH263900   1.437   4.160   4.060 -0.0987  0.0272  0.0360
14162TIP3    H163901   1.519   4.112   4.051 -0.5165 -0.5351 -0.8224
14162TIP3    H263902   1.457   4.248   4.028 -0.2274 -0.5465 -1.7224
14163TIP3   OH263903   3.759   1.335   5.119  0.0058 -0.0680  0.3696
14163TIP3    H163904   3.741   1.276   5.192 -1.2278 -0.8910 -0.5580
14163TIP3    H263905   3.799   1.279   5.052 -0.3006  0.3293 -0.1604
14164TIP3   OH263906   5.974   0.578  16.898  0.0346 -0.0649 -0.0390
14164TIP3    H163907   5.960   0.552  16.989 -3.9181 -1.3468 -0.8646
14164TIP3    H263908   5.911   0.649  16.883  1.3425  0.8545 -1.5498
14165TIP3   OH263909   3.578   1.717  13.418 -0.8119 -0.0634  0.5056
14165TIP3    H163910   3.568   1.812  13.417 -0.9160 -0.0283 -2.2766
14165TIP3    H263911   3.668   1.702  13.448 -0.3593  0.9887 -0.2919
14166TIP3   OH263912   6.670   2.589  16.667 -0.0784 -0.1087 -0.5483
14166TIP3    H163913   6.590   2.594  16.719  0.8437  2.0116  0.8205
14166TIP3    H263914   6.672   2.670  16.617 -0.0117 -1.2956 -2.5706
14167TIP3   OH263915   3.890   6.276   4.642 -0.4060  0.2054  0.2128
14167TIP3    H163916   3.967   6.276   4.699  0.3936  0.3053 -0.8403
14167TIP3    H263917   3.847   6.360   4.660  0.4971  0.7698 -0.1815
14168TIP3   OH263918   1.840   4.650  11.301 -0.4630  0.1027 -0.0831
14168TIP3    H163919   1.862   4.610  11.385 -1.5200 -1.6201 -0.5808
14168TIP3    H263920   1.911   4.624  11.243 -0.4347  0.1464 -0.0685
14169TIP3   OH263921   3.271   1.954  16.890  0.0424 -0.3305  0.1556
14169TIP3    H163922   3.223   1.973  16.971  0.5247  0.6497  0.2250
14169TIP3    H263923   3.210   1.903  16.838 -0.6920 -0.0131  0.6842
14170TIP3   OH263924   2.215   5.314  16.223 -0.6980  0.1481 -0.2941
14170TIP3    H163925   2.218   5.397  16.176 -1.0041  0.4217  0.1616
14170TIP3    H263926   2.307   5.285  16.225 -0.6343  0.3145 -0.7308
14171TIP3   OH263927   4.542   4.833  12.408  0.2085 -0.3374 -0.4576
14171TIP3    H163928   4.452   4.808  12.389  0.4362 -0.8758 -0.8348
14171TIP3    H263929   4.586   4.751  12.431  0.2932  0.0877  1.0193
14172TIP3   OH263930   3.938   1.680   0.738 -0.0545  0.0541  0.3334
14172TIP3    H163931   4.001   1.616   0.706 -0.6143 -0.5079  0.3243
14172TIP3    H263932   3.956   1.760   0.688  0.1243 -0.3393 -0.2301
14173TIP3   OH263933   2.562   5.394  15.833  0.4108  0.0795 -0.2063
14173TIP3    H163934   2.468   5.410  15.836  0.3756 -0.2032  0.7234
14173TIP3    H263935   2.600   5.477  15.804 -0.1808 -0.0986 -1.5538
14174TIP3   OH263936   2.189   4.019   4.669  0.1249 -0.2212  0.6492
14174TIP3    H163937   2.173   4.058   4.755 -1.9471 -0.0216  0.2331
14174TIP3    H263938   2.246   3.944   4.687  0.2593  0.2073  2.1096
14175TIP3   OH263939   2.853   0.122  14.653  0.1120  0.3605  0.1657
14175TIP3    H163940   2.855   0.147  14.746  1.9538  2.5789 -0.3636
14175TIP3    H263941   2.943   0.097  14.633 -0.5662 -1.5568 -0.7301
14176TIP3   OH263942   2.667   0.758   1.193  0.1065  0.3966 -0.3535
14176TIP3    H163943   2.649   0.664   1.194  0.0974  0.4025 -0.0232
14176TIP3    H263944   2.732   0.769   1.123  0.8003  0.0241  0.2280
14177TIP3   OH263945   1.564   2.173   3.734  0.3638 -0.0711  0.2862
14177TIP3    H163946   1.563   2.255   3.783 -2.1449 -0.5034  1.0723
14177TIP3    H263947   1.557   2.199   3.643 -2.5806  0.6465  0.6167
14178TIP3   OH263948   0.144   6.458  12.900 -0.3854 -0.0573  0.1385
14178TIP3    H163949   0.146   6.485  12.992 -1.5928  2.8715 -0.5794
14178TIP3    H263950   0.113   6.367  12.902  0.6009 -0.4159  2.6330
14179TIP3   OH263951   5.004   3.133   5.587  0.0746  0.3733  0.1752
14179TIP3    H163952   5.040   3.197   5.648  2.7528 -1.4106  0.6374
14179TIP3    H263953   5.006   3.050   5.636  0.0945 -0.7024 -1.5662
14180TIP3   OH263954   3.241   3.222   4.778  0.7547  0.0267 -0.5070
14180TIP3    H163955   3.336   3.228   4.771  0.7500  0.0525 -0.5510
14180TIP3    H263956   3.226   3.155   4.844  0.8358  1.9440  1.5589
14181TIP3   OH263957   3.227   5.762  13.720  0.0728 -0.6118  0.1351
14181TIP3    H163958   3.275   5.803  13.791  0.2797 -0.7244  0.0594
14181TIP3    H263959   3.155   5.823  13.702 -1.3488 -1.6143  1.9595
14182TIP3   OH263960   2.556   1.390   4.528  0.4142 -0.8009  0.3427
14182TIP3    H163961   2.553   1.309   4.478  1.9193 -1.3745  1.0968
14182TIP3    H263962   2.644   1.425   4.512  0.5897 -0.4995  1.7581
14183TIP3   OH263963   4.248   3.737  11.741 -0.4800 -0.2481 -0.2488
14183TIP3    H163964   4.188   3.666  11.720 -1.3723  0.1230  0.9354
14183TIP3    H263965   4.297   3.706  11.817  0.0391 -0.0982 -0.5133
14184TIP3   OH263966   3.415   6.739   4.337  0.2650 -0.2393  0.0134
14184TIP3    H163967   3.393   6.783   4.255 -1.1554  2.6823  1.8159
14184TIP3    H263968   3.500   6.698   4.320 -0.9464 -1.6527 -3.5311
14185TIP3   OH263969   5.245   5.884  12.839  0.4868 -0.1349 -0.3450
14185TIP3    H163970   5.230   5.908  12.747  0.6203 -1.2296 -0.6714
14185TIP3    H263971   5.188   5.809  12.853  0.6254 -0.0998  0.4116
14186TIP3   OH263972   1.114   3.979  16.930 -0.2999 -0.4008  0.3250
14186TIP3    H163973   1.147   4.063  16.960 -0.4375  0.2833 -1.3623
14186TIP3    H263974   1.023   3.976  16.962 -0.5305  0.4195 -0.2397
14187TIP3   OH263975   2.562   5.108   6.301 -0.7998  0.3093  0.1694
14187TIP3    H163976   2.509   5.031   6.281 -1.6167  0.9851 -0.3597
14187TIP3    H263977   2.646   5.073   6.329 -0.7766 -0.7711 -1.1374
14188TIP3   OH263978   5.831   4.398  13.542  0.2555  0.4758 -0.1708
14188TIP3    H163979   5.814   4.357  13.457  0.6913  1.4079 -0.7182
14188TIP3    H263980   5.907   4.352  13.576 -0.3583 -0.3957  0.0627
14189TIP3   OH263981   4.375   3.055   3.546  0.2663  0.2400  0.5136
14189TIP3    H163982   4.351   2.966   3.570  0.1406  0.3043  0.6209
14189TIP3    H263983   4.419   3.045   3.461 -1.0145  0.2298 -0.1809
14190TIP3   OH263984   1.033   5.619   1.876 -0.1676  0.6387 -0.2320
14190TIP3    H163985   1.049   5.565   1.798 -2.0850 -1.1637  0.5151
14190TIP3    H263986   1.019   5.707   1.842  0.5985  0.2102 -1.7500
14191TIP3   OH263987   6.480   4.118  13.622  0.3293 -0.2726 -0.3333
14191TIP3    H163988   6.429   4.102  13.542 -0.7587  0.2161  0.2295
14191TIP3    H263989   6.417   4.104  13.693  0.7016  1.2900  0.3554
14192TIP3   OH263990   0.959   6.387   0.394 -0.0991 -0.0907  0.0508
14192TIP3    H163991   0.939   6.310   0.447  1.9443 -1.1281 -0.5846
14192TIP3    H263992   1.021   6.438   0.446  0.6901 -0.3062 -0.6521
14193TIP3   OH263993   1.866   0.442  14.374  0.4509  0.1490  0.3651
14193TIP3    H163994   1.960   0.429  14.361  0.1844 -1.2817 -0.2658
14193TIP3    H263995   1.851   0.533  14.349  1.6431  0.3527  0.3466
14194TIP3   OH263996   5.753   0.378   2.394 -0.3609 -0.1692  0.4434
14194TIP3    H163997   5.720   0.454   2.442  0.8515  0.7267 -0.1198
14194TIP3    H263998   5.765   0.311   2.462 -1.0448  0.2484  0.9957
14195TIP3   OH263999   0.666   6.535   3.455 -0.5497 -0.1189  0.0091
14195TIP3    H164000   0.678   6.467   3.388  0.3697  0.4601 -0.4250
14195TIP3    H264001   0.642   6.613   3.406 -2.5067 -0.3136  0.5715
14196TIP3   OH264002   2.405   1.243   3.294  0.2022 -0.0145 -0.1137
14196TIP3    H164003   2.492   1.204   3.308  0.7290  0.7288 -1.1382
14196TIP3    H264004   2.422   1.316   3.234 -1.1975 -0.1358 -0.6822
14197TIP3   OH264005   1.146   0.873  15.949 -0.3801 -0.2614 -0.3829
14197TIP3    H164006   1.186   0.786  15.949 -1.9940 -1.0506  1.2982
14197TIP3    H264007   1.204   0.926  16.004 -0.2489 -0.6738 -0.1252
14198TIP3   OH264008   5.042   2.304   1.994  0.2221 -0.3459 -0.3577
14198TIP3    H164009   4.995   2.239   1.942 -0.2322  0.3380 -0.8158
14198TIP3    H264010   5.068   2.371   1.932  0.7482 -0.1124  0.1000
14199TIP3   OH264011   1.711   3.645  12.706  1.1713  0.2254 -0.5640
14199TIP3    H164012   1.761   3.627  12.626 -0.2083 -1.1240 -1.1764
14199TIP3    H264013   1.684   3.736  12.698  1.2146  0.1633 -1.5456
14200TIP3   OH264014   2.394   0.300  14.978 -0.3785 -0.3480 -0.2941
14200TIP3    H164015   2.314   0.350  14.962 -0.5403  0.4409  2.5475
14200TIP3    H264016   2.403   0.298  15.073  2.6764 -0.9233 -0.4950
14201TIP3   OH264017   0.318   5.234  13.864 -0.0084  0.4102  0.1450
14201TIP3    H164018   0.408   5.203  13.871  0.2999  1.3217  0.3403
14201TIP3    H264019   0.266   5.154  13.857  0.7566 -0.1479  0.6290
14202TIP3   OH264020   3.615   4.668  15.228 -0.1587 -0.0729 -0.3343
14202TIP3    H164021   3.557   4.717  15.170  0.7251 -0.2283 -1.3820
14202TIP3    H264022   3.572   4.583  15.237 -0.1986 -0.1269 -0.9590
14203TIP3   OH264023   0.791   2.482   0.713  0.2620 -0.8515 -0.2996
14203TIP3    H164024   0.764   2.446   0.797 -0.4438 -2.5808 -1.2132
14203TIP3    H264025   0.722   2.544   0.690  1.8441  1.8690  1.6245
14204TIP3   OH264026   5.362   4.959   0.952  0.0568  0.3189  0.2954
14204TIP3    H164027   5.433   4.965   1.017  1.6727  1.0521 -1.4560
14204TIP3    H264028   5.337   5.050   0.935 -0.8438  0.0961  0.3807
14205TIP3   OH264029   5.103   2.323  12.343  0.4271 -0.1488  0.2530
14205TIP3    H164030   5.185   2.275  12.337  1.8385  2.1132  0.4005
14205TIP3    H264031   5.044   2.278  12.282  1.6422 -2.0125  0.3860
14206TIP3   OH264032   1.573   3.950  16.072  0.0799  0.3234 -0.0365
14206TIP3    H164033   1.575   3.967  15.977  1.1858  1.1991  0.1305
14206TIP3    H264034   1.549   4.033  16.111 -1.6126 -0.3270  0.4342
14207TIP3   OH264035   4.170   1.760  11.812 -0.1060 -0.8713 -0.3892
14207TIP3    H164036   4.107   1.786  11.878 -0.2842 -0.9273 -0.5372
14207TIP3    H264037   4.124   1.697  11.757  0.4629 -1.8561  0.2347
14208TIP3   OH264038   5.498   1.379  10.363 -0.7204  0.4409 -0.0598
14208TIP3    H164039   5.515   1.330  10.444 -0.6222 -0.0982 -0.4022
14208TIP3    H264040   5.578   1.367  10.311 -0.5437  1.2847  0.0068
14209TIP3   OH264041   4.165   2.836   0.989  0.1564  0.1538  0.0814
14209TIP3    H164042   4.155   2.741   0.986 -0.5368  0.2115  0.2615
14209TIP3    H264043   4.257   2.850   1.012  0.0297 -0.4845  1.0271
14210TIP3   OH264044   3.492   0.810   0.548 -0.7458  0.1204  0.0689
14210TIP3    H164045   3.547   0.811   0.470  0.0909  0.2465  0.6421
14210TIP3    H264046   3.426   0.742   0.530  0.0988 -0.6331 -0.3006
14211TIP3   OH264047   4.621   1.904   3.954 -0.6795  0.5170 -0.2844
14211TIP3    H164048   4.611   1.883   3.861  0.3841  0.9976 -0.5261
14211TIP3    H264049   4.716   1.911   3.966 -0.6116 -1.9874  1.3996
14212TIP3   OH264050   2.654   3.031   2.162  0.0499 -0.1910  0.4177
14212TIP3    H164051   2.592   3.081   2.215  0.5194  0.2615  0.5527
14212TIP3    H264052   2.648   3.070   2.074 -1.8413 -1.9216 -0.3007
14213TIP3   OH264053   0.153   5.836  14.619 -0.1582 -0.4430  0.4553
14213TIP3    H164054   0.188   5.923  14.596 -2.2786 -0.0537 -1.6989
14213TIP3    H264055   0.120   5.846  14.708 -2.3613  1.7140 -0.5046
14214TIP3   OH264056   6.109   2.315  11.102  0.6785 -0.8483 -0.3044
14214TIP3    H164057   6.118   2.407  11.076  1.7673 -1.0280 -0.6354
14214TIP3    H264058   6.015   2.300  11.107  0.4735  0.7070  1.2674
14215TIP3   OH264059   2.613   1.517   1.903 -0.2275 -0.0703  0.1830
14215TIP3    H164060   2.534   1.470   1.929 -0.6198 -0.2321 -1.2398
14215TIP3    H264061   2.666   1.521   1.983 -1.1346 -1.0224  0.8525
14216TIP3   OH264062   0.995   5.793   4.983  0.2803 -0.5096 -0.3120
14216TIP3    H164063   1.031   5.705   4.972 -1.7179 -1.3778 -0.3488
14216TIP3    H264064   0.992   5.807   5.077  1.4383 -0.0937 -0.3267
14217TIP3   OH264065   3.068   2.701  15.443  0.4962  0.0314  0.4617
14217TIP3    H164066   2.988   2.694  15.496  0.7279 -2.7048  0.6053
14217TIP3    H264067   3.128   2.637  15.482  2.3426  1.1697 -0.3902
14218TIP3   OH264068   5.500   2.336   5.990  0.7325  0.0256  0.7747
14218TIP3    H164069   5.582   2.309   5.947  0.1239 -0.7771  0.0811
14218TIP3    H264070   5.465   2.255   6.027  0.1607  0.3364  0.9166
14219TIP3   OH264071   3.923   0.525   3.812 -0.0381 -0.6802  0.2910
14219TIP3    H164072   3.922   0.448   3.868 -1.8919 -0.4977  0.5710
14219TIP3    H264073   3.831   0.546   3.797  0.4040  0.3529 -1.3622
14220TIP3   OH264074   1.835   2.704  16.545 -1.0265  0.4894  0.2597
14220TIP3    H164075   1.779   2.689  16.620 -0.6528 -2.5848  0.0400
14220TIP3    H264076   1.802   2.645  16.477  0.1529  1.3845 -1.1781
14221TIP3   OH264077   4.179   2.980  15.880 -0.4900  0.2500  0.1649
14221TIP3    H164078   4.091   2.996  15.913 -0.8902  0.0630 -0.7846
14221TIP3    H264079   4.220   3.067  15.880  0.0989  0.0360  2.6765
14222TIP3   OH264080   5.407   6.188  16.126  0.4393  0.0423  0.0332
14222TIP3    H164081   5.340   6.181  16.058  2.6493  2.0536 -2.6204
14222TIP3    H264082   5.447   6.102  16.129 -1.1564 -0.7192  0.4963
14223TIP3   OH264083   4.649   3.192  14.722  0.0482  0.2504  0.7597
14223TIP3    H164084   4.625   3.237  14.641  1.7813  1.9038  1.1016
14223TIP3    H264085   4.607   3.243  14.792 -1.1231 -0.9415  0.9670
14224TIP3   OH264086   1.974   4.986  12.778  0.0452 -0.3833  0.3034
14224TIP3    H164087   1.952   4.930  12.703  1.0777 -1.6052  0.8648
14224TIP3    H264088   1.914   5.060  12.772  0.8344  0.1551 -2.3745
14225TIP3   OH264089   0.360   3.790   5.011 -0.1932  0.0379  1.2664
14225TIP3    H164090   0.345   3.843   4.933 -0.7199  0.1648  1.4504
14225TIP3    H264091   0.282   3.803   5.064 -0.9612 -2.0048  0.7135
14226TIP3   OH264092   5.304   5.117  13.796 -0.1855 -0.5967 -0.4845
14226TIP3    H164093   5.323   5.197  13.846 -0.6510 -2.2035  2.5071
14226TIP3    H264094   5.326   5.139  13.706  0.5129  2.6179  0.3492
14227TIP3   OH264095   3.760   2.596   0.815 -0.2915 -0.2603  0.2038
14227TIP3    H164096   3.798   2.631   0.895 -0.5471 -0.5829  0.4736
14227TIP3    H264097   3.709   2.520   0.845 -0.2956 -0.4477 -0.2782
14228TIP3   OH264098   2.353   3.575   0.577 -0.1077 -0.0954 -0.0721
14228TIP3    H164099   2.269   3.606   0.545  1.1776  2.6417 -1.0548
14228TIP3    H264100   2.392   3.528   0.503 -0.1580 -0.0579 -0.1220
14229TIP3   OH264101   3.032   1.328   4.470 -0.4238  0.1650  0.4020
14229TIP3    H164102   2.955   1.286   4.430 -0.8263  1.5997 -0.4028
14229TIP3    H264103   3.008   1.337   4.562 -0.5397 -0.8789  0.4857
14230TIP3   OH264104   2.102   3.478  12.271 -0.0724 -0.7075 -0.2011
14230TIP3    H164105   2.112   3.536  12.346 -0.2029 -0.6250 -0.2488
14230TIP3    H264106   2.164   3.407  12.288  0.2936 -0.4117 -0.2809
14231TIP3   OH264107   1.369   2.603   3.522  0.4116 -0.2942  1.0582
14231TIP3    H164108   1.307   2.660   3.477 -0.3372 -1.5416  0.4658
14231TIP3    H264109   1.316   2.530   3.554  1.8631 -2.7180 -1.6475
14232TIP3   OH264110   0.188   3.872  14.962  0.2147  0.1106  0.2366
14232TIP3    H164111   0.235   3.788  14.967  1.4403  0.7170 -0.4333
14232TIP3    H264112   0.237   3.930  15.019  0.4136  0.8135 -0.6241
14233TIP3   OH264113   4.422   0.473  13.539 -0.4023  0.2994 -0.6748
14233TIP3    H164114   4.513   0.498  13.557 -0.7021  0.3905  0.8832
14233TIP3    H264115   4.371   0.550  13.562 -1.0261 -0.4220  0.4650
14234TIP3   OH264116   0.265   0.383   5.216  1.1005  0.6135  0.8088
14234TIP3    H164117   0.342   0.325   5.220  1.7931  1.5194  1.0816
14234TIP3    H264118   0.191   0.323   5.208  1.9030 -0.2612 -0.5241
14235TIP3   OH264119   1.645   6.363   0.213  0.1926  0.2700  0.3337
14235TIP3    H164120   1.619   6.274   0.238  1.3716 -0.9400 -2.4370
14235TIP3    H264121   1.622   6.370   0.121  0.7588  2.6330  0.3108
14236TIP3   OH264122   0.774   4.466   5.373 -0.2343  0.2021 -0.3707
14236TIP3    H164123   0.863   4.470   5.408 -0.8621  0.7746  1.2679
14236TIP3    H264124   0.756   4.372   5.367 -0.0456  0.0748  0.7671
14237TIP3   OH264125   3.375   1.688   1.990  0.0551 -0.1483 -1.0682
14237TIP3    H164126   3.464   1.698   1.956  0.2260  1.3943 -0.2664
14237TIP3    H264127   3.353   1.597   1.972  0.1994  0.4105 -5.0871
14238TIP3   OH264128   0.375   4.174   3.698 -0.0518  0.8605 -0.2098
14238TIP3    H164129   0.350   4.084   3.718  0.9564  0.8194  0.9971
14238TIP3    H264130   0.470   4.176   3.708  0.1402  1.6989 -1.7724
14239TIP3   OH264131   1.921   4.919   5.258  0.2824 -0.3310 -0.0801
14239TIP3    H164132   1.987   4.988   5.253  0.5782 -0.5558  0.5013
14239TIP3    H264133   1.966   4.841   5.225  0.4799 -0.5938  0.7714
14240TIP3   OH264134   2.487   3.454   2.727  0.2161  0.4680  0.6817
14240TIP3    H164135   2.414   3.511   2.701 -0.9698 -0.7755  1.1610
14240TIP3    H264136   2.550   3.512   2.769  0.0390  1.7571 -0.7713
14241TIP3   OH264137   2.666   4.812  13.149  0.0236  0.2211 -0.9029
14241TIP3    H164138   2.574   4.808  13.177  0.4239 -1.0612  0.3485
14241TIP3    H264139   2.694   4.901  13.170 -0.5311  0.1717  0.0745
14242TIP3   OH264140   4.738   2.159  13.345 -0.4445  0.1225  0.4716
14242TIP3    H164141   4.690   2.116  13.416  0.9502 -1.4676  0.5102
14242TIP3    H264142   4.677   2.160  13.272 -1.1850 -0.1289  1.0783
14243TIP3   OH264143   3.123   3.424   4.652 -0.2456 -0.4248  0.1278
14243TIP3    H164144   3.052   3.391   4.597  0.7715 -1.0246 -0.8492
14243TIP3    H264145   3.154   3.348   4.700 -0.6007 -0.0556  0.9783
14244TIP3   OH264146   5.496   4.823  14.432 -0.2212  0.2797 -0.1240
14244TIP3    H164147   5.507   4.918  14.438 -2.0322  0.4311  1.4796
14244TIP3    H264148   5.452   4.809  14.348 -1.7079  1.0811  0.4875
14245TIP3   OH264149   2.199   2.632  13.575 -0.2538 -0.9117  0.2950
14245TIP3    H164150   2.191   2.726  13.589  1.0372 -0.8972  0.9866
14245TIP3    H264151   2.174   2.592  13.658  0.6281 -1.1092  0.4769
14246TIP3   OH264152   1.392   2.170   4.571 -1.0868  0.6194  0.3180
14246TIP3    H164153   1.462   2.230   4.546 -2.0746  1.5187 -0.4310
14246TIP3    H264154   1.381   2.184   4.665 -1.8247  2.2654  0.0403
14247TIP3   OH264155   5.865   2.830  16.699 -0.0384 -0.3487  0.4724
14247TIP3    H164156   5.950   2.855  16.737 -0.5930  2.0457  0.3288
14247TIP3    H264157   5.818   2.913  16.690 -2.0871 -1.5169 -0.2529
14248TIP3   OH264158   0.220   2.642   4.556  0.0791  0.2734 -0.1828
14248TIP3    H164159   0.229   2.584   4.480 -1.8949  0.7333 -0.8092
14248TIP3    H264160   0.287   2.611   4.617  1.0449 -0.7591 -1.6897
14249TIP3   OH264161   4.861   6.760   1.060 -0.0197  0.2708 -0.2253
14249TIP3    H164162   4.797   6.818   1.017 -0.3780 -0.2675 -0.4224
14249TIP3    H264163   4.929   6.747   0.994 -0.3405 -0.1828 -0.4689
14250TIP3   OH264164   6.030   0.821   5.906 -1.0434 -0.4803  0.0111
14250TIP3    H164165   5.970   0.894   5.919  0.0938  0.6653 -0.9200
14250TIP3    H264166   6.095   0.830   5.976 -0.8903 -0.6007 -0.1147
14251TIP3   OH264167   4.253   2.358   3.584 -0.1849 -0.1320 -0.0578
14251TIP3    H164168   4.295   2.334   3.502 -0.2108 -0.7514  0.1011
14251TIP3    H264169   4.300   2.435   3.615 -0.7803  0.6788 -1.1147
14252TIP3   OH264170   0.375   2.443   2.717 -0.1181 -0.4828 -0.5305
14252TIP3    H164171   0.306   2.422   2.779  0.1566  1.6305  0.6163
14252TIP3    H264172   0.456   2.419   2.762  0.0135 -0.4071 -0.7252
14253TIP3   OH264173   5.918   0.902  14.749  0.3653 -0.2471 -0.5409
14253TIP3    H164174   5.867   0.912  14.830  1.8433 -0.2502  0.4283
14253TIP3    H264175   5.908   0.809  14.726  0.6753 -0.4630  0.1621
14254TIP3   OH264176   4.095   2.387  11.990 -0.4685 -0.1125  0.5077
14254TIP3    H164177   4.173   2.387  12.046 -0.3398  2.1692  0.4123
14254TIP3    H264178   4.102   2.466  11.938 -2.9690  0.2996  0.6642
14255TIP3   OH264179   3.766   0.509  14.235  0.1713 -0.1875 -0.6999
14255TIP3    H164180   3.695   0.523  14.299 -0.4870 -1.4033 -1.1278
14255TIP3    H264181   3.804   0.596  14.223 -1.8218  0.6979 -1.1091
14256TIP3   OH264182   5.691   1.410  12.693 -0.7695  0.3815  0.0246
14256TIP3    H164183   5.607   1.437  12.656  0.2163 -0.0458 -2.7404
14256TIP3    H264184   5.756   1.467  12.651  0.6075 -1.4072 -0.4224
14257TIP3   OH264185   2.940   5.442  16.665 -0.3535  0.0589 -0.2404
14257TIP3    H164186   2.989   5.524  16.669  0.3378 -0.3463 -0.2799
14257TIP3    H264187   2.887   5.450  16.586  1.5583 -0.5235 -1.6777
14258TIP3   OH264188   6.338   6.480  17.100 -0.1359 -0.0454 -0.6224
14258TIP3    H164189   6.265   6.419  17.095 -1.1892  1.2288 -3.6662
14258TIP3    H264190   6.308   6.549  17.159 -0.4972 -0.5835 -0.1700
14259TIP3   OH264191   3.892   4.631  11.310 -0.2277  0.3338  0.3854
14259TIP3    H164192   3.929   4.555  11.266  2.1960  1.2377  0.6959
14259TIP3    H264193   3.926   4.706  11.262 -1.4996  1.2792  0.8740
14260TIP3   OH264194   0.233   6.479   2.457 -0.1628 -0.7017  0.1729
14260TIP3    H164195   0.328   6.477   2.462 -0.0234 -0.8780 -1.7450
14260TIP3    H264196   0.205   6.525   2.537  1.4667 -1.2855  1.1085
14261TIP3   OH264197   6.669   3.736  11.838 -0.1335  0.0372 -0.4611
14261TIP3    H164198   6.696   3.793  11.910 -0.9200 -1.2107  0.8778
14261TIP3    H264199   6.574   3.747  11.833 -0.0739  0.2139 -1.4248
14262TIP3   OH264200   5.119   4.489   3.263 -0.3182 -0.4917 -0.0844
14262TIP3    H164201   5.095   4.554   3.329  0.0436  0.6178 -1.0204
14262TIP3    H264202   5.102   4.532   3.180  1.7144 -0.8864 -0.7460
14263TIP3   OH264203   0.867   3.093  13.861 -0.4673 -0.4877 -0.0273
14263TIP3    H164204   0.773   3.111  13.862 -0.5598 -0.7459  2.3868
14263TIP3    H264205   0.897   3.122  13.948  1.1881 -2.7539  0.2295
14264TIP3   OH264206   6.341   2.035  15.767 -0.4250 -0.0113  0.3575
14264TIP3    H164207   6.395   1.958  15.753 -0.3359  0.2989 -1.1612
14264TIP3    H264208   6.292   2.046  15.685  0.2743  2.0806  0.1545
14265TIP3   OH264209   5.045   4.345   4.382 -0.0030  0.6085  0.0823
14265TIP3    H164210   4.973   4.282   4.389  0.5526 -0.0907 -0.2994
14265TIP3    H264211   5.040   4.397   4.462  0.5676 -1.0544  1.2622
14266TIP3   OH264212   6.720   6.270  12.190  0.8284 -0.4081  0.5434
14266TIP3    H164213   6.705   6.185  12.230 -0.3489  0.1598  1.3800
14266TIP3    H264214   6.720   6.331  12.263 -1.9900  0.7436 -0.2780
14267TIP3   OH264215   3.957   1.963  11.958 -0.0331 -0.0068 -1.0001
14267TIP3    H164216   3.865   1.967  11.983 -0.3174 -4.4201 -0.6260
14267TIP3    H264217   4.003   1.939  12.039  1.2074  0.3180 -1.5806
14268TIP3   OH264218   6.465   0.366   5.087  0.1784  0.4363 -0.2081
14268TIP3    H164219   6.557   0.359   5.061 -0.3094  1.0735 -2.3086
14268TIP3    H264220   6.463   0.444   5.143  0.8518  0.7123 -0.5476
14269TIP3   OH264221   0.273   5.082   3.685  0.3803 -0.5160 -0.1183
14269TIP3    H164222   0.291   5.007   3.628  0.1558 -0.3762 -0.3773
14269TIP3    H264223   0.359   5.107   3.720  0.6181 -0.2080 -0.8946
14270TIP3   OH264224   3.389   1.196  15.082 -0.4611 -0.7932  0.1699
14270TIP3    H164225   3.360   1.188  15.173 -1.6644  0.0204 -0.1240
14270TIP3    H264226   3.323   1.252  15.040  1.9281  1.8834 -0.3317
14271TIP3   OH264227   0.856   0.175  16.004  0.3646  0.2008  0.0768
14271TIP3    H164228   0.812   0.118  16.066  1.2228  0.0447  0.5604
14271TIP3    H264229   0.936   0.203  16.049 -0.0506  1.8156 -0.1304
14272TIP3   OH264230   5.159   0.783   5.864  0.4577 -0.2840  0.4351
14272TIP3    H164231   5.211   0.840   5.807 -0.3921 -0.6832 -0.7874
14272TIP3    H264232   5.074   0.776   5.819 -0.4437 -0.1468  2.0644
14273TIP3   OH264233   3.462   1.968  13.065 -0.3606  0.5614  0.2588
14273TIP3    H164234   3.417   1.915  13.130 -0.3959  1.3607  0.9065
14273TIP3    H264235   3.395   2.026  13.030 -0.0994  0.9087  0.3263
14274TIP3   OH264236   2.224   6.375   0.453  0.0080  0.0343 -0.1534
14274TIP3    H164237   2.222   6.353   0.360  0.5930  1.7923 -0.6268
14274TIP3    H264238   2.133   6.399   0.473 -0.1774 -0.6202 -0.1924
14275TIP3   OH264239   4.043   1.718   0.255 -0.3473  0.3270 -0.0911
14275TIP3    H164240   4.102   1.792   0.268  0.6511 -0.5033  0.2596
14275TIP3    H264241   4.089   1.661   0.192 -1.8984  0.8363 -1.7584
14276TIP3   OH264242   4.793   1.918  11.739 -0.0693  0.3797  0.0360
14276TIP3    H164243   4.700   1.895  11.748 -0.5664  1.3061 -2.1686
14276TIP3    H264244   4.820   1.879  11.656  1.3613  0.6389  0.3587
14277TIP3   OH264245   4.596   1.408  15.900  0.6213  0.7737  0.8650
14277TIP3    H164246   4.679   1.455  15.914  1.6404 -0.6928  0.0056
14277TIP3    H264247   4.581   1.361  15.982  0.6371  1.0357  1.0194
14278TIP3   OH264248   2.167   3.269  14.382  0.3714  0.0177  0.3592
14278TIP3    H164249   2.219   3.318  14.447 -0.4432 -0.3168  1.2781
14278TIP3    H264250   2.202   3.180  14.386  2.6800  0.6675 -2.1713
14279TIP3   OH264251   1.940   5.905   2.329  0.4985 -0.3057  0.0293
14279TIP3    H164252   1.853   5.928   2.361  0.5223  0.5199 -0.4714
14279TIP3    H264253   1.999   5.965   2.374  0.5779  0.5513 -1.1617
14280TIP3   OH264254   4.468   3.185   0.002 -0.1362  0.1615  0.6418
14280TIP3    H164255   4.425   3.217  -0.077  0.3652  0.5934  0.5340
14280TIP3    H264256   4.523   3.112  -0.029  0.4330  0.6423  0.5026
14281TIP3   OH264257   3.660   5.024  11.323  0.4534 -0.2937  0.2028
14281TIP3    H164258   3.657   5.119  11.319 -0.3581 -0.3468 -0.9345
14281TIP3    H264259   3.612   5.001  11.402  0.4179  0.2342  0.3322
14282TIP3   OH264260   0.251   0.934   1.554  0.2655  0.0774 -0.4325
14282TIP3    H164261   0.279   1.025   1.565  0.8178 -0.1627  0.2608
14282TIP3    H264262   0.164   0.940   1.515 -0.1645  0.9427  0.5962
14283TIP3   OH264263   5.403   6.387  15.070  0.5157  0.2120 -0.0447
14283TIP3    H164264   5.486   6.398  15.116  0.4973 -0.9952  0.3156
14283TIP3    H264265   5.361   6.472  15.075  1.3983  0.6275  0.4404
14284TIP3   OH264266   2.620   1.466  12.830 -0.5332 -0.3479  0.2146
14284TIP3    H164267   2.536   1.482  12.787  0.1929  0.8337 -0.8350
14284TIP3    H264268   2.648   1.380  12.799 -0.4221  0.1245 -1.0567
14285TIP3   OH264269   1.624   5.660  15.894 -0.2642 -0.5094  0.4012
14285TIP3    H164270   1.550   5.677  15.836  1.9096 -0.7658 -2.6624
14285TIP3    H264271   1.674   5.741  15.893  2.5668 -2.0584 -2.6113
14286TIP3   OH264272   1.065   5.857  14.554  0.3627 -0.1914  0.1601
14286TIP3    H164273   1.017   5.934  14.524 -0.5379 -0.4986  0.7895
14286TIP3    H264274   1.107   5.886  14.635  0.0163 -0.3578  0.4023
14287TIP3   OH264275   6.453   5.702  13.040  0.1964 -0.1388 -0.2545
14287TIP3    H164276   6.495   5.617  13.024 -1.0003 -0.6973 -0.5419
14287TIP3    H264277   6.524   5.758  13.070  1.0081 -1.2583 -0.0008
14288TIP3   OH264278   6.551   6.730   0.695  0.0502 -0.1480 -0.2616
14288TIP3    H164279   6.590   6.682   0.768 -0.4238 -0.7444 -0.3925
14288TIP3    H264280   6.534   6.817   0.731 -0.2274 -0.4463  0.3678
14289TIP3   OH264281   4.631   4.143  12.319 -0.3770  0.1877  0.1099
14289TIP3    H164282   4.648   4.099  12.236 -1.1997 -0.4329  0.2650
14289TIP3    H264283   4.658   4.234  12.303  1.7694 -0.4141 -0.0687
14290TIP3   OH264284   2.361   6.782  13.142  0.2129 -0.0831 -0.3717
14290TIP3    H164285   2.334   6.781  13.051 -0.0588 -0.0303 -0.2950
14290TIP3    H264286   2.445   6.737  13.144 -1.1457 -2.8505 -0.2109
14291TIP3   OH264287   0.870   4.126  12.280 -0.2079 -0.6579  0.0437
14291TIP3    H164288   0.825   4.200  12.240 -0.2347 -1.2213 -1.0249
14291TIP3    H264289   0.943   4.107  12.220  0.9386 -0.3131  1.2858
14292TIP3   OH264290   3.260   1.003  14.023  0.1880  0.4131  0.6442
14292TIP3    H164291   3.337   1.048  14.056  2.2577 -1.0448 -1.8701
14292TIP3    H264292   3.240   1.047  13.940  1.2780 -2.1272 -1.0625
14293TIP3   OH264293   5.759   3.903   3.671  0.0002 -0.1574  0.1023
14293TIP3    H164294   5.787   3.816   3.642 -0.5782  0.1007 -1.3051
14293TIP3    H264295   5.713   3.888   3.753  1.8538 -0.9053  1.0686
14294TIP3   OH264296   0.012   4.258   0.217  0.2628  0.0756  0.3421
14294TIP3    H164297   0.004   4.308   0.299  2.7385 -0.3916  0.9569
14294TIP3    H264298   0.095   4.286   0.180 -0.3930 -0.3981 -1.5868
14295TIP3   OH264299   5.840   2.102   3.166  0.5716 -0.1788 -0.1381
14295TIP3    H164300   5.862   2.014   3.197  1.2701  0.4147  1.1271
14295TIP3    H264301   5.750   2.116   3.195  0.9084  0.0148  0.8489
14296TIP3   OH264302   2.574   1.488  11.502  0.1694 -0.7103 -0.6772
14296TIP3    H164303   2.638   1.496  11.431 -0.9846 -0.3061 -1.6990
14296TIP3    H264304   2.580   1.572  11.549  0.9878 -1.0081 -0.2344
14297TIP3   OH264305   4.298   4.428   4.233 -0.0515  0.9293  0.6356
14297TIP3    H164306   4.327   4.519   4.236  1.8894  0.4320 -1.0573
14297TIP3    H264307   4.296   4.400   4.325 -0.2771  2.5113  1.1505
14298TIP3   OH264308   2.003   2.020   4.159 -0.6119  0.7490  0.7156
14298TIP3    H164309   2.055   1.979   4.090 -1.1742  2.0217 -0.5132
14298TIP3    H264310   1.924   1.966   4.164 -0.1077  0.0404  1.1092
14299TIP3   OH264311   3.164   5.751  16.034 -0.1045 -0.3213 -0.1315
14299TIP3    H164312   3.094   5.688  16.016  0.6263 -0.7988 -1.4252
14299TIP3    H264313   3.121   5.836  16.033 -0.9368 -0.7151  0.6775
14300TIP3   OH264314   2.846   5.224   3.412 -0.1259  0.4923  0.3527
14300TIP3    H164315   2.752   5.207   3.408 -0.1681  0.6148  0.7613
14300TIP3    H264316   2.885   5.159   3.353 -0.2899 -0.9233  1.7483
14301TIP3   OH264317   0.488   0.275  16.434 -0.2723 -0.2735  0.5330
14301TIP3    H164318   0.493   0.287  16.340 -0.1169 -2.0609  0.2822
14301TIP3    H264319   0.564   0.323  16.468 -0.0974  0.0421 -0.2788
14302TIP3   OH264320   2.852   5.657  13.453 -0.0610  0.8471 -0.4672
14302TIP3    H164321   2.790   5.730  13.454 -0.2632  0.7111 -1.6641
14302TIP3    H264322   2.831   5.610  13.372  2.3547  1.4489 -1.5206
14303TIP3   OH264323   3.778   5.889  12.429  0.4646 -0.4369 -0.0358
14303TIP3    H164324   3.811   5.809  12.471 -0.8734  0.0850  2.1649
14303TIP3    H264325   3.682   5.882  12.435  0.2531  0.4243 -1.6650
14304TIP3   OH264326   1.698   1.307   5.763 -0.5378 -0.0965  0.0617
14304TIP3    H164327   1.673   1.392   5.728  0.3858  0.1899  0.0673
14304TIP3    H264328   1.758   1.327   5.835  0.0813 -0.7523 -0.2612
14305TIP3   OH264329   1.661   5.637  12.233 -0.2162 -0.2304  0.0786
14305TIP3    H164330   1.584   5.600  12.190 -0.1256 -2.3281  1.5500
14305TIP3    H264331   1.725   5.565  12.231  0.3683  0.1897  2.1350
14306TIP3   OH264332   6.752   4.549   0.356 -0.4233 -0.6791 -0.0021
14306TIP3    H164333   6.660   4.576   0.367 -0.0772  0.0660  1.1731
14306TIP3    H264334   6.796   4.628   0.325 -0.0426 -0.8405  0.1224
14307TIP3   OH264335   2.607   2.825  11.654 -0.0587  0.7517  0.4194
14307TIP3    H164336   2.666   2.774  11.599  0.4314  1.5969  0.1494
14307TIP3    H264337   2.570   2.890  11.596 -0.4104  0.9318  0.8398
14308TIP3   OH264338   2.194   5.930   5.286 -0.3611  0.2830  0.7398
14308TIP3    H164339   2.251   5.857   5.312  1.7249  1.3257 -0.6090
14308TIP3    H264340   2.125   5.889   5.234  1.5373 -0.6879 -1.1923
14309TIP3   OH264341   5.066   3.947  14.091 -0.1039  0.1873  0.2570
14309TIP3    H164342   4.983   3.950  14.044 -0.9383  0.2624  1.6775
14309TIP3    H264343   5.055   3.876  14.155  1.3215 -0.5169 -0.2219
14310TIP3   OH264344   4.263   5.120  16.359 -0.1126  1.1779 -0.0227
14310TIP3    H164345   4.342   5.070  16.378 -0.7737  0.5824  1.3720
14310TIP3    H264346   4.285   5.173  16.283  0.9859 -0.4373 -0.8990
14311TIP3   OH264347   3.737   4.821  11.869  0.4108 -0.3286 -0.0022
14311TIP3    H164348   3.694   4.817  11.783 -0.7466  0.4139  0.5202
14311TIP3    H264349   3.795   4.897  11.863 -0.0768  0.0565  0.0372
14312TIP3   OH264350   1.167   5.581   1.017 -0.4105 -0.5954 -0.1185
14312TIP3    H164351   1.233   5.512   1.029 -0.0068 -0.3108 -0.6766
14312TIP3    H264352   1.083   5.535   1.022 -0.2770 -0.7329  2.3599
14313TIP3   OH264353   6.313   1.522  14.495 -0.3993 -0.5137  0.0014
14313TIP3    H164354   6.235   1.541  14.444  0.6394  1.5272 -0.9653
14313TIP3    H264355   6.282   1.512  14.585 -1.8660 -0.8050 -0.5172
14314TIP3   OH264356   6.796   4.777   5.812 -0.7018 -0.6197 -0.1465
14314TIP3    H164357   6.754   4.808   5.732 -1.4377 -0.2871  0.3548
14314TIP3    H264358   6.831   4.857   5.853  4.3884 -1.1626 -2.6255
14315TIP3   OH264359   0.408   3.792   1.045  0.2507  0.1806  0.4127
14315TIP3    H164360   0.429   3.711   1.092  5.4649  0.2953 -1.0601
14315TIP3    H264361   0.380   3.762   0.958 -0.8530  0.0039  0.8177
14316TIP3   OH264362   0.156   2.737  16.461 -0.2575 -0.0505 -0.7770
14316TIP3    H164363   0.150   2.677  16.535 -1.3337 -1.0386 -1.6352
14316TIP3    H264364   0.162   2.824  16.501 -0.7301 -0.5643  0.4639
14317TIP3   OH264365   4.601   0.361   0.881 -1.2087  0.2280 -0.2429
14317TIP3    H164366   4.640   0.386   0.964 -0.1993 -3.0761  0.4248
14317TIP3    H264367   4.526   0.419   0.871 -0.0947  2.1961  1.8215
14318TIP3   OH264368   0.608   2.157  16.450 -0.3838  0.6413  0.4745
14318TIP3    H164369   0.641   2.118  16.369  1.1564 -0.3513  1.5112
14318TIP3    H264370   0.686   2.194  16.492 -1.1786  1.2848  1.4158
14319TIP3   OH264371   5.234   1.624  13.943 -0.2657 -0.2954  0.4068
14319TIP3    H164372   5.169   1.634  13.873  0.1186  0.8566  0.1776
14319TIP3    H264373   5.188   1.578  14.013 -1.3716  0.5749  0.2866
14320TIP3   OH264374   1.051   3.569  13.727  0.3968  0.2094  0.4127
14320TIP3    H164375   1.061   3.493  13.784 -0.5564  0.7882  1.3965
14320TIP3    H264376   1.019   3.638  13.785  3.4448  2.0821  0.0937
14321TIP3   OH264377   3.954   4.729   1.142 -0.0964  0.5581  0.4162
14321TIP3    H164378   3.941   4.721   1.048 -0.6132  1.5478  0.3923
14321TIP3    H264379   4.039   4.689   1.158 -0.7855 -1.2456 -0.2004
14322TIP3   OH264380   3.574   0.683  16.594  0.0980  0.7301 -0.5881
14322TIP3    H164381   3.508   0.717  16.534 -0.2858  0.0203 -0.5853
14322TIP3    H264382   3.611   0.607  16.548  0.9305  1.1333 -0.5988
14323TIP3   OH264383   0.489   4.202   2.030  0.3270 -0.0861  0.2699
14323TIP3    H164384   0.475   4.187   2.123  1.2306  0.4181  0.5075
14323TIP3    H264385   0.465   4.120   1.988 -1.3080  0.0877  0.8054
14324TIP3   OH264386   0.262   5.822   5.674  0.1644 -0.2466 -0.0073
14324TIP3    H164387   0.352   5.804   5.702  0.0239 -1.6574 -0.3536
14324TIP3    H264388   0.267   5.831   5.579 -0.2198 -1.6484 -0.1834
14325TIP3   OH264389   1.603   3.732   5.029  0.3810 -0.0605  0.3617
14325TIP3    H164390   1.627   3.748   5.120  1.7045 -0.8674  0.1776
14325TIP3    H264391   1.514   3.766   5.022  0.1885 -0.1312  1.9942
14326TIP3   OH264392   2.871   2.181   4.405  0.5303  0.6654 -0.1103
14326TIP3    H164393   2.871   2.127   4.483  0.3358 -0.4061 -0.8303
14326TIP3    H264394   2.961   2.179   4.374  0.1465 -0.8736 -1.2100
14327TIP3   OH264395   2.498   4.055  12.114 -0.2524  0.9159  0.2386
14327TIP3    H164396   2.574   4.111  12.130 -0.7704  1.4704  0.7969
14327TIP3    H264397   2.431   4.088  12.173 -0.9574  0.4813 -0.3022
14328TIP3   OH264398   0.213   2.925   4.606  0.0317  0.7075 -0.3872
14328TIP3    H164399   0.238   2.834   4.594  0.3578  0.9125 -1.3639
14328TIP3    H264400   0.244   2.969   4.527 -1.2091  1.4375 -0.4918
14329TIP3   OH264401   1.876   6.406   4.419  0.2940 -0.7991  0.3113
14329TIP3    H164402   1.814   6.401   4.346 -0.8580 -0.1641  1.2211
14329TIP3    H264403   1.895   6.499   4.428 -1.1691 -0.6137  2.0833
14330TIP3   OH264404   4.262   1.945   4.330 -0.1281  0.0840  0.1074
14330TIP3    H164405   4.249   2.030   4.372  1.4198 -0.4504  1.7918
14330TIP3    H264406   4.310   1.964   4.250  0.7618  0.7600  0.7886
14331TIP3   OH264407   3.174   2.897   2.622  0.0918  0.2081  0.4381
14331TIP3    H164408   3.101   2.920   2.679  0.5794 -0.8061  1.5159
14331TIP3    H264409   3.133   2.879   2.537 -0.7651  0.7959  0.7143
14332TIP3   OH264410   2.851   6.578  16.136  0.4174 -0.2926 -0.7430
14332TIP3    H164411   2.832   6.671  16.129  1.3103 -0.0523 -0.1035
14332TIP3    H264412   2.796   6.547  16.208 -0.1443 -0.3400 -1.1880
14333TIP3   OH264413   6.221   0.909   2.581 -0.4815  0.3864 -0.5583
14333TIP3    H164414   6.293   0.860   2.621  1.0584  2.4038 -0.7386
14333TIP3    H264415   6.142   0.867   2.616  0.7405 -1.6963 -0.1131
14334TIP3   OH264416   3.443   3.079   0.805 -0.0069 -0.8235 -0.2561
14334TIP3    H164417   3.495   3.108   0.729 -0.7839 -0.7073 -0.7613
14334TIP3    H264418   3.507   3.040   0.864  0.9164  0.8366 -0.0934
14335TIP3   OH264419   2.023   6.140  15.742 -0.4914 -0.8121 -0.0128
14335TIP3    H164420   1.937   6.172  15.717 -0.3720 -0.0537  0.5310
14335TIP3    H264421   2.033   6.058  15.693 -1.5537 -0.9613 -0.0044
14336TIP3   OH264422   6.565   0.527  11.472  0.2468 -0.6653  0.1641
14336TIP3    H164423   6.495   0.560  11.529  0.6862  2.9686 -1.1004
14336TIP3    H264424   6.526   0.528  11.384  0.8549 -2.0473 -0.1424
14337TIP3   OH264425   5.863   4.908   0.391  0.9335  0.0335  0.5220
14337TIP3    H164426   5.914   4.834   0.425  0.2333  0.3277  2.3509
14337TIP3    H264427   5.928   4.969   0.358  1.6106 -0.7418  0.4071
14338TIP3   OH264428   6.254   0.152  11.803  0.5839 -0.2046  0.2657
14338TIP3    H164429   6.303   0.161  11.721 -0.8482  0.4856 -0.5442
14338TIP3    H264430   6.197   0.076  11.789 -1.3797  1.3037 -0.3310
14339TIP3   OH264431   0.214   0.490  15.413 -0.5187  0.2942  0.0488
14339TIP3    H164432   0.148   0.524  15.473 -1.9995  1.0287 -1.8812
14339TIP3    H264433   0.183   0.516  15.326  1.6952 -0.4193 -1.0308
14340TIP3   OH264434   2.664   4.344   0.950 -0.8804 -0.3941 -0.1346
14340TIP3    H164435   2.723   4.271   0.933 -1.1397 -0.6956  0.2277
14340TIP3    H264436   2.712   4.421   0.921  0.0835 -0.5289  1.0222
14341TIP3   OH264437   1.919   2.977   1.725  0.3359 -0.8290 -0.4826
14341TIP3    H164438   1.917   3.069   1.752 -0.7640 -0.7954 -0.6285
14341TIP3    H264439   2.011   2.952   1.733  0.2328 -0.5975  2.5683
14342TIP3   OH264440   3.634   1.363  15.121 -0.2802 -0.1019  0.7403
14342TIP3    H164441   3.594   1.276  15.116 -0.1145 -0.1240 -0.3115
14342TIP3    H264442   3.586   1.407  15.191 -0.8912 -0.7723  0.7540
14343TIP3   OH264443   2.572   1.732  11.323  0.0046 -0.1829  0.0838
14343TIP3    H164444   2.664   1.723  11.299 -0.2929  0.5807 -1.4642
14343TIP3    H264445   2.571   1.796  11.394  0.8783 -2.1884  2.0078
14344TIP3   OH264446   1.085   0.396   0.294  0.3839  0.2279  0.6550
14344TIP3    H164447   1.038   0.475   0.267  0.8159  0.1953 -0.2117
14344TIP3    H264448   1.176   0.423   0.302  0.5910 -0.2522  0.0141
14345TIP3   OH264449   1.563   3.214   4.284 -0.6560 -0.2886  0.5674
14345TIP3    H164450   1.551   3.145   4.219 -0.7467  0.3868 -0.1462
14345TIP3    H264451   1.490   3.202   4.345 -0.3917 -1.1192  0.7270
14346TIP3   OH264452   1.415   0.327  16.489 -0.0893  0.2187 -0.7789
14346TIP3    H164453   1.504   0.293  16.483  0.2902  0.7849  1.1709
14346TIP3    H264454   1.395   0.329  16.582 -1.5259  1.6760 -1.0619
14347TIP3   OH264455   5.245   4.838   3.840  0.4380 -0.6348 -0.3363
14347TIP3    H164456   5.339   4.841   3.859  0.3017 -2.0490  0.8008
14347TIP3    H264457   5.204   4.826   3.926 -1.0454  2.7343 -0.4312
14348TIP3   OH264458   5.900   5.774   6.784  0.2827  1.1031 -0.2744
14348TIP3    H164459   5.809   5.752   6.804 -0.1346  1.2156 -1.9077
14348TIP3    H264460   5.944   5.776   6.869 -0.5741 -1.7994  0.3281
14349TIP3   OH264461   3.630   6.603   4.875  0.1530  0.5122 -0.4654
14349TIP3    H164462   3.701   6.664   4.895  0.6223  0.1279 -0.9037
14349TIP3    H264463   3.647   6.527   4.931 -0.1593  0.5918 -0.2616
14350TIP3   OH264464   4.154   6.572   4.071 -0.3043  0.3379  0.0127
14350TIP3    H164465   4.246   6.583   4.046 -0.1990  0.1921  0.3318
14350TIP3    H264466   4.107   6.573   3.988 -0.2025  2.1048 -0.0632
14351TIP3   OH264467   5.691   1.475  16.610 -0.1049  0.0137 -0.0276
14351TIP3    H164468   5.735   1.418  16.547 -0.8307  0.7254 -1.2157
14351TIP3    H264469   5.649   1.416  16.671 -0.3913 -0.7248 -0.9205
14352TIP3   OH264470   2.991   1.527   5.502 -0.3087  0.0763 -0.0488
14352TIP3    H164471   2.916   1.575   5.467 -0.6458 -0.3137  0.1283
14352TIP3    H264472   2.975   1.524   5.596 -0.2862 -0.3743 -0.0592
14353TIP3   OH264473   0.688   1.901  12.761  0.1468 -0.2196 -1.0459
14353TIP3    H164474   0.662   1.818  12.721  0.6347 -0.3918 -1.0106
14353TIP3    H264475   0.743   1.876  12.835  0.3466  0.1352 -1.0719
14354TIP3   OH264476   5.157   3.907   4.723 -0.1381 -0.4034  0.0541
14354TIP3    H164477   5.076   3.877   4.764  0.2814 -0.4404  0.8935
14354TIP3    H264478   5.223   3.844   4.752  0.3080 -0.0068 -0.0830
14355TIP3   OH264479   3.982   2.609  12.825  0.5020  0.5186  0.2662
14355TIP3    H164480   3.916   2.674  12.802 -0.2980 -0.4018 -0.1058
14355TIP3    H264481   3.936   2.546  12.879  1.2191  0.1572  0.4689
14356TIP3   OH264482   6.215   1.683  15.645  0.5855  0.0310 -0.1721
14356TIP3    H164483   6.156   1.743  15.691 -0.3354 -0.6321 -0.4436
14356TIP3    H264484   6.261   1.738  15.582 -1.5454  0.2418 -1.6719
14357TIP3   OH264485   6.507   1.378  16.411  0.3510 -0.4275 -0.2754
14357TIP3    H164486   6.601   1.363  16.425  0.4575 -0.6714 -1.1777
14357TIP3    H264487   6.479   1.426  16.488  1.3028 -0.0176 -0.1673
14358TIP3   OH264488   3.766   5.760  14.674 -0.2484 -0.2630  0.1220
14358TIP3    H164489   3.851   5.721  14.657 -0.7384 -0.6336 -1.6287
14358TIP3    H264490   3.704   5.687  14.667 -0.8929  0.3307 -0.5002
14359TIP3   OH264491   1.199   6.132   3.052 -0.3452  0.2575 -0.1761
14359TIP3    H164492   1.123   6.084   3.021 -0.6192  0.4816  0.1495
14359TIP3    H264493   1.177   6.224   3.038  0.7257  0.2730 -2.1088
14360TIP3   OH264494   4.428   1.933   2.476 -0.2505  0.2113 -0.0570
14360TIP3    H164495   4.442   1.884   2.557  0.1889  0.8646  0.2723
14360TIP3    H264496   4.495   1.900   2.416 -0.4870 -0.1746 -0.1123
14361TIP3   OH264497   4.905   5.108  10.969  0.0876 -0.0242 -0.0660
14361TIP3    H164498   4.927   5.043  10.903  0.2080 -0.9268  0.8318
14361TIP3    H264499   4.946   5.189  10.939  1.8710 -0.8871 -0.0769
14362TIP3   OH264500   6.262   1.584   4.539 -0.3999  0.5653 -0.1556
14362TIP3    H164501   6.215   1.655   4.495 -1.1429  0.5574  0.5984
14362TIP3    H264502   6.200   1.512   4.541 -0.1321  0.3475  0.3083
14363TIP3   OH264503   0.089   6.091   2.149  0.1210  0.1510 -0.2556
14363TIP3    H164504   0.096   6.005   2.189  2.7684 -0.8185 -2.4671
14363TIP3    H264505   0.049   6.075   2.064  1.0614  0.9815 -0.8844
14364TIP3   OH264506   2.472   5.957  15.321  0.4036  0.1713 -0.1701
14364TIP3    H164507   2.459   5.864  15.339 -0.5824  0.2480 -0.4627
14364TIP3    H264508   2.421   6.002  15.388  0.1952  0.4926 -0.5417
14365TIP3   OH264509   0.458   4.397  15.634  0.3564  0.0195  0.4437
14365TIP3    H164510   0.459   4.477  15.582  1.4730 -0.6850 -0.6527
14365TIP3    H264511   0.365   4.383  15.654 -0.1791  0.1184 -1.6978
14366TIP3   OH264512   6.662   4.321   1.104  0.1790  0.1698  0.0345
14366TIP3    H164513   6.622   4.236   1.120 -2.1337  0.8003 -1.8592
14366TIP3    H264514   6.732   4.304   1.042 -1.4823 -0.2125 -1.8436
14367TIP3   OH264515   5.615   1.565   6.675  0.0925  0.0968  0.4250
14367TIP3    H164516   5.533   1.614   6.670  0.3020  0.4254  0.0954
14367TIP3    H264517   5.683   1.632   6.661  0.3790 -0.3223 -0.2202
14368TIP3   OH264518   3.711   1.964  12.561  0.2209 -0.5160 -0.5485
14368TIP3    H164519   3.642   1.972  12.626 -0.3037  1.1611 -1.2741
14368TIP3    H264520   3.678   2.009  12.484  1.6938 -0.5891 -1.2711
14369TIP3   OH264521   6.076   4.146  13.296  0.4264 -0.8715 -0.2059
14369TIP3    H164522   6.058   4.053  13.311  0.1866 -0.5762  1.4647
14369TIP3    H264523   6.156   4.146  13.243  0.3164 -2.0222 -0.4107
14370TIP3   OH264524   1.911   5.641  12.455  0.5727  0.0400  0.1607
14370TIP3    H164525   1.941   5.562  12.501  1.1528 -1.1308 -2.0638
14370TIP3    H264526   1.816   5.635  12.456  0.5890 -1.9273 -1.8154
14371TIP3   OH264527   4.211   5.164   1.743 -0.1326  0.1350  0.1168
14371TIP3    H164528   4.208   5.070   1.757 -1.6860  0.4537  2.4440
14371TIP3    H264529   4.299   5.180   1.708 -0.2801 -2.2557 -1.6115
14372TIP3   OH264530   3.969   2.958   1.248  0.1866  0.0083 -0.1692
14372TIP3    H164531   4.047   2.940   1.301  0.1035 -2.3038 -0.7010
14372TIP3    H264532   3.990   2.921   1.162 -1.6374 -1.1097 -0.1902
14373TIP3   OH264533   4.645   6.383  16.735  0.0400 -0.1387 -0.2385
14373TIP3    H164534   4.612   6.419  16.653  0.8499 -0.4855 -0.7256
14373TIP3    H264535   4.664   6.460  16.789 -0.8569  0.0828 -0.2128
14374TIP3   OH264536   0.521   3.724  11.265 -0.1354 -0.4265  0.4610
14374TIP3    H164537   0.512   3.682  11.350  0.0847 -0.7842  0.3110
14374TIP3    H264538   0.433   3.755  11.244  0.1367  1.2235  1.6110
14375TIP3   OH264539   6.251   0.044  14.331  0.2657  0.5359  0.1793
14375TIP3    H164540   6.238   0.136  14.355  1.7278  0.9126 -0.3618
14375TIP3    H264541   6.163   0.009  14.324 -0.3298  1.9035  0.3929
14376TIP3   OH264542   5.658   2.402  15.772  0.1083 -0.2235 -0.4733
14376TIP3    H164543   5.603   2.409  15.850  0.6464  0.4136 -0.1546
14376TIP3    H264544   5.704   2.319  15.783 -1.9075 -1.5723 -1.4807
14377TIP3   OH264545   5.183   6.670   5.095 -0.1109 -0.1550 -0.0130
14377TIP3    H164546   5.138   6.670   5.010 -0.2251  2.2272 -0.0193
14377TIP3    H264547   5.273   6.643   5.074 -0.1010  0.5237 -0.9477
14378TIP3   OH264548   6.330   3.917   2.700  0.7606 -0.0507 -0.3589
14378TIP3    H164549   6.241   3.914   2.665 -0.0978  0.5456  1.6142
14378TIP3    H264550   6.362   3.827   2.694  0.4846 -0.0526 -2.1489
14379TIP3   OH264551   6.600   3.040   5.067 -0.0401 -0.0764 -0.3671
14379TIP3    H164552   6.617   2.947   5.082  2.5571  0.2328 -0.9638
14379TIP3    H264553   6.591   3.077   5.155  2.3131 -0.3759  0.0610
14380TIP3   OH264554   5.514   0.781   3.907 -0.1321 -0.4326 -0.5131
14380TIP3    H164555   5.537   0.869   3.937  0.5837  0.2808 -2.8912
14380TIP3    H264556   5.554   0.723   3.971 -0.4888  0.9521  1.0363
14381TIP3   OH264557   6.384   4.024  12.743  0.4966  0.9310  0.0587
14381TIP3    H164558   6.297   4.027  12.702 -0.2131  0.8064  1.4656
14381TIP3    H264559   6.419   3.939  12.718  0.9806  1.6615 -1.9392
14382TIP3   OH264560   0.399   3.792  13.785  0.0878  1.0525 -0.1066
14382TIP3    H164561   0.335   3.822  13.721 -1.3484 -1.0155  0.2742
14382TIP3    H264562   0.469   3.752  13.733 -0.9802 -0.4463 -0.4515
14383TIP3   OH264563   1.763   4.282   3.612  0.4161 -0.4905  0.7018
14383TIP3    H164564   1.791   4.373   3.618 -1.0945 -0.0791  2.0789
14383TIP3    H264565   1.668   4.286   3.605  0.4301 -1.8673 -2.9188
14384TIP3   OH264566   1.372   5.054   3.497 -0.0223 -0.3593  0.3089
14384TIP3    H164567   1.369   5.050   3.593  0.0391  0.4133  0.3505
14384TIP3    H264568   1.453   5.101   3.477 -0.5188  0.3534 -0.0879
14385TIP3   OH264569   5.810   4.266  13.327 -0.2196 -0.0699 -0.1487
14385TIP3    H164570   5.767   4.298  13.248  1.6070  1.5245 -0.5665
14385TIP3    H264571   5.895   4.234  13.297 -0.2554 -1.2262  0.9181
14386TIP3   OH264572   4.466   3.456  15.586 -0.0976 -0.3023 -0.3153
14386TIP3    H164573   4.419   3.504  15.518  1.7360  1.7930 -0.2069
14386TIP3    H264574   4.531   3.404  15.538  1.7383  1.7880 -0.2436
14387TIP3   OH264575   0.507   1.747  16.861  0.2363 -0.2627  0.0218
14387TIP3    H164576   0.434   1.705  16.816  0.2031 -0.3491  0.1537
14387TIP3    H264577   0.503   1.713  16.950  0.1148  0.1507  0.1742
14388TIP3   OH264578   4.132   6.623   1.862  0.1522  0.3875 -0.8478
14388TIP3    H164579   4.216   6.624   1.816  1.1487 -1.0334  0.8193
14388TIP3    H264580   4.118   6.532   1.885 -0.9021  0.8586  0.5673
14389TIP3   OH264581   1.066   3.231   4.064  0.7126 -0.0722  0.2246
14389TIP3    H164582   1.063   3.258   4.156 -0.7595  0.1928  0.1296
14389TIP3    H264583   1.130   3.290   4.024  0.5153  0.5877  0.8535
14390TIP3   OH264584   3.735   3.822  13.059  0.2431  0.5716  0.1390
14390TIP3    H164585   3.825   3.800  13.036  0.7815  2.6635  0.1164
14390TIP3    H264586   3.737   3.835  13.154 -0.1573  0.1180  0.2133
14391TIP3   OH264587   6.379   1.350   3.868  0.2919 -0.5525 -0.2895
14391TIP3    H164588   6.361   1.279   3.807 -1.9347  0.4528 -0.9152
14391TIP3    H264589   6.341   1.321   3.951  0.5248 -0.6144 -0.2036
14392TIP3   OH264590   0.136   0.894   2.807 -0.4123  0.3918  0.5150
14392TIP3    H164591   0.226   0.927   2.816 -0.0259 -0.4034 -0.2461
14392TIP3    H264592   0.123   0.839   2.884 -0.1568  0.3377  0.5224
14393TIP3   OH264593   1.298   3.881   6.281  0.0612 -0.5604  0.0344
14393TIP3    H164594   1.290   3.972   6.251  0.2091 -1.1596 -1.8940
14393TIP3    H264595   1.211   3.860   6.316 -0.3910 -0.1297 -0.8188
14394TIP3   OH264596   2.720   5.080  11.382  0.6584  0.1874 -0.2994
14394TIP3    H164597   2.791   5.135  11.415 -0.0486  0.4179  0.8810
14394TIP3    H264598   2.676   5.048  11.460  0.5606 -1.4335 -0.9820
14395TIP3   OH264599   6.720   4.927  16.979 -0.1867  0.4972  0.1960
14395TIP3    H164600   6.662   4.961  16.912 -0.2804  0.6691  0.3634
14395TIP3    H264601   6.794   4.987  16.980 -0.1125  0.4082  0.1424
14396TIP3   OH264602   3.873   6.325  16.827 -0.6082  0.3065 -0.1980
14396TIP3    H164603   3.844   6.270  16.755  0.0541 -0.4363  0.0852
14396TIP3    H264604   3.892   6.264  16.898 -1.0615  1.0082  0.5521
14397TIP3   OH264605   2.702   3.926  16.134 -0.0290 -0.2822  0.5530
14397TIP3    H164606   2.629   3.950  16.076  0.7417  1.9822  0.3922
14397TIP3    H264607   2.751   3.861  16.086 -1.1870 -0.8316  0.0792
14398TIP3   OH264608   1.511   3.498   0.878 -1.1279 -0.0671 -0.1556
14398TIP3    H164609   1.500   3.589   0.905 -1.0015  0.4526 -1.7180
14398TIP3    H264610   1.430   3.455   0.904 -0.7726  0.2224  1.5337
14399TIP3   OH264611   0.921   2.462   0.037  0.5810  0.2789  0.6282
14399TIP3    H164612   0.925   2.370   0.065  2.4110 -0.0783 -0.6166
14399TIP3    H264613   0.983   2.507   0.094 -1.1740  1.0325  2.0344
14400TIP3   OH264614   2.641   4.204  14.442  0.2669 -0.6595 -0.0604
14400TIP3    H164615   2.662   4.119  14.403  2.2239  0.4739 -1.7460
14400TIP3    H264616   2.585   4.246  14.377  2.6484  0.8253 -1.3021
14401TIP3   OH264617   0.533   1.501  11.044  0.5002  0.3719 -0.3996
14401TIP3    H164618   0.540   1.443  11.119  3.3125  1.9877  0.7736
14401TIP3    H264619   0.468   1.566  11.070 -0.0521 -0.2284 -0.2510
14402TIP3   OH264620   4.640   2.640   0.311  0.3475 -0.1961  0.7630
14402TIP3    H164621   4.634   2.562   0.256  1.0170 -0.3835  0.9389
14402TIP3    H264622   4.573   2.627   0.378 -1.0196  0.4094 -0.4369
14403TIP3   OH264623   1.481   4.935  15.075  0.3893 -0.3120 -0.3529
14403TIP3    H164624   1.444   4.891  15.152 -1.1161  1.0238 -0.2693
14403TIP3    H264625   1.498   4.864  15.013  2.2645 -1.5058  1.3902
14404TIP3   OH264626   3.657   0.693  14.938 -0.3942  0.1879 -0.1609
14404TIP3    H164627   3.592   0.626  14.916  1.1767 -1.1390 -0.9711
14404TIP3    H264628   3.662   0.748  14.860  0.2886 -0.4263 -0.5591
14405TIP3   OH264629   1.952   5.008   3.977  0.1016 -0.1792  0.2628
14405TIP3    H164630   1.869   5.014   3.930 -0.7420 -1.3454  1.5068
14405TIP3    H264631   1.998   4.935   3.935 -1.3461 -2.3215  2.0974
14406TIP3   OH264632   1.399   2.963  16.776  0.0464  0.2845  0.6129
14406TIP3    H164633   1.430   2.956  16.867  4.1393  1.2498 -0.5146
14406TIP3    H264634   1.380   3.056  16.765 -1.0666  0.0707  0.5849
14407TIP3   OH264635   3.306   4.089  16.131  0.1819 -0.4695  0.2952
14407TIP3    H164636   3.237   4.025  16.150  0.3788 -1.2307 -1.3839
14407TIP3    H264637   3.303   4.100  16.036  1.8041  0.1464  0.2883
14408TIP3   OH264638   1.492   4.746   0.251 -0.2274 -0.3632  0.1008
14408TIP3    H164639   1.559   4.716   0.312 -0.6801 -0.6211  0.4770
14408TIP3    H264640   1.415   4.693   0.271  0.7059 -3.4545 -3.3691
14409TIP3   OH264641   0.729   5.719   4.699  0.1400 -0.2647  0.0465
14409TIP3    H164642   0.756   5.800   4.654 -0.1627  0.8809  1.8057
14409TIP3    H264643   0.699   5.749   4.785  0.9564 -2.3757  1.1259
14410TIP3   OH264644   5.366   4.133   2.624  0.4836 -0.5717  0.2819
14410TIP3    H164645   5.331   4.190   2.693 -2.5363 -2.3348  0.3705
14410TIP3    H264646   5.384   4.050   2.669  1.8137 -0.6929 -0.4303
14411TIP3   OH264647   5.075   6.219  16.459 -0.7591  0.2855 -0.5739
14411TIP3    H164648   5.024   6.164  16.518 -0.3676  0.9112  0.3656
14411TIP3    H264649   5.015   6.241  16.388 -1.7167  0.7729  0.3667
14412TIP3   OH264650   6.494   6.692   4.917 -0.2957 -0.0599 -0.1569
14412TIP3    H164651   6.425   6.707   4.852 -0.5089 -1.1514 -0.2029
14412TIP3    H264652   6.573   6.675   4.865 -0.4718 -0.9592 -0.1584
14413TIP3   OH264653   3.526   1.377   1.991  0.3589 -0.5108  0.1191
14413TIP3    H164654   3.504   1.285   1.978 -0.4746 -0.3269  0.1658
14413TIP3    H264655   3.578   1.378   2.071  0.0290 -0.8985  0.3414
14414TIP3   OH264656   4.712   3.495  11.196 -0.1784  0.4056  0.6410
14414TIP3    H164657   4.693   3.540  11.278 -0.6649  0.2433  0.6178
14414TIP3    H264658   4.804   3.470  11.204 -0.3559 -0.0439  1.3468
14415TIP3   OH264659   6.422   3.280  12.953  0.1562 -0.0742  0.3719
14415TIP3    H164660   6.425   3.196  12.908  0.2116  0.8117 -1.3871
14415TIP3    H264661   6.331   3.289  12.983  0.1206 -0.6853  0.4496
14416TIP3   OH264662   4.366   4.833   1.229 -0.6556  0.3289 -0.3772
14416TIP3    H164663   4.460   4.823   1.220 -0.5201 -0.4831  1.4987
14416TIP3    H264664   4.347   4.803   1.318 -2.4911  1.8796 -0.1887
14417TIP3   OH264665   3.863   5.748  16.435  0.3842  0.3730  0.2964
14417TIP3    H164666   3.934   5.689  16.413  0.8767  1.1666 -0.3020
14417TIP3    H264667   3.799   5.693  16.481  0.7355 -0.6522 -0.4102
14418TIP3   OH264668   6.073   3.458   2.559  0.2379  0.1157 -0.6879
14418TIP3    H164669   6.008   3.399   2.521  0.9402 -0.5462 -0.8835
14418TIP3    H264670   6.098   3.416   2.642 -0.1112  0.7342 -0.2633
14419TIP3   OH264671   6.278   3.901   0.569  0.0599 -0.0163 -0.1400
14419TIP3    H164672   6.354   3.881   0.514  1.6936  0.4550  1.8383
14419TIP3    H264673   6.285   3.839   0.642 -1.0419  0.5500  0.4608
14420TIP3   OH264674   5.891   5.743   2.619 -0.4444 -0.3498 -0.4310
14420TIP3    H164675   5.968   5.689   2.602 -0.8822 -1.5397  1.1832
14420TIP3    H264676   5.887   5.751   2.714 -1.2047  1.3800 -0.5677
14421TIP3   OH264677   4.317   1.095  15.561 -0.1161 -0.1210 -0.2908
14421TIP3    H164678   4.293   1.059  15.475 -1.3433 -0.5221  0.1968
14421TIP3    H264679   4.233   1.114  15.603  0.4602 -0.1995  0.9381
14422TIP3   OH264680   6.398   0.647  13.744 -0.0104  0.0531 -0.0242
14422TIP3    H164681   6.369   0.728  13.701  0.3855 -0.0015 -0.4053
14422TIP3    H264682   6.362   0.577  13.689  1.5978 -0.0191 -1.0668
14423TIP3   OH264683   3.356   5.316  14.739 -0.0358  0.5122 -0.4756
14423TIP3    H164684   3.371   5.396  14.688 -0.9480  1.9114  1.3196
14423TIP3    H264685   3.343   5.347  14.828  2.2850 -1.8833  0.8131
14424TIP3   OH264686   4.103   1.444   0.015  0.0727 -0.1081 -0.2076
14424TIP3    H164687   4.140   1.440  -0.073 -0.3202  0.0137 -0.3797
14424TIP3    H264688   4.037   1.375   0.016  0.5590 -0.5823  0.2213
14425TIP3   OH264689   3.235   0.585   5.658  0.1244 -0.2872 -0.0408
14425TIP3    H164690   3.215   0.679   5.661  0.4937 -0.2132  0.2258
14425TIP3    H264691   3.226   0.557   5.749 -1.0182 -0.7373 -0.2755
14426TIP3   OH264692   2.844   0.063  15.240 -0.2429 -0.0667 -0.2966
14426TIP3    H164693   2.825  -0.030  15.231 -0.6378  0.1348 -1.8288
14426TIP3    H264694   2.764   0.107  15.212  0.3515  0.7274 -0.7994
14427TIP3   OH264695   4.591   5.976  16.428 -0.4034  0.2952 -0.1594
14427TIP3    H164696   4.553   5.910  16.486  1.8193 -0.9737 -0.0266
14427TIP3    H264697   4.626   6.043  16.488 -0.8225  0.5471 -0.1942
14428TIP3   OH264698   6.792   0.320  11.597  0.0645 -0.4009 -0.5526
14428TIP3    H164699   6.708   0.289  11.563  0.0421 -0.2919 -0.5971
14428TIP3    H264700   6.842   0.240  11.614  0.1326 -0.4515 -0.9918
14429TIP3   OH264701   2.540   6.594  11.221 -0.3121  0.2900 -0.0013
14429TIP3    H164702   2.527   6.547  11.139 -1.9148  0.0168  0.3749
14429TIP3    H264703   2.617   6.554  11.260  0.9458  0.9496 -1.7169
14430TIP3   OH264704   3.998   4.405   2.196 -0.4574 -0.7790 -0.5471
14430TIP3    H164705   4.075   4.429   2.247 -1.2747  1.2310 -0.1683
14430TIP3    H264706   3.924   4.428   2.252 -1.3547 -0.5801 -1.7723
14431TIP3   OH264707   0.299   2.074  11.470  0.0501 -0.6863  0.1956
14431TIP3    H164708   0.255   2.049  11.552  0.5873  0.4341  0.8631
14431TIP3    H264709   0.375   2.124  11.499 -0.5363  0.9893 -1.0063
14432TIP3   OH264710   1.900   6.566  14.890 -0.1121  0.1402  0.1018
14432TIP3    H164711   1.891   6.518  14.973 -1.8129  0.4366  0.1158
14432TIP3    H264712   1.916   6.498  14.825 -1.2230 -0.3352  0.3149
14433TIP3   OH264713   2.411   3.708   4.252 -0.0177  0.2423  0.0986
14433TIP3    H164714   2.355   3.688   4.327 -0.8278 -0.3154 -0.6423
14433TIP3    H264715   2.459   3.787   4.279  1.4585 -1.2435  2.1280
14434TIP3   OH264716   3.850   6.568  13.545  0.4242  0.3411 -0.6823
14434TIP3    H164717   3.786   6.625  13.587 -0.2468 -0.3894 -0.6794
14434TIP3    H264718   3.853   6.598  13.454  0.7761  0.9696 -0.4694
14435TIP3   OH264719   4.910   2.942   3.734  0.0574 -0.2298  0.2910
14435TIP3    H164720   4.845   2.925   3.666  1.8792 -0.0084 -1.5595
14435TIP3    H264721   4.917   2.859   3.782 -1.3116 -0.3501  0.3236
14436TIP3   OH264722   6.273   6.085  10.978  0.3529  0.3783  0.3523
14436TIP3    H164723   6.184   6.053  10.992 -0.4248  2.8203  1.4960
14436TIP3    H264724   6.263   6.176  10.953  2.5408  0.6049  0.0795
14437TIP3   OH264725   4.908   2.884  12.811 -0.6122  0.0455  0.0195
14437TIP3    H164726   4.826   2.877  12.763  0.3395  0.9400 -1.8288
14437TIP3    H264727   4.927   2.978  12.812  0.5453 -0.1835  0.1606
14438TIP3   OH264728   1.170   5.879  15.388 -0.4072 -0.3875  0.1831
14438TIP3    H164729   1.153   5.805  15.330 -0.5054  0.5739 -1.0578
14438TIP3    H264730   1.257   5.863  15.424 -0.0996 -0.7254 -0.6928
14439TIP3   OH264731   3.395   6.218   3.481  0.4213  0.0456 -0.1535
14439TIP3    H164732   3.410   6.307   3.513  0.4194  0.5927 -1.6159
14439TIP3    H264733   3.445   6.162   3.541 -0.6564  0.8916  1.5858
14440TIP3   OH264734   1.994   0.978   6.142 -0.0107 -0.4186 -0.0757
14440TIP3    H164735   2.029   0.889   6.132  0.5424 -0.2140  0.0179
14440TIP3    H264736   1.901   0.969   6.120  0.2299 -0.8426 -0.9912
14441TIP3   OH264737   3.336   4.333  16.478  0.1857  0.1800  0.9720
14441TIP3    H164738   3.254   4.318  16.432  0.5757  0.3495  0.1909
14441TIP3    H264739   3.315   4.323  16.570 -0.5874 -0.3368  0.7477
14442TIP3   OH264740   0.481   3.115  12.344 -0.0679  0.8648 -0.0567
14442TIP3    H164741   0.483   3.092  12.251 -0.8626  0.5653 -0.0042
14442TIP3    H264742   0.392   3.096  12.372  0.2598  0.6154  0.8584
14443TIP3   OH264743   0.723   4.822   2.880 -0.7419  0.0728  0.3172
14443TIP3    H164744   0.750   4.872   2.803 -0.2481  0.8350  0.9800
14443TIP3    H264745   0.728   4.731   2.851 -2.2648  0.3802 -1.1083
14444TIP3   OH264746   3.019   5.289  10.665  0.0656 -0.0724  0.2261
14444TIP3    H164747   2.947   5.248  10.617  0.1473 -1.7856  1.4763
14444TIP3    H264748   3.044   5.364  10.611 -2.0549  0.0504 -0.6796
14445TIP3   OH264749   0.086   1.107  14.063  0.6646 -0.4617  0.0586
14445TIP3    H164750   0.101   1.070  13.976  0.1644 -0.1541 -0.1659
14445TIP3    H264751   0.042   1.037  14.112 -0.4181 -0.1311 -0.4121
14446TIP3   OH264752   2.160   0.741  15.695 -0.0492  0.0438  0.8343
14446TIP3    H164753   2.192   0.682  15.764  0.5572 -0.7368 -0.0915
14446TIP3    H264754   2.239   0.786  15.665  0.3387 -2.1565 -1.7320
14447TIP3   OH264755   2.382   6.723  14.846 -0.9357 -0.7290 -0.3410
14447TIP3    H164756   2.327   6.651  14.815 -1.0905 -0.5356 -0.5223
14447TIP3    H264757   2.469   6.702  14.812 -0.5525 -1.8068  1.1911
14448TIP3   OH264758   0.675   1.643  15.444 -1.2725  0.3892 -0.5118
14448TIP3    H164759   0.763   1.607  15.450 -1.1919  0.3241 -1.7282
14448TIP3    H264760   0.623   1.590  15.505  0.1668  2.7571  3.1140
14449TIP3   OH264761   0.122   3.446   2.688  0.0537  0.0481 -0.3931
14449TIP3    H164762   0.077   3.388   2.749  0.2414  1.3033  0.9727
14449TIP3    H264763   0.060   3.516   2.669 -0.1632 -0.5382 -2.0177
14450TIP3   OH264764   0.299   5.275   2.196 -0.0594  0.2706  0.1218
14450TIP3    H164765   0.212   5.266   2.236 -0.0841 -3.8890 -0.4491
14450TIP3    H264766   0.354   5.216   2.246  2.0856  1.4927 -0.6675
14451TIP3   OH264767   3.565   3.749  12.028 -0.0248  0.2444  0.2988
14451TIP3    H164768   3.582   3.804  12.105  0.4839  1.3278 -0.5636
14451TIP3    H264769   3.559   3.811  11.955  0.3989 -0.8325 -0.6759
14452TIP3   OH264770   5.378   6.549   1.065 -0.3619  0.6643 -0.4079
14452TIP3    H164771   5.343   6.589   0.986 -1.3903 -2.1698 -1.4964
14452TIP3    H264772   5.309   6.490   1.095  0.3167  1.0417  2.1951
14453TIP3   OH264773   5.634   5.321  13.783 -0.0573  0.2596 -0.6602
14453TIP3    H164774   5.676   5.404  13.805 -0.5372  0.3493 -0.0646
14453TIP3    H264775   5.567   5.309  13.850 -1.4352  0.4424 -1.9539
14454TIP3   OH264776   6.581   6.433   0.195  0.6693  0.2774  0.4952
14454TIP3    H164777   6.538   6.467   0.116  1.2550  2.3475  0.9969
14454TIP3    H264778   6.525   6.462   0.267 -0.1660 -2.0753  0.8945
14455TIP3   OH264779   6.275   5.885   5.195  0.0206  0.1263 -0.5731
14455TIP3    H164780   6.355   5.937   5.203  0.9624 -0.8146 -3.0974
14455TIP3    H264781   6.305   5.794   5.203 -1.2346 -0.1870  1.1401
14456TIP3   OH264782   0.378   0.087  12.636 -0.0254  0.5987 -0.1273
14456TIP3    H164783   0.413   0.159  12.583  0.3240  1.1404  0.8104
14456TIP3    H264784   0.306   0.126  12.686  0.4831  0.4383  0.7575
14457TIP3   OH264785   2.430   1.493  15.652 -0.0931 -0.0834  0.4580
14457TIP3    H164786   2.429   1.403  15.684 -1.6700  0.0446  0.8233
14457TIP3    H264787   2.523   1.517  15.651  0.3053 -1.5232  0.8534
14458TIP3   OH264788   1.319   5.344   5.097  0.5189 -0.2278  0.5805
14458TIP3    H164789   1.244   5.288   5.118  0.6193 -0.4461  0.3636
14458TIP3    H264790   1.394   5.285   5.097  0.5225 -0.2469 -0.3940
14459TIP3   OH264791   0.183   3.734   2.397 -0.4497 -0.2913  0.1535
14459TIP3    H164792   0.213   3.777   2.477 -0.9037 -0.7504  0.5768
14459TIP3    H264793   0.241   3.658   2.387 -0.5098 -0.3355  0.1433
14460TIP3   OH264794   5.831   3.016   4.872  0.0718 -0.0871 -0.9793
14460TIP3    H164795   5.822   3.017   4.968  0.4928 -1.4089 -0.9077
14460TIP3    H264796   5.899   3.080   4.854 -1.6511  1.9517 -0.6184
14461TIP3   OH264797   1.429   4.986   1.269  0.1889  0.1820  0.0678
14461TIP3    H164798   1.377   4.939   1.334  0.1905  0.6628  0.4229
14461TIP3    H264799   1.512   5.004   1.313  0.1702  0.5572 -0.0408
14462TIP3   OH264800   2.858   4.542   0.219 -0.7756 -0.2525  0.8250
14462TIP3    H164801   2.787   4.591   0.260 -0.2816  0.8833  0.3587
14462TIP3    H264802   2.846   4.557   0.125 -0.6855 -1.1455  0.6578
14463TIP3   OH264803   2.627   5.120  15.949 -0.4470 -0.2668  0.3714
14463TIP3    H164804   2.599   5.192  15.892 -0.7182  0.0044  0.8447
14463TIP3    H264805   2.719   5.138  15.967 -0.8639  0.7295  1.6154
14464TIP3   OH264806   5.048   4.658   2.451  0.0515  0.4963 -0.2943
14464TIP3    H164807   4.983   4.728   2.455 -1.0030 -0.4093 -0.8165
14464TIP3    H264808   5.080   4.649   2.541  0.0520  1.4921 -0.1840
14465TIP3   OH264809   5.330   4.798  15.907  0.6119 -0.4512  0.5977
14465TIP3    H164810   5.244   4.828  15.878  1.8499  0.5301 -2.4417
14465TIP3    H264811   5.311   4.726  15.967 -2.3327 -1.2991 -1.1386
14466TIP3   OH264812   3.519   3.975  14.910  0.8047  0.4827 -0.0177
14466TIP3    H164813   3.487   3.995  14.998  1.4666 -0.7143  0.5259
14466TIP3    H264814   3.557   3.887  14.918  1.3583  0.5753 -1.3782
14467TIP3   OH264815   5.244   3.817   0.626  0.1229  0.2534  0.1563
14467TIP3    H164816   5.320   3.829   0.568 -0.3689 -0.9166 -0.7678
14467TIP3    H264817   5.265   3.740   0.679  0.2104  0.8206  0.9604
14468TIP3   OH264818   0.920   0.536   1.592  0.1357 -0.0505  0.5640
14468TIP3    H164819   0.993   0.501   1.642  0.4558 -0.0376  0.1085
14468TIP3    H264820   0.850   0.547   1.656  1.8356  4.1723  2.0723
14469TIP3   OH264821   5.404   1.352   0.107  0.4252  0.3591 -0.2461
14469TIP3    H164822   5.327   1.301   0.084  0.5716 -0.6158  1.2716
14469TIP3    H264823   5.394   1.434   0.058 -1.2224 -0.0184 -0.5998
14470TIP3   OH264824   2.355   0.513   0.640  0.3494 -0.2714 -0.6134
14470TIP3    H164825   2.260   0.506   0.634  0.4005 -1.9151  0.1680
14470TIP3    H264826   2.372   0.543   0.729  0.5675  0.1878 -0.8043
14471TIP3   OH264827   5.681   2.015  10.439  0.1995  0.1014 -0.3005
14471TIP3    H164828   5.764   1.988  10.480 -1.3397 -3.0498  1.0782
14471TIP3    H264829   5.681   1.971  10.354  0.1426  0.4988 -0.5081
14472TIP3   OH264830   1.473   6.739   2.611 -0.2066 -0.6020  0.5288
14472TIP3    H164831   1.443   6.648   2.613  1.1370 -1.1282 -1.0605
14472TIP3    H264832   1.511   6.749   2.524  2.0849  0.6939  1.6092
14473TIP3   OH264833   6.280   2.685  15.600 -0.4294  0.0024  0.2355
14473TIP3    H164834   6.290   2.741  15.677  1.0949  1.2315 -0.8028
14473TIP3    H264835   6.243   2.742  15.533  2.6650  0.3302 -1.3506
14474TIP3   OH264836   0.477   0.215  11.886 -0.2386  0.1892  0.0195
14474TIP3    H164837   0.412   0.283  11.867  1.1728  1.5737 -0.0063
14474TIP3    H264838   0.557   0.245  11.843  0.4614 -1.4352  0.1184
14475TIP3   OH264839   6.561   3.343  14.247 -0.0167  0.4397  0.1305
14475TIP3    H164840   6.509   3.405  14.195  0.0492 -0.3437 -0.8984
14475TIP3    H264841   6.628   3.311  14.185 -2.3819 -3.6570 -0.6795
14476TIP3   OH264842   2.852   1.183  14.961 -0.4021 -0.3588 -0.0775
14476TIP3    H164843   2.774   1.127  14.956 -0.8349  0.0296  1.4868
14476TIP3    H264844   2.872   1.205  14.871  0.1096 -3.4466 -0.8246
14477TIP3   OH264845   5.621   4.014  16.868 -0.0384 -0.0684  0.0011
14477TIP3    H164846   5.632   3.922  16.892 -0.2557  0.2124  1.2334
14477TIP3    H264847   5.709   4.052  16.879  0.1808 -0.2354 -1.0580
14478TIP3   OH264848   0.751   3.096   2.669  0.0471  0.1093 -0.7137
14478TIP3    H164849   0.684   3.040   2.629  0.9149 -1.5135  0.0260
14478TIP3    H264850   0.710   3.183   2.673 -1.7550 -0.6903 -0.8920
14479TIP3   OH264851   5.291   1.375  11.110  0.2445  0.0185  0.0435
14479TIP3    H164852   5.289   1.464  11.146 -0.0377  0.1974 -0.4000
14479TIP3    H264853   5.320   1.320  11.183  0.6197  0.5021  0.2685
14480TIP3   OH264854   2.315   5.770   0.538  0.4325 -0.2408 -0.0132
14480TIP3    H164855   2.376   5.767   0.612 -1.3285 -0.2814  1.5151
14480TIP3    H264856   2.360   5.822   0.472  1.8701  0.2366  1.2766
14481TIP3   OH264857   1.500   3.567  15.815  0.5266  0.2628 -0.3659
14481TIP3    H164858   1.479   3.479  15.783  0.5673  0.6269 -1.4366
14481TIP3    H264859   1.426   3.621  15.787  0.0923  0.4251  1.0210
14482TIP3   OH264860   4.295   4.747   0.382  0.1596 -1.2776  0.2121
14482TIP3    H164861   4.229   4.815   0.398  0.3081 -0.8747 -0.8200
14482TIP3    H264862   4.305   4.704   0.467  1.3180  1.0790  1.3928
14483TIP3   OH264863   4.799   6.275  12.520  0.1059  0.3461 -0.2515
14483TIP3    H164864   4.737   6.210  12.486  1.3218  0.7299 -3.5459
14483TIP3    H264865   4.875   6.223  12.547 -0.1654  0.1897  0.2406
14484TIP3   OH264866   6.533   5.359  11.764 -0.2036  0.1028  0.0168
14484TIP3    H164867   6.498   5.368  11.676 -0.9398 -0.4083  0.2428
14484TIP3    H264868   6.601   5.426  11.771  1.4474 -1.3094 -1.6928
14485TIP3   OH264869   0.679   3.898   0.267 -0.1737  0.0812  0.0974
14485TIP3    H164870   0.757   3.952   0.255 -0.3540  0.2292 -0.4802
14485TIP3    H264871   0.638   3.896   0.180 -2.5018  2.5985  0.9982
14486TIP3   OH264872   5.106   0.413  15.805  0.1036 -0.6540 -0.4744
14486TIP3    H164873   5.187   0.463  15.819 -0.1193 -0.5928  0.6720
14486TIP3    H264874   5.042   0.480  15.780  0.1228 -0.5382 -0.2209
14487TIP3   OH264875   4.711   5.241   0.763  0.0892 -0.0083 -0.3727
14487TIP3    H164876   4.621   5.210   0.753  0.3802 -1.1027  0.3429
14487TIP3    H264877   4.762   5.190   0.700  0.0321  1.5483 -1.7532
14488TIP3   OH264878   4.880   4.350  14.093 -0.0794  0.6395  0.4089
14488TIP3    H164879   4.832   4.274  14.125 -0.6758  0.6412 -0.4586
14488TIP3    H264880   4.970   4.337  14.125  0.5701 -1.9352 -2.0812
14489TIP3   OH264881   5.274   6.533   5.850 -0.4008 -0.0505 -0.3844
14489TIP3    H164882   5.303   6.593   5.918  1.3466 -0.3560 -0.8086
14489TIP3    H264883   5.335   6.547   5.777 -0.8030 -1.3490 -1.0102
14490TIP3   OH264884   6.532   6.689  16.525  0.1724  0.6325  0.4605
14490TIP3    H164885   6.577   6.697  16.440 -0.5035 -1.5735 -0.1798
14490TIP3    H264886   6.601   6.698  16.590  1.4124 -1.4261 -0.4675
14491TIP3   OH264887   1.512   4.175  17.037  0.1909  0.5233  0.1346
14491TIP3    H164888   1.482   4.089  17.069  0.5451  0.7991  1.2377
14491TIP3    H264889   1.437   4.209  16.988  0.5850 -1.0855 -1.7215
14492TIP3   OH264890   1.015   0.111   5.858 -0.1127 -0.1029 -0.4814
14492TIP3    H164891   0.965   0.103   5.940  0.2140 -1.6219 -0.4106
14492TIP3    H264892   1.040   0.203   5.855 -2.1138  0.5132 -0.0511
14493TIP3   OH264893   3.577   0.340   4.648  0.2811  0.0141  0.1536
14493TIP3    H164894   3.513   0.326   4.579 -0.5454 -0.0205  0.9168
14493TIP3    H264895   3.534   0.310   4.728  1.7232 -1.2806  0.4988
14494TIP3   OH264896   6.667   6.454  15.210  0.1545 -0.4949 -0.4089
14494TIP3    H164897   6.739   6.447  15.274  0.3698  0.2719 -0.5636
14494TIP3    H264898   6.711   6.458  15.125 -0.0757 -0.0532 -0.5072
14495TIP3   OH264899   1.350   2.212   4.305 -0.1870  0.0100 -0.3557
14495TIP3    H164900   1.354   2.186   4.397  0.9378 -0.4399 -0.5269
14495TIP3    H264901   1.268   2.173   4.274 -0.6118  0.2118  0.4578
14496TIP3   OH264902   0.818   4.827  13.301  0.2956  0.2762  0.6485
14496TIP3    H164903   0.873   4.876  13.240 -0.6505  0.4003 -0.1198
14496TIP3    H264904   0.874   4.814  13.378  0.2704  3.4533  1.3429
14497TIP3   OH264905   2.190   4.107   5.604 -0.1027  0.1303 -0.0816
14497TIP3    H164906   2.163   4.047   5.673 -0.8179  0.6342  0.0911
14497TIP3    H264907   2.113   4.162   5.589  0.1755  0.2827 -1.0042
14498TIP3   OH264908   2.361   0.861  13.212  0.3958 -0.0379  0.1377
14498TIP3    H164909   2.340   0.787  13.155 -0.6651 -0.6398  1.2613
14498TIP3    H264910   2.332   0.834  13.299 -0.2622  1.7905  0.5467
14499TIP3   OH264911   3.565   4.706  15.940 -0.3735  0.0635  0.0407
14499TIP3    H164912   3.481   4.671  15.968  0.2779 -1.1129  0.5698
14499TIP3    H264913   3.605   4.740  16.020 -0.1787  0.2575 -0.1380
14500TIP3   OH264914   5.594   2.989  15.858  0.5504 -0.3702 -0.1856
14500TIP3    H164915   5.594   3.081  15.884  0.9924 -0.9014  1.9060
14500TIP3    H264916   5.611   2.990  15.764 -2.6533  1.8207 -0.9169
14501TIP3   OH264917   1.807   5.201  12.781  0.3487 -0.5551 -0.3071
14501TIP3    H164918   1.828   5.293  12.770 -0.2460 -0.3559  0.1608
14501TIP3    H264919   1.761   5.196  12.865  1.7046 -1.5004  0.4254
14502TIP3   OH264920   3.622   3.444  13.843  0.2850  0.4548  0.8120
14502TIP3    H164921   3.666   3.468  13.924  0.5218 -1.1505  1.1917
14502TIP3    H264922   3.533   3.422  13.869 -0.2480  1.8971  0.3109
14503TIP3   OH264923   2.245   3.313   2.519 -0.2559 -0.2405  0.8372
14503TIP3    H164924   2.305   3.252   2.562  0.2747 -1.5272 -1.5164
14503TIP3    H264925   2.274   3.399   2.548  1.7449 -0.9103  0.9886
14504TIP3   OH264926   6.346   1.562  15.868 -0.0680  0.5305 -0.4923
14504TIP3    H164927   6.330   1.594  15.779  0.3678 -1.1575 -1.2138
14504TIP3    H264928   6.441   1.552  15.874 -0.1205  0.3215  0.0671
14505TIP3   OH264929   4.334   4.320  14.671  0.0852 -0.5394  0.1882
14505TIP3    H164930   4.242   4.301  14.654  0.0393  0.5258 -0.8793
14505TIP3    H264931   4.350   4.404  14.627  1.9561 -1.4564 -1.0132
14506TIP3   OH264932   3.574   3.913  14.339 -0.4294  0.1847 -0.3362
14506TIP3    H164933   3.585   3.998  14.297  1.0886 -0.2024 -0.7630
14506TIP3    H264934   3.637   3.914  14.411  1.0066 -1.2834 -1.5058
14507TIP3   OH264935   1.962   2.301   1.070 -0.0470 -0.8127 -0.0684
14507TIP3    H164936   1.881   2.259   1.042 -0.9646  1.2271 -0.6529
14507TIP3    H264937   1.954   2.308   1.165 -1.2604  0.6091 -0.2255
14508TIP3   OH264938   4.910   0.242  12.826  0.1888  0.0612  0.0262
14508TIP3    H164939   4.902   0.147  12.840 -0.9650  0.1975  0.3890
14508TIP3    H264940   5.000   0.254  12.795  0.4794 -1.1029  0.3669
14509TIP3   OH264941   0.464   0.110  11.111  0.6046 -0.6643  0.1022
14509TIP3    H164942   0.557   0.113  11.090  0.4266 -0.3501 -0.7008
14509TIP3    H264943   0.450   0.185  11.169  0.3940  0.9190 -1.8720
14510TIP3   OH264944   1.385   0.279  11.960 -0.0677 -0.0186  0.0547
14510TIP3    H164945   1.289   0.273  11.965 -0.2072  1.2988 -0.5498
14510TIP3    H264946   1.403   0.304  11.869  0.5921  3.1034  0.9182
14511TIP3   OH264947   3.257   5.948  16.358  0.0122 -0.6306  0.0537
14511TIP3    H164948   3.258   5.993  16.442 -1.0436 -0.3476 -0.0708
14511TIP3    H264949   3.278   6.016  16.294 -1.1692 -0.3862 -0.0936
14512TIP3   OH264950   1.383   6.541  14.569 -0.5708  0.5682 -0.3108
14512TIP3    H164951   1.353   6.569  14.655 -0.3551  1.3582 -0.4825
14512TIP3    H264952   1.427   6.457  14.585  2.3991  2.2012  0.9314
14513TIP3   OH264953   1.729   4.885  13.131  0.1318 -0.3313  0.1107
14513TIP3    H164954   1.703   4.793  13.120 -0.3842  0.0260 -2.2265
14513TIP3    H264955   1.808   4.895  13.078  0.5442  0.4537  0.8383
14514TIP3   OH264956   1.800   0.714  12.540  0.0221  0.0296  0.6780
14514TIP3    H164957   1.818   0.634  12.588  0.6657 -0.4242 -0.2780
14514TIP3    H264958   1.848   0.704  12.458 -1.0098  0.7793 -0.0546
14515TIP3   OH264959   3.541   2.079   3.402  0.1378  0.1612 -0.4469
14515TIP3    H164960   3.540   2.060   3.496  3.5187 -1.5408 -0.6016
14515TIP3    H264961   3.612   2.141   3.391 -2.1620  2.7915 -1.6554
14516TIP3   OH264962   0.231   6.095  14.528  0.2878 -0.2980  0.0542
14516TIP3    H164963   0.248   6.124  14.439  2.8311 -2.1453 -0.1807
14516TIP3    H264964   0.245   6.173  14.582 -3.3978  1.4195 -1.1717
14517TIP3   OH264965   2.530   2.239   4.712 -0.0519  0.0728 -0.0741
14517TIP3    H164966   2.580   2.280   4.642  0.5913  1.0767  0.9353
14517TIP3    H264967   2.486   2.312   4.756  2.3935  0.0370  2.7905
14518TIP3   OH264968   3.087   4.022  15.135 -0.5108  0.1284 -1.0687
14518TIP3    H164969   3.032   4.021  15.057  0.4691  0.2689 -1.7744
14518TIP3    H264970   3.055   3.948  15.187 -2.8747  1.5406 -0.3617
14519TIP3   OH264971   1.406   4.291   0.179  0.4382 -0.0152  0.6736
14519TIP3    H164972   1.430   4.309   0.088 -2.3708  0.6359 -0.0425
14519TIP3    H264973   1.446   4.207   0.199  0.7791 -0.3609 -1.3258
14520TIP3   OH264974   4.813   2.364  15.236 -0.5186 -0.2139 -0.1188
14520TIP3    H164975   4.803   2.279  15.192  1.0087  0.1464 -1.2617
14520TIP3    H264976   4.883   2.349  15.300 -1.5976 -0.2985  1.0779
14521TIP3   OH264977   2.013   1.849  12.009 -0.0934  0.1983  0.5778
14521TIP3    H164978   1.943   1.787  12.028 -1.2497  1.5323  0.8579
14521TIP3    H264979   2.043   1.825  11.921  0.2299 -1.3968  1.0948
14522TIP3   OH264980   4.312   1.091   1.073  0.4783 -0.4017 -0.3975
14522TIP3    H164981   4.326   1.186   1.076 -0.4183 -0.2653 -0.0786
14522TIP3    H264982   4.219   1.080   1.094  0.0855 -1.2217 -2.2709
14523TIP3   OH264983   0.672   2.450  11.364  0.4087  0.1296 -0.0131
14523TIP3    H164984   0.605   2.433  11.297 -0.5781  1.3216  0.6114
14523TIP3    H264985   0.622   2.487  11.438  1.1151 -3.1089  2.2753
14524TIP3   OH264986   1.035   0.375  14.368 -0.6172  0.4735  0.7284
14524TIP3    H164987   1.060   0.441  14.304 -2.0491  0.6933  0.3667
14524TIP3    H264988   1.077   0.295  14.337  0.9803  1.1457  1.0687
14525TIP3   OH264989   3.250   0.984   1.384  0.1401 -0.0022  0.2170
14525TIP3    H164990   3.328   0.943   1.345  0.1545  1.0626 -0.9380
14525TIP3    H264991   3.282   1.023   1.465  0.4295 -1.0199  0.6099
14526TIP3   OH264992   6.796   5.751  15.213 -0.2823 -0.4469  0.0732
14526TIP3    H164993   6.848   5.830  15.202  0.6946 -1.1865 -0.8536
14526TIP3    H264994   6.860   5.679  15.210 -1.0967 -1.2663  1.2363
14527TIP3   OH264995   2.819   5.534  17.035  0.2542  0.1050  0.2463
14527TIP3    H164996   2.772   5.465  16.988 -0.3445 -0.3671  1.4992
14527TIP3    H264997   2.907   5.499  17.049 -0.4668 -1.0679  2.1784
14528TIP3   OH264998   2.651   0.905  11.587  0.4899  0.4968 -0.2532
14528TIP3    H164999   2.706   0.963  11.534  2.1005 -0.0552  0.7568
14528TIP3    H265000   2.669   0.931  11.677 -0.2836 -0.2674  0.1383
14529TIP3   OH265001   4.004   5.060   5.551 -0.9758  0.3505  0.1537
14529TIP3    H165002   4.017   4.969   5.524 -2.1005  0.4377 -0.7475
14529TIP3    H265003   3.982   5.054   5.644  0.6484 -0.1406  0.5370
14530TIP3   OH265004   5.902   1.255  15.367 -0.1955 -0.4885 -0.1698
14530TIP3    H165005   5.971   1.305  15.324 -0.5558  0.6851  0.5631
14530TIP3    H265006   5.948   1.185  15.414  0.3604 -0.5894 -0.8523
14531TIP3   OH265007   6.088   5.971  11.420 -0.4284 -0.6924 -0.0199
14531TIP3    H165008   6.120   6.003  11.335  1.4781 -1.4684  0.3351
14531TIP3    H265009   6.003   6.013  11.431  0.1114  0.9199 -1.4447
14532TIP3   OH265010   4.801   3.525   1.057  0.3506 -0.3633  0.4073
14532TIP3    H165011   4.716   3.566   1.064 -0.3844 -0.8769 -3.5552
14532TIP3    H265012   4.862   3.597   1.039  0.4025 -0.2635  0.9459
14533TIP3   OH265013   5.997   1.019   0.139 -0.5464 -0.4191  0.1262
14533TIP3    H165014   6.034   0.962   0.206  0.1831 -0.1927 -0.0809
14533TIP3    H265015   6.041   1.103   0.152 -0.9484 -0.1573 -0.1608
14534TIP3   OH265016   4.902   6.148  11.411 -0.1673 -0.1803 -0.2477
14534TIP3    H165017   4.866   6.075  11.461 -0.6187  1.0644  1.3246
14534TIP3    H265018   4.877   6.130  11.320  1.3763 -2.9242 -0.2084
14535TIP3   OH265019   4.266   4.867  13.475 -0.1902  0.7544  0.3066
14535TIP3    H165020   4.222   4.849  13.392 -0.5103 -0.3822  0.7052
14535TIP3    H265021   4.221   4.944  13.509 -1.8220 -0.2798  0.6327
14536TIP3   OH265022   0.357   4.110   0.205  0.5471  0.0219 -0.2760
14536TIP3    H165023   0.312   4.177   0.155  1.4651  2.0511  1.4497
14536TIP3    H265024   0.450   4.126   0.189  0.8448  0.4318  1.6297
14537TIP3   OH265025   5.774   1.324   5.535  0.0517 -0.4142 -0.8067
14537TIP3    H165026   5.869   1.323   5.520  0.1349  0.7630 -0.4931
14537TIP3    H265027   5.739   1.257   5.477  1.2136 -1.8240  0.0543
14538TIP3   OH265028   0.021   0.717   1.791 -0.1993  0.6105  0.0216
14538TIP3    H165029   0.012   0.631   1.833 -0.5429  0.0695 -1.1197
14538TIP3    H265030   0.100   0.755   1.830 -0.6270  0.2363  1.3143
14539TIP3   OH265031   0.370   3.546   4.132  0.8343 -0.1518  0.4368
14539TIP3    H165032   0.379   3.641   4.137  0.6876  0.0921 -2.4070
14539TIP3    H265033   0.456   3.515   4.103  0.2925 -0.6402 -0.7166
14540TIP3   OH265034   2.263   0.108  11.399  0.3677  0.1850 -0.3518
14540TIP3    H165035   2.241   0.027  11.353  0.5093 -0.3805  0.5621
14540TIP3    H265036   2.357   0.103  11.413  0.4510  0.7227 -0.6782
14541TIP3   OH265037   3.265   5.483   2.960 -0.2835 -0.1601 -0.0417
14541TIP3    H165038   3.199   5.442   2.904 -0.5760 -0.3825  0.4687
14541TIP3    H265039   3.293   5.560   2.910 -1.4509  0.3500  0.0596
14542TIP3   OH265040   5.582   2.759   0.844 -0.1733  0.8994  0.0528
14542TIP3    H165041   5.668   2.779   0.880 -0.6276  0.8707  1.2224
14542TIP3    H265042   5.568   2.666   0.864 -0.5397  0.9429  0.0207
14543TIP3   OH265043   3.409   0.378   3.760 -0.2338  0.7475  0.4110
14543TIP3    H165044   3.485   0.347   3.711  0.2935  0.4885  1.3625
14543TIP3    H265045   3.365   0.439   3.701  0.7661  0.9647 -0.1295
14544TIP3   OH265046   6.179   6.446  16.594  0.6360 -0.0791 -0.1630
14544TIP3    H165047   6.118   6.417  16.662 -0.5800 -1.4566 -1.7700
14544TIP3    H265048   6.265   6.441  16.635  0.0190 -1.6844  1.0203
14545TIP3   OH265049   6.240   5.113   4.920  0.3539 -0.1682 -0.4680
14545TIP3    H165050   6.333   5.124   4.899  0.1085  0.6888 -1.1333
14545TIP3    H265051   6.238   5.107   5.015  0.8821  2.1446 -0.2688
14546TIP3   OH265052   1.088   1.554   0.875 -1.0200 -0.0534 -0.1581
14546TIP3    H165053   1.136   1.475   0.851  0.1560  0.1630  1.3536
14546TIP3    H265054   1.120   1.621   0.814  0.1600 -0.0725  0.4112
14547TIP3   OH265055   2.006   6.762   5.549  0.1349 -0.3946  0.0127
14547TIP3    H165056   1.953   6.839   5.568  0.1113 -0.4133  0.0233
14547TIP3    H265057   1.979   6.698   5.615  1.2155  0.0751  0.9303
14548TIP3   OH265058   4.222   4.673  15.939 -0.0308 -0.6110 -0.4663
14548TIP3    H165059   4.166   4.598  15.959 -0.6335 -0.2620 -0.8061
14548TIP3    H265060   4.232   4.718  16.023 -1.5529  0.1771 -0.6709
14549TIP3   OH265061   0.618   3.737   5.166  0.8392 -0.5986 -1.0994
14549TIP3    H165062   0.558   3.691   5.225  1.4750 -0.8651 -0.6567
14549TIP3    H265063   0.560   3.784   5.106  0.1833 -0.3186 -0.2645
14550TIP3   OH265064   2.932   4.449  16.335 -0.2652 -0.2818 -0.0983
14550TIP3    H165065   2.953   4.543  16.332  0.2814 -0.4158 -0.6407
14550TIP3    H265066   2.957   4.422  16.423 -0.3016  0.0558  0.0198
14551TIP3   OH265067   3.592   3.840  16.641 -1.0419  0.3967  0.2570
14551TIP3    H165068   3.575   3.868  16.731 -3.5312 -2.0717  0.7034
14551TIP3    H265069   3.680   3.805  16.643 -1.4958 -0.7811  2.1306
14552TIP3   OH265070   1.571   6.441   3.581  0.0138 -0.0453  0.3156
14552TIP3    H165071   1.575   6.451   3.676  2.6953 -0.5300  0.3274
14552TIP3    H265072   1.636   6.375   3.560 -3.2901 -3.0719 -1.5897
14553TIP3   OH265073   1.023   4.460   5.460 -0.3321  0.0784  0.4867
14553TIP3    H165074   1.039   4.380   5.409 -1.4808  0.6711 -0.8850
14553TIP3    H265075   1.109   4.498   5.473  0.0303 -0.2324 -0.8384
14554TIP3   OH265076   3.462   3.028   5.890 -0.3507 -0.0673  0.0845
14554TIP3    H165077   3.370   3.054   5.877  0.2058  2.2116  0.1673
14554TIP3    H265078   3.470   3.018   5.985 -0.8481 -1.8430 -0.0272
14555TIP3   OH265079   2.439   5.622  11.217  0.4531  0.3360  0.0779
14555TIP3    H165080   2.418   5.564  11.143  2.6376 -1.2287  0.5515
14555TIP3    H265081   2.355   5.640  11.259 -0.7967  0.8897 -2.4676
14556TIP3   OH265082   0.962   6.232  11.991  0.0800 -0.3913 -0.5616
14556TIP3    H165083   0.872   6.260  11.973  0.8717  2.4445 -0.6539
14556TIP3    H265084   0.980   6.266  12.079  0.3558 -3.0406  0.4907
14557TIP3   OH265085   3.109   1.046  15.058  0.4691 -0.2099  0.4460
14557TIP3    H165086   3.032   1.067  15.005  1.6372  1.2201 -0.7473
14557TIP3    H265087   3.087   1.080  15.145  0.0817  0.9931 -0.1004
14558TIP3   OH265088   5.087   2.012  14.438  0.1855  0.2875  0.4180
14558TIP3    H165089   5.180   1.997  14.450 -0.0833 -2.1331 -0.1176
14558TIP3    H265090   5.046   1.976  14.517 -0.4208 -0.5810 -0.2700
14559TIP3   OH265091   6.589   3.035   4.163  0.0381 -0.5151 -0.4294
14559TIP3    H165092   6.611   2.949   4.128  1.2048 -0.6134  0.4761
14559TIP3    H265093   6.595   3.024   4.258 -0.7919  0.3230 -0.2643
14560TIP3   OH265094   6.579   0.649   0.077 -0.2540 -0.6031  0.0237
14560TIP3    H165095   6.633   0.591   0.022 -0.5358  0.1627 -1.1039
14560TIP3    H265096   6.570   0.728   0.025 -1.6165 -0.3279  0.6477
14561TIP3   OH265097   1.669   3.193  16.848 -0.6396  0.0818 -0.9415
14561TIP3    H165098   1.646   3.246  16.772 -0.0159 -0.8054 -1.7674
14561TIP3    H265099   1.752   3.231  16.880  0.2315 -0.8498 -2.0151
14562TIP3   OH265100   2.772   0.175   5.737  0.3123 -0.7031  0.1998
14562TIP3    H165101   2.776   0.268   5.714 -0.0715 -0.8008 -0.2626
14562TIP3    H265102   2.861   0.154   5.766  0.5459 -0.3277 -0.2277
14563TIP3   OH265103   0.611   5.723  15.584 -0.1529  0.0135 -0.7293
14563TIP3    H165104   0.521   5.697  15.603  0.3064 -0.8879  0.3524
14563TIP3    H265105   0.627   5.800  15.638  1.1616 -2.5568  3.0294
14564TIP3   OH265106   0.773   1.217  16.265 -0.0497  0.0544 -0.1958
14564TIP3    H165107   0.714   1.286  16.236 -0.6927 -0.3194  0.1989
14564TIP3    H265108   0.856   1.235  16.219 -0.7809 -0.0293 -1.6066
14565TIP3   OH265109   1.453   5.168   0.131  0.6032 -0.2615 -0.7153
14565TIP3    H165110   1.434   5.253   0.172  0.9622  0.5576 -2.1701
14565TIP3    H265111   1.374   5.149   0.080  1.0442 -0.1188 -1.4674
14566TIP3   OH265112   3.461   6.592   4.661  0.2396  0.2958 -0.4184
14566TIP3    H165113   3.511   6.517   4.629 -1.4637 -1.8195  1.4980
14566TIP3    H265114   3.499   6.611   4.747 -0.7437  0.1128  0.0751
14567TIP3   OH265115   2.874   0.827   4.408  0.0632  0.5193  0.3641
14567TIP3    H165116   2.849   0.838   4.316  0.6881  1.0635  0.2511
14567TIP3    H265117   2.828   0.748   4.436  0.0354  0.2291 -0.4752
14568TIP3   OH265118   3.480   6.569  15.673 -0.0493  0.5265 -0.1736
14568TIP3    H165119   3.545   6.546  15.739 -1.2627 -0.7321  0.6418
14568TIP3    H265120   3.529   6.571  15.591  0.6399 -3.0632 -0.0136
14569TIP3   OH265121   4.574   1.703  11.785 -0.3035  0.2040 -0.6629
14569TIP3    H165122   4.563   1.649  11.706  1.0421  0.5251 -1.0852
14569TIP3    H265123   4.516   1.778  11.771 -0.9877 -0.3381 -0.7849
14570TIP3   OH265124   1.888   0.737   0.493  0.3718  0.0860  0.6449
14570TIP3    H165125   1.814   0.791   0.522  0.2121 -1.3869  3.3523
14570TIP3    H265126   1.957   0.756   0.557  0.9744 -1.4310  0.4918
14571TIP3   OH265127   0.039   5.997   3.009  0.3359  0.5575  0.3815
14571TIP3    H165128   0.012   6.029   3.095 -0.3365  0.5389  0.1869
14571TIP3    H265129   0.130   5.971   3.020  0.2398  0.5117  1.1027
14572TIP3   OH265130   3.451   0.677   0.803  0.2302 -0.3499  0.4677
14572TIP3    H165131   3.514   0.715   0.865 -1.0462  1.5440  0.7023
14572TIP3    H265132   3.467   0.725   0.722 -1.2119  0.5236  0.6738
14573TIP3   OH265133   1.008   2.023  16.577 -0.8633 -0.1988  0.5896
14573TIP3    H165134   0.995   2.055  16.487 -0.2685 -0.0400  0.5568
14573TIP3    H265135   1.054   1.940  16.566  0.6293  0.5731  0.7928
14574TIP3   OH265136   4.647   3.829   0.534  0.4544 -0.6574  0.0634
14574TIP3    H165137   4.578   3.763   0.542  0.7096 -0.9738 -0.3317
14574TIP3    H265138   4.667   3.833   0.441  1.7528 -1.3784  0.2888
14575TIP3   OH265139   1.745   2.435   4.641  0.2483  0.0404 -0.5459
14575TIP3    H165140   1.809   2.376   4.680  0.5846  0.4365 -0.4969
14575TIP3    H265141   1.717   2.492   4.712  0.3464  0.3061 -0.7154
14576TIP3   OH265142   5.711   1.995  14.804  0.0566 -0.1541 -0.1502
14576TIP3    H165143   5.744   1.906  14.792 -1.3182 -0.4913 -1.7855
14576TIP3    H265144   5.616   1.986  14.803 -0.1356  1.4661 -1.7850
14577TIP3   OH265145   1.724   1.601  15.221  0.1237  0.2377  0.2091
14577TIP3    H165146   1.728   1.662  15.148  1.6447  0.4920  0.4812
14577TIP3    H265147   1.781   1.529  15.196  2.2815  1.2271  1.8872
14578TIP3   OH265148   5.002   6.704  15.924 -0.5803 -0.1392 -0.5940
14578TIP3    H165149   5.074   6.685  15.863  0.2209  1.2298 -0.1307
14578TIP3    H265150   5.037   6.680  16.010 -1.4618 -1.4321 -0.5770
14579TIP3   OH265151   1.509   2.243   0.104  0.4561 -0.5219  0.7012
14579TIP3    H165152   1.578   2.266   0.041 -1.1577  2.8818 -0.0070
14579TIP3    H265153   1.526   2.299   0.180  0.3760 -2.1373  1.9693
14580TIP3   OH265154   1.901   6.190  12.950 -0.2895 -0.3318 -0.0840
14580TIP3    H165155   1.859   6.276  12.952 -0.3237 -0.3380 -0.5135
14580TIP3    H265156   1.920   6.171  13.042 -0.4121  0.0707  0.0282
14581TIP3   OH265157   4.533   2.316  15.826 -0.1292 -0.0958 -0.1072
14581TIP3    H165158   4.472   2.325  15.752 -0.8526  0.4753  0.5498
14581TIP3    H265159   4.605   2.375  15.805 -0.5432  0.3978 -0.1482
14582TIP3   OH265160   3.932   4.440  12.405 -0.8638 -0.0236 -0.6895
14582TIP3    H165161   3.928   4.366  12.345 -2.7628 -0.3877 -0.1523
14582TIP3    H265162   3.870   4.419  12.474 -0.9574  1.7679 -0.1797
14583TIP3   OH265163   5.665   4.661   1.532  0.1913  0.4665 -0.4043
14583TIP3    H165164   5.570   4.651   1.540  0.3346 -0.0449  0.7786
14583TIP3    H265165   5.686   4.737   1.586  0.7921 -1.2094  1.8739
14584TIP3   OH265166   3.203   4.833  13.201 -0.1344 -0.6959  0.3055
14584TIP3    H165167   3.183   4.742  13.180 -0.4460 -0.5515 -0.0283
14584TIP3    H265168   3.156   4.884  13.135  0.3686 -0.3056  0.2443
14585TIP3   OH265169   6.268   0.907   3.568  0.2121  0.1280  0.1019
14585TIP3    H165170   6.309   0.903   3.482  0.4660  0.8938  0.1841
14585TIP3    H265171   6.258   0.815   3.594  1.4859 -0.0853 -0.1024
14586TIP3   OH265172   6.085   2.936  10.453  0.2817  0.1311  0.5026
14586TIP3    H165173   5.995   2.904  10.449 -0.2420  1.5144  0.7956
14586TIP3    H265174   6.127   2.899  10.375 -0.7924  0.2134 -0.1354
14587TIP3   OH265175   0.454   3.192  16.949  0.4946 -0.2119 -0.2580
14587TIP3    H165176   0.539   3.235  16.939  0.2334  0.3642 -0.0512
14587TIP3    H265177   0.455   3.160  17.040 -0.0459  0.9975  0.1884
14588TIP3   OH265178   0.836   3.419   3.276  0.1399  0.6120  0.0523
14588TIP3    H165179   0.780   3.463   3.212 -0.1405  1.3590  0.7986
14588TIP3    H265180   0.791   3.336   3.294 -0.7756  1.2281  0.6890
14589TIP3   OH265181   5.590   1.932   1.617  0.7436  0.3085  0.5325
14589TIP3    H165182   5.505   1.962   1.650  0.9164  0.5409  0.7727
14589TIP3    H265183   5.569   1.859   1.560  0.4248 -0.0302  1.0707
14590TIP3   OH265184   0.881   3.048  14.821  0.0157 -0.4019  0.1643
14590TIP3    H165185   0.926   2.988  14.761 -0.0961  1.6465 -2.1460
14590TIP3    H265186   0.823   2.992  14.872  2.1562 -2.6000  0.3394
14591TIP3   OH265187   4.202   4.432  15.042  0.0482 -0.5276 -0.4076
14591TIP3    H165188   4.216   4.413  15.135 -1.0416 -0.9605 -0.3265
14591TIP3    H265189   4.182   4.526  15.040  1.8914 -0.0947 -0.4264
14592TIP3   OH265190   3.825   6.310   1.411  0.4034  0.2783 -0.4766
14592TIP3    H165191   3.880   6.333   1.486 -1.8805  2.5503  0.6621
14592TIP3    H265192   3.782   6.229   1.438  0.0116  0.7838  0.4934
14593TIP3   OH265193   1.002   6.096   3.523  0.0596 -0.4275 -0.7573
14593TIP3    H165194   0.948   6.174   3.537  0.6272  0.0423 -1.0950
14593TIP3    H265195   1.006   6.054   3.609  0.7836  0.6145 -0.2480
14594TIP3   OH265196   5.697   6.511   4.724 -0.1182  0.2408 -0.1326
14594TIP3    H165197   5.753   6.449   4.677 -0.5877 -0.0201 -0.3506
14594TIP3    H265198   5.743   6.594   4.717 -0.1032  0.1737 -0.9293
14595TIP3   OH265199   6.414   3.232   2.800 -0.1266 -0.2582  0.2795
14595TIP3    H165200   6.340   3.199   2.748  1.0078 -0.6460 -1.1623
14595TIP3    H265201   6.457   3.153   2.832  0.3881 -0.0699  0.0526
14596TIP3   OH265202   2.150   0.588  14.633 -0.5315  0.3586  0.1737
14596TIP3    H165203   2.100   0.658  14.592  0.2353  0.3318 -0.8560
14596TIP3    H265204   2.201   0.550  14.562 -0.3869 -0.7775  0.8506
14597TIP3   OH265205   2.275   3.818  14.978 -0.3715  0.1620 -0.6073
14597TIP3    H165206   2.259   3.829  14.885 -3.0141  1.1669 -0.0960
14597TIP3    H265207   2.215   3.748  15.005  0.8129 -0.5684  0.2685
14598TIP3   OH265208   1.407   3.650   4.501 -0.2449 -0.3931 -0.2157
14598TIP3    H165209   1.483   3.708   4.509  1.1802 -1.6426 -3.1204
14598TIP3    H265210   1.443   3.562   4.509 -1.3529 -1.0053 -1.5410
14599TIP3   OH265211   2.060   5.893  15.488 -0.2537 -0.0602  0.5771
14599TIP3    H165212   1.989   5.839  15.455 -1.2654  2.0420 -0.9408
14599TIP3    H265213   2.047   5.978  15.446  0.3737  1.8470  3.8881
14600TIP3   OH265214   5.107   1.985  15.932  0.2116  0.4169 -0.1043
14600TIP3    H165215   5.149   1.906  15.899 -0.6651  0.0196 -0.3119
14600TIP3    H265216   5.150   2.057  15.887  0.5406  0.0172 -0.4333
14601TIP3   OH265217   6.084   6.510  12.135 -0.0230 -0.4308  0.3147
14601TIP3    H165218   6.069   6.579  12.070  1.8044 -1.5336 -1.3765
14601TIP3    H265219   6.169   6.531  12.173 -1.1091  0.2513  2.5214
14602TIP3   OH265220   4.124   0.048  14.234  0.2596 -0.0868  0.2835
14602TIP3    H165221   4.091   0.044  14.144 -1.4755  1.9194  0.7346
14602TIP3    H265222   4.056   0.007  14.287 -0.2941  1.5756  0.9502
14603TIP3   OH265223   4.200   4.300  11.768  0.4998  0.0486 -0.6525
14603TIP3    H165224   4.242   4.218  11.740 -0.8259  0.1052 -3.1030
14603TIP3    H265225   4.130   4.313  11.705 -0.8699  1.8638  1.1236
14604TIP3   OH265226   2.898   0.241   0.878 -0.5305  0.4067  0.1747
14604TIP3    H165227   2.885   0.321   0.827  0.7689  0.8208  0.4495
14604TIP3    H265228   2.851   0.173   0.830 -0.1888  0.9934 -1.0150
14605TIP3   OH265229   1.699   3.898  14.495  0.0960  0.2756  0.1543
14605TIP3    H165230   1.788   3.929  14.478 -0.6311  2.6939  0.2947
14605TIP3    H265231   1.707   3.841  14.571  1.5568  0.1463 -0.0754
14606TIP3   OH265232   0.012   1.499  16.304  0.4796 -0.1956  0.0671
14606TIP3    H165233  -0.012   1.575  16.250  1.0944 -1.3977 -1.9863
14606TIP3    H265234   0.107   1.503  16.310  0.4345 -0.1452  1.0436
14607TIP3   OH265235   4.761   0.053  16.559 -0.4499  0.2148 -0.1761
14607TIP3    H165236   4.691   0.029  16.499  1.7397 -1.3625 -2.3181
14607TIP3    H265237   4.770   0.148  16.549 -1.7672  0.3357 -0.3879
14608TIP3   OH265238   1.590   0.032   2.052  0.0924  0.2261  0.1044
14608TIP3    H165239   1.571  -0.025   2.126 -3.5921 -0.8751 -1.4572
14608TIP3    H265240   1.583   0.121   2.086 -2.3272 -0.2465  0.9857
14609TIP3   OH265241   2.964   6.566  16.742  0.1648  0.0707 -0.1170
14609TIP3    H165242   2.955   6.657  16.713 -0.1677  0.7441  1.9803
14609TIP3    H265243   3.055   6.559  16.772  0.2519 -0.3598 -0.4677
14610TIP3   OH265244   6.530   4.048   1.089  0.2051  0.0331 -0.5253
14610TIP3    H165245   6.540   4.009   1.176 -0.3694  0.6349 -0.1734
14610TIP3    H265246   6.586   3.996   1.032  2.2387  0.8744  0.5905
14611TIP3   OH265247   5.941   5.431  12.115  0.0600  0.2879  1.0046
14611TIP3    H165248   5.887   5.476  12.051 -0.2466  1.6178  2.1499
14611TIP3    H265249   6.023   5.480  12.116  0.5608 -0.5233  0.6938
14612TIP3   OH265250   0.397   2.890  12.171  0.9117  0.0628 -0.4967
14612TIP3    H165251   0.474   2.861  12.122  0.0188 -2.0951 -0.7322
14612TIP3    H265252   0.411   2.857  12.259  0.8758  0.8357 -0.2006
14613TIP3   OH265253   0.014   0.891  14.499 -0.7441 -0.0770 -0.7197
14613TIP3    H165254  -0.033   0.846  14.569  0.4150  0.9584  0.8040
14613TIP3    H265255   0.106   0.882  14.523 -0.4641  3.7796  0.1793
14614TIP3   OH265256   0.544   0.565  13.916 -0.1384  0.2247  0.2573
14614TIP3    H165257   0.545   0.589  14.008 -0.1583 -1.9246  0.8593
14614TIP3    H265258   0.631   0.530  13.899 -0.7522 -1.2120 -0.0122
14615TIP3   OH265259   4.477   4.937   0.998 -0.0880 -0.3705  0.0912
14615TIP3    H165260   4.397   4.910   1.043 -0.7353  2.6476  0.9288
14615TIP3    H265261   4.548   4.906   1.055 -0.7716 -0.0819  1.1117
14616TIP3   OH265262   2.056   6.526   1.069 -0.8504 -0.0429  0.1407
14616TIP3    H165263   2.075   6.440   1.106  2.0479  0.7149  0.6809
14616TIP3    H265264   2.095   6.523   0.981 -2.3369  0.1575 -0.5484
14617TIP3   OH265265   3.743   3.446   3.004 -0.4878  0.8212 -0.2322
14617TIP3    H165266   3.730   3.481   3.092 -0.6847  0.9113 -0.2965
14617TIP3    H265267   3.655   3.443   2.966 -0.8657 -2.0760  0.6178
14618TIP3   OH265268   1.315   3.577  15.064 -0.2547 -0.1361 -0.1439
14618TIP3    H165269   1.280   3.561  15.151  0.8082  0.9017  0.5069
14618TIP3    H265270   1.265   3.519  15.006 -2.7383  0.9917  0.7658
14619TIP3   OH265271   3.694   1.956   4.199  0.0134  0.0167 -0.2696
14619TIP3    H165272   3.613   1.973   4.247  0.5873  1.4523  0.2614
14619TIP3    H265273   3.678   1.991   4.111 -1.6263 -4.0551 -1.8362
14620TIP3   OH265274   3.394   3.956  15.169  0.2646 -0.0417  0.0866
14620TIP3    H165275   3.305   3.932  15.145  0.1910  1.0129 -0.7492
14620TIP3    H265276   3.428   3.879  15.216 -0.4712 -1.1513 -1.1253
14621TIP3   OH265277   0.820   5.714   5.537 -0.0964 -0.3050 -0.1762
14621TIP3    H165278   0.734   5.745   5.508  0.9380  0.1652 -3.0674
14621TIP3    H265279   0.802   5.669   5.619 -2.5589  2.8624  1.2390
14622TIP3   OH265280   3.546   1.714  14.456  0.0423  0.1753 -0.1125
14622TIP3    H165281   3.499   1.634  14.478 -0.5103  0.4688 -0.2134
14622TIP3    H265282   3.623   1.684  14.408  0.6610 -0.3938  1.1947
14623TIP3   OH265283   2.630   3.046  14.183  0.4966  0.5754 -0.2860
14623TIP3    H165284   2.590   2.980  14.240 -0.1343  1.8027  0.7584
14623TIP3    H265285   2.558   3.106  14.163  0.5827 -0.0895 -2.8315
14624TIP3   OH265286   3.010   2.197   5.063  0.3847  0.4119 -0.8411
14624TIP3    H165287   2.996   2.132   5.131 -0.3980  0.6241 -0.7859
14624TIP3    H265288   3.096   2.177   5.027 -0.1199 -1.0795 -1.2888
14625TIP3   OH265289   5.826   4.487   2.466  0.3259 -0.1340  0.2770
14625TIP3    H165290   5.880   4.566   2.457  0.4417 -0.2984 -0.4863
14625TIP3    H265291   5.827   4.469   2.560 -0.6139  1.4111  0.6245
14626TIP3   OH265292   4.200   3.212  13.377 -0.0610  0.2024 -0.0770
14626TIP3    H165293   4.282   3.252  13.404 -0.3545  0.2351  0.8039
14626TIP3    H265294   4.169   3.266  13.305  1.5916 -0.8697 -1.6908
14627TIP3   OH265295   1.709   0.698   3.210  0.3070 -0.1110 -0.3819
14627TIP3    H165296   1.630   0.651   3.183 -0.2828  0.7348 -0.1571
14627TIP3    H265297   1.776   0.629   3.217 -0.9748 -1.2277  1.7596
14628TIP3   OH265298   3.085   1.423  14.435  0.8281  0.9329 -0.6925
14628TIP3    H165299   3.044   1.471  14.363  0.3084 -1.3537 -2.0640
14628TIP3    H265300   3.074   1.331  14.410 -0.9492 -0.0958  3.1548
14629TIP3   OH265301   3.140   3.290  15.278 -0.0320 -0.0587  0.2042
14629TIP3    H165302   3.101   3.257  15.197 -1.0709 -0.5981  0.9124
14629TIP3    H265303   3.069   3.336  15.322  0.7728  1.0469  0.3889
14630TIP3   OH265304   0.381   4.094  16.198 -0.3713 -0.4266  0.0658
14630TIP3    H165305   0.394   4.001  16.214  1.3794 -0.6868 -2.2927
14630TIP3    H265306   0.469   4.128  16.180 -0.6613  2.1724  2.8212
14631TIP3   OH265307   6.703   6.166   0.879 -0.3642 -0.5460  0.0239
14631TIP3    H165308   6.757   6.243   0.895 -0.3335 -1.0438  2.7682
14631TIP3    H265309   6.720   6.109   0.954 -3.8760 -1.1960  0.4930
14632TIP3   OH265310   4.386   4.090  15.336 -0.8209  0.3196  0.0721
14632TIP3    H165311   4.325   4.017  15.348  1.3190 -1.6687 -0.4943
14632TIP3    H265312   4.470   4.048  15.317  0.7714  2.9386  0.8765
14633TIP3   OH265313   2.614   2.048  13.670  0.3292  0.0564 -0.0197
14633TIP3    H165314   2.601   2.099  13.750 -0.2558  0.8703 -0.6209
14633TIP3    H265315   2.588   1.959  13.694  1.0787  0.0884  0.9549
14634TIP3   OH265316   4.735   2.548   3.560  0.0664  0.0160  0.2577
14634TIP3    H165317   4.685   2.477   3.600  0.9211 -0.3442  0.7056
14634TIP3    H265318   4.734   2.618   3.625  3.1628 -1.2823  1.9058
14635TIP3   OH265319   4.824   1.743   3.736  0.1525 -0.1314  0.2103
14635TIP3    H165320   4.763   1.672   3.752 -0.0237 -0.4547 -1.6811
14635TIP3    H265321   4.811   1.766   3.644  0.5693  2.0065  0.6254
14636TIP3   OH265322   3.045   6.357  16.981 -0.0961  0.1879 -0.3998
14636TIP3    H165323   3.009   6.425  17.037 -0.6569  0.2320 -0.7979
14636TIP3    H265324   3.110   6.401  16.927  0.2542  0.1995  0.0298
14637TIP3   OH265325   6.662   2.685   5.543  0.1143 -0.4548  0.1421
14637TIP3    H165326   6.635   2.722   5.627 -1.3319  1.4301 -1.1007
14637TIP3    H265327   6.604   2.724   5.478  0.6800 -2.4362 -1.7002
14638TIP3   OH265328   5.786   6.405   6.242  0.3641 -0.2284 -0.3815
14638TIP3    H165329   5.765   6.390   6.150  1.8585  0.2831 -0.8312
14638TIP3    H265330   5.788   6.500   6.251  0.7280 -0.2762  0.0538
14639TIP3   OH265331   0.186   5.524   2.060  0.7053  0.1704  0.3257
14639TIP3    H165332   0.272   5.483   2.044  1.2818  0.3018  2.7877
14639TIP3    H265333   0.157   5.488   2.144 -0.3218  2.2824  0.9371
14640TIP3   OH265334   2.550   6.284   0.520  0.1505 -0.1558  0.1051
14640TIP3    H165335   2.486   6.236   0.573  0.7320 -0.4242  0.5780
14640TIP3    H265336   2.501   6.313   0.443  0.0815 -2.7181 -0.9204
14641TIP3   OH265337   6.217   4.072   5.412  0.4616 -0.4190 -0.3799
14641TIP3    H165338   6.256   4.153   5.445 -0.1884  0.9689 -2.7726
14641TIP3    H265339   6.292   4.015   5.396  0.9572 -0.2199  1.0626
14642TIP3   OH265340   6.350   0.488  11.897 -0.4037 -0.3556  0.4253
14642TIP3    H165341   6.376   0.557  11.959  0.5943 -0.6538  0.3560
14642TIP3    H265342   6.331   0.412  11.952 -2.6596  0.2797  0.5986
14643TIP3   OH265343   6.089   2.643  16.856  0.4071 -0.0152 -0.1708
14643TIP3    H165344   6.030   2.568  16.847  1.4821 -1.1449  1.5281
14643TIP3    H265345   6.124   2.657  16.768 -1.2597 -0.2652 -0.8954
14644TIP3   OH265346   2.459   6.775   1.992  0.1173  0.3043  0.0861
14644TIP3    H165347   2.481   6.820   2.074  0.2100  1.0164 -0.3238
14644TIP3    H265348   2.532   6.717   1.976 -0.2360 -0.3808  0.8890
14645TIP3   OH265349   3.122   4.149   1.320 -0.1953  0.5832  0.2953
14645TIP3    H165350   3.086   4.237   1.331  1.1516  1.1818  0.1205
14645TIP3    H265351   3.091   4.122   1.233  1.0190  1.7389 -0.5535
14646TIP3   OH265352   0.684   6.606   5.226  0.0569  0.2504  0.0869
14646TIP3    H165353   0.631   6.626   5.302  0.0131 -0.7711  0.3422
14646TIP3    H265354   0.770   6.644   5.245  0.0519 -0.0225  0.6566
14647TIP3   OH265355   1.122   1.197   2.373  0.3371 -0.3343  0.8324
14647TIP3    H165356   1.044   1.219   2.425  0.2471  1.1418  0.1393
14647TIP3    H265357   1.176   1.144   2.431 -1.0605 -1.1607  1.4261
14648TIP3   OH265358   3.258   3.913   3.221 -0.0735 -0.6234 -0.2072
14648TIP3    H165359   3.298   3.838   3.265  0.1823 -0.5593 -0.3277
14648TIP3    H265360   3.292   3.989   3.268  1.4028 -0.4611 -1.4218
14649TIP3   OH265361   0.293   1.606  16.754  0.0489 -0.4313 -0.0448
14649TIP3    H165362   0.198   1.613  16.760  0.1270  0.8814  0.0929
14649TIP3    H265363   0.313   1.517  16.782 -1.0013 -0.1544  1.7254
14650TIP3   OH265364   1.589   5.526  11.715 -0.0030 -0.4954 -0.2047
14650TIP3    H165365   1.555   5.615  11.709 -1.7812 -0.9965  1.3539
14650TIP3    H265366   1.680   5.533  11.687 -0.6683  1.3901 -2.2052
14651TIP3   OH265367   4.824   2.059   0.656  0.4854  0.3759 -0.4982
14651TIP3    H165368   4.792   1.972   0.633  0.7193 -0.1456  1.0692
14651TIP3    H265369   4.746   2.115   0.649  0.2603 -0.0056 -1.1867
14652TIP3   OH265370   3.622   3.847  11.528  0.6644  0.1081  0.1920
14652TIP3    H165371   3.626   3.756  11.558  1.4214  0.0961  0.0696
14652TIP3    H265372   3.618   3.840  11.432  1.0311  0.2080  0.1682
14653TIP3   OH265373   6.626   4.809   0.091 -0.2979  0.8214  0.6772
14653TIP3    H165374   6.679   4.859   0.152 -1.5437  1.9247  0.9125
14653TIP3    H265375   6.635   4.856   0.008  0.9884 -0.3828  0.0998
14654TIP3   OH265376   3.311   0.474   0.709 -0.0475 -0.3624  0.1100
14654TIP3    H165377   3.366   0.404   0.744 -0.5941  0.7097  3.4666
14654TIP3    H265378   3.359   0.555   0.729 -0.9253  0.4011 -0.7425
14655TIP3   OH265379   3.685   0.350   2.250 -0.4019  0.2137 -0.4387
14655TIP3    H165380   3.730   0.413   2.308 -0.5895 -0.9860  1.0758
14655TIP3    H265381   3.596   0.385   2.241 -0.9851 -0.5488  1.6736
14656TIP3   OH265382   6.814   5.021  11.691 -0.6770 -0.0227  0.1422
14656TIP3    H165383   6.735   5.004  11.741 -0.4652  1.1096  0.9108
14656TIP3    H265384   6.785   5.077  11.619 -0.3969  1.5885  1.2233
14657TIP3   OH265385   1.610   6.412   4.317 -0.2600  0.8984 -0.1074
14657TIP3    H165386   1.577   6.345   4.377  2.8243  0.3847  1.1921
14657TIP3    H265387   1.566   6.492   4.345  0.4101  0.4933  2.3269
14658TIP3   OH265388   3.012   4.660   3.701  0.5936 -0.3731 -1.1099
14658TIP3    H165389   2.982   4.708   3.779  2.9411 -1.2985  0.4926
14658TIP3    H265390   2.952   4.585   3.695  0.1698 -0.1097 -0.3816
14659TIP3   OH265391   6.111   2.582  11.054 -0.5807  0.2317  0.6916
14659TIP3    H165392   6.150   2.614  11.136  2.6751 -0.7795 -0.3080
14659TIP3    H265393   6.185   2.549  11.004 -2.5915 -0.0970 -2.3029
14660TIP3   OH265394   2.651   2.607  13.028  0.0088  0.2966 -0.0105
14660TIP3    H165395   2.714   2.546  13.065  0.3465  0.3385 -0.4981
14660TIP3    H265396   2.614   2.561  12.953  0.1024  0.6046 -0.2504
14661TIP3   OH265397   5.938   6.206  13.414  0.3436  0.0899  0.1860
14661TIP3    H165398   5.898   6.124  13.443  1.4802  0.0590  1.7505
14661TIP3    H265399   5.894   6.274  13.465  0.8860  0.2404  0.4603
14662TIP3   OH265400   2.007   0.559   1.842 -0.0813  0.4976 -0.4578
14662TIP3    H165401   2.024   0.566   1.936 -1.2776  1.0148 -0.2689
14662TIP3    H265402   1.990   0.465   1.828  1.8822  0.1032 -0.5059
14663TIP3   OH265403   4.271   1.077  13.320  0.0917 -0.8280 -0.0519
14663TIP3    H165404   4.326   1.000  13.304  1.2890 -0.5845  2.3218
14663TIP3    H265405   4.191   1.042  13.359 -0.1608 -0.9842 -0.7055
14664TIP3   OH265406   6.302   3.366   4.886 -0.3077 -0.2566 -0.4992
14664TIP3    H165407   6.383   3.408   4.915 -1.5984  0.7451  1.9813
14664TIP3    H265408   6.316   3.273   4.902  0.1221 -0.0112  0.6994
14665TIP3   OH265409   6.615   3.544   3.749 -0.1213  0.1929  0.5544
14665TIP3    H165410   6.599   3.629   3.708 -0.4532  0.0879  0.4682
14665TIP3    H265411   6.622   3.483   3.676  0.1424  0.1481  0.6155
14666TIP3   OH265412   3.498   0.140   2.305  0.2798  0.2131  0.6557
14666TIP3    H165413   3.491   0.118   2.212 -0.8401  0.2247  0.7172
14666TIP3    H265414   3.551   0.219   2.307  0.8347 -0.1290  0.0865
14667TIP3   OH265415   5.064   3.098  12.246  0.2357 -0.2100  0.1668
14667TIP3    H165416   4.986   3.153  12.234  0.7341  0.5349  0.2414
14667TIP3    H265417   5.051   3.056  12.331  0.0776  0.1926  0.3477
14668TIP3   OH265418   2.830   3.660  14.781  0.0931 -0.1828  0.4743
14668TIP3    H165419   2.821   3.570  14.751  0.5463 -0.9312  2.4549
14668TIP3    H265420   2.891   3.700  14.719 -1.6866 -0.5748 -1.6623
14669TIP3   OH265421   5.511   3.460   2.116 -0.4025  0.2568 -0.4201
14669TIP3    H165422   5.466   3.501   2.190 -0.0030 -1.3829  0.7884
14669TIP3    H265423   5.602   3.489   2.125 -0.2703 -0.2734 -0.0086
14670TIP3   OH265424   5.872   5.484  13.322 -0.3813  0.0225 -0.0786
14670TIP3    H165425   5.925   5.503  13.399 -1.1397  1.3467  0.1424
14670TIP3    H265426   5.854   5.390  13.329  0.8002 -0.1817  0.5450
14671TIP3   OH265427   1.595   2.662  12.831  0.0040  0.1029 -0.2660
14671TIP3    H165428   1.689   2.657  12.845 -0.3062 -0.1770  2.0584
14671TIP3    H265429   1.568   2.741  12.878 -1.1099 -0.6640  0.4334
14672TIP3   OH265430   4.608   4.616   5.757  0.3255 -0.2473 -0.4138
14672TIP3    H165431   4.546   4.628   5.828 -1.3933 -0.2675 -1.8581
14672TIP3    H265432   4.667   4.547   5.788 -0.9597 -0.9039  0.6277
14673TIP3   OH265433   0.599   2.289   0.768  0.4693 -0.4128  0.6484
14673TIP3    H165434   0.612   2.226   0.697 -1.0773 -2.7293  2.2788
14673TIP3    H265435   0.507   2.314   0.762  0.7452  0.6900  0.8230
14674TIP3   OH265436   2.271   2.170   6.074 -0.3928  0.4388  0.6215
14674TIP3    H165437   2.213   2.164   6.150 -0.1066 -1.3508  0.7495
14674TIP3    H265438   2.332   2.097   6.085  0.4891  0.9526 -0.6531
14675TIP3   OH265439   3.815   5.834   1.565 -0.0556  0.2036 -0.1449
14675TIP3    H165440   3.909   5.824   1.581 -0.1052  1.0685  0.8042
14675TIP3    H265441   3.774   5.783   1.635 -0.3234 -1.2541 -1.3161
14676TIP3   OH265442   2.976   1.219   5.664 -0.1753  0.2283  0.2214
14676TIP3    H165443   2.984   1.297   5.718  0.8888  0.0095  0.4054
14676TIP3    H265444   3.029   1.238   5.587  0.1444 -0.3292  0.2968
14677TIP3   OH265445   6.118   4.072  14.710 -0.2856 -0.3062  0.1981
14677TIP3    H165446   6.201   4.111  14.683  0.0039 -1.5320 -0.7822
14677TIP3    H265447   6.121   4.073  14.806  0.1703  1.0562  0.1856
14678TIP3   OH265448   3.098   2.185   4.264  0.4276  0.2801  0.5543
14678TIP3    H165449   3.187   2.210   4.241  0.4999 -0.8748 -0.4809
14678TIP3    H265450   3.045   2.209   4.188  0.1966 -0.8850  0.3235
14679TIP3   OH265451   4.948   5.687   5.394 -0.0824 -0.2872  0.2571
14679TIP3    H165452   4.955   5.721   5.304  0.7849  0.1016  0.4562
14679TIP3    H265453   4.968   5.762   5.449  1.0112 -0.8936  0.7310
14680TIP3   OH265454   3.072   1.503   6.551 -0.1070 -0.5259 -0.3730
14680TIP3    H165455   3.159   1.515   6.588 -0.4142 -1.1885  0.6187
14680TIP3    H265456   3.046   1.589   6.519 -0.0480  0.2246  1.5099
14681TIP3   OH265457   4.512   2.234   4.236  0.4078 -0.2585 -0.4738
14681TIP3    H165458   4.548   2.194   4.315 -0.6236 -0.1282  0.0750
14681TIP3    H265459   4.558   2.318   4.229 -1.9144  1.3965  2.0161
14682TIP3   OH265460   3.028   1.907   5.545 -0.3460  0.0213  0.0816
14682TIP3    H165461   3.012   1.857   5.625  1.2001  0.4837  0.7128
14682TIP3    H265462   2.984   1.991   5.560 -0.2549  0.0218  0.3496
14683TIP3   OH265463   3.503   4.798   5.130 -0.2793 -0.0819  0.2180
14683TIP3    H165464   3.422   4.845   5.148 -1.0992 -0.9865 -0.9590
14683TIP3    H265465   3.553   4.804   5.212 -2.1725 -0.7836  1.4830
14684TIP3   OH265466   5.606   1.069  16.033 -0.5224  0.4858 -0.2249
14684TIP3    H165467   5.562   1.124  16.097 -1.2397 -0.2928 -0.0342
14684TIP3    H265468   5.645   0.999  16.085 -0.9255 -0.0341 -0.6141
14685TIP3   OH265469   4.362   2.663   1.399 -0.1640 -0.5781 -0.2218
14685TIP3    H165470   4.378   2.652   1.306 -1.2603 -2.4207 -0.2360
14685TIP3    H265471   4.296   2.598   1.420  0.7425 -0.8605  2.0484
14686TIP3   OH265472   4.590   3.630  11.387  0.2409 -0.3363  0.1439
14686TIP3    H165473   4.538   3.694  11.437 -1.0181 -0.1738 -1.3151
14686TIP3    H265474   4.525   3.571  11.349  1.1677 -0.5979 -1.0878
14687TIP3   OH265475   6.254   5.645   0.542  0.4580 -0.0443  0.5438
14687TIP3    H165476   6.174   5.695   0.558  0.4341  0.0917  0.0240
14687TIP3    H265477   6.224   5.558   0.516  0.4735  0.0330  0.2620
14688TIP3   OH265478   3.088   4.042  16.956  0.1135 -0.0029 -0.2471
14688TIP3    H165479   3.157   4.018  17.018  1.6406 -0.8450 -2.1612
14688TIP3    H265480   3.119   4.122  16.915 -2.3759  2.3938  2.1768
14689TIP3   OH265481   0.818   1.167  12.819  0.1794 -0.0092 -0.0870
14689TIP3    H165482   0.874   1.111  12.766  0.5293  0.4100 -0.1648
14689TIP3    H265483   0.879   1.227  12.863 -0.0423 -0.7923  1.3201
14690TIP3   OH265484   6.597   3.484  12.662 -0.4227 -0.3446 -0.0648
14690TIP3    H165485   6.526   3.435  12.622  0.1701 -1.6139  0.4016
14690TIP3    H265486   6.676   3.433  12.644  0.4044  1.0470 -0.5877
14691TIP3   OH265487   6.002   1.580  13.247 -0.6488 -0.4374  0.2369
14691TIP3    H165488   6.038   1.658  13.205 -0.0452 -0.8148  0.0395
14691TIP3    H265489   5.962   1.613  13.328 -3.8404  0.6648 -1.6205
14692TIP3   OH265490   3.799   2.078   4.744 -0.4801 -0.0168 -0.1111
14692TIP3    H165491   3.845   2.161   4.747  1.6205 -1.1331  0.6580
14692TIP3    H265492   3.757   2.076   4.658  2.9775  0.0573 -1.9463
14693TIP3   OH265493   2.411   3.512  11.051 -0.2301  0.2432  0.1700
14693TIP3    H165494   2.450   3.597  11.072  0.9880 -0.5839  1.4495
14693TIP3    H265495   2.476   3.448  11.079 -0.5830 -1.1264 -1.8460
14694TIP3   OH265496   6.621   3.009  14.120  0.2204  0.2044 -0.2852
14694TIP3    H165497   6.635   3.003  14.025  1.5796  1.2101 -0.1777
14694TIP3    H265498   6.558   2.939  14.139  1.0276 -0.9777 -1.7108
14695TIP3   OH265499   5.060   6.660  17.038 -0.3131  0.1632  0.2007
14695TIP3    H165500   5.063   6.740  17.090 -0.9206  0.6399 -0.4769
14695TIP3    H265501   5.145   6.655  16.995 -0.3924  0.6291 -0.0148
14696TIP3   OH265502   0.467   1.157  10.821  0.2577  0.7478  0.2858
14696TIP3    H165503   0.444   1.203  10.901  1.7136 -0.8815  1.7426
14696TIP3    H265504   0.409   1.193  10.754 -1.0749  2.0953  2.0826
14697TIP3   OH265505   1.976   0.311  16.567  0.2322 -0.0983  0.1835
14697TIP3    H165506   1.966   0.400  16.534  1.3748 -0.0271  0.0142
14697TIP3    H265507   2.052   0.276  16.521 -0.4286 -1.3058 -0.0428
14698TIP3   OH265508   4.110   3.050  12.007  0.2936  0.3376  0.2859
14698TIP3    H165509   4.134   3.131  12.052  1.7880 -0.0180  0.1710
14698TIP3    H265510   4.181   3.036  11.944 -0.4509 -0.5479 -0.3794
14699TIP3   OH265511   3.889   1.673  13.714 -0.0467 -0.1329 -0.3559
14699TIP3    H165512   3.804   1.702  13.748  0.4534 -0.3367  1.1006
14699TIP3    H265513   3.947   1.748  13.726  0.5472 -0.7648  0.7995
14700TIP3   OH265514   1.096   4.914  12.137  0.4153 -0.0673  0.5756
14700TIP3    H165515   1.180   4.945  12.104 -0.2345 -0.5891 -1.8334
14700TIP3    H265516   1.092   4.822  12.110 -0.1337 -0.6184  2.3890
14701TIP3   OH265517   6.190   5.411   5.348  0.3010 -0.2711 -0.2506
14701TIP3    H165518   6.112   5.369   5.310 -0.1256 -0.0707  0.3786
14701TIP3    H265519   6.262   5.386   5.290 -0.6002  1.6152 -2.3743
14702TIP3   OH265520   0.485   1.899   5.893  0.0846  0.6406 -0.1008
14702TIP3    H165521   0.407   1.908   5.947  0.7714 -0.3531  1.1291
14702TIP3    H265522   0.469   1.820   5.841 -0.5688  1.5871 -1.3950
14703TIP3   OH265523   4.382   5.421   2.773 -0.0144 -0.5208  0.1166
14703TIP3    H165524   4.368   5.370   2.853  0.8929 -0.6649  0.1923
14703TIP3    H265525   4.408   5.356   2.708  0.6833 -0.2159  0.0900
14704TIP3   OH265526   0.178   4.994   4.824  0.2760 -0.2782  0.1773
14704TIP3    H165527   0.236   5.046   4.768 -0.0185 -0.2069 -0.0620
14704TIP3    H265528   0.095   4.992   4.778  0.9392 -3.0638 -1.0743
14705TIP3   OH265529   3.400   4.788  12.948 -0.7515 -0.0616  0.4163
14705TIP3    H165530   3.318   4.800  12.900  0.2131  0.7448 -1.1148
14705TIP3    H265531   3.380   4.815  13.037 -1.4550  3.0713 -0.5633
14706TIP3   OH265532   3.112   4.090  14.690  0.1755  0.2597 -0.0776
14706TIP3    H165533   3.046   4.157  14.710 -1.0199 -1.6039  2.8113
14706TIP3    H265534   3.161   4.079  14.772  0.5691 -2.0983 -0.5504
14707TIP3   OH265535   6.514   4.250  16.020 -0.2256 -0.2770  0.2674
14707TIP3    H165536   6.576   4.245  15.947 -0.0657 -1.3586  0.4538
14707TIP3    H265537   6.522   4.340  16.052  0.3677 -0.0533 -0.4722
14708TIP3   OH265538   6.137   5.764  16.559  0.0969  0.1937  0.3444
14708TIP3    H165539   6.169   5.674  16.550 -0.7227 -0.1194  0.4586
14708TIP3    H265540   6.139   5.781  16.653  3.1732  1.4173  0.1757
14709TIP3   OH265541   3.336   1.457  11.191  0.2035 -0.1450 -0.0089
14709TIP3    H165542   3.360   1.502  11.272  0.5191  1.0661 -0.7526
14709TIP3    H265543   3.413   1.465  11.135 -0.5751  0.4986 -1.0328
14710TIP3   OH265544   1.227   0.229  14.261  0.3558 -0.1933 -0.2498
14710TIP3    H165545   1.299   0.292  14.260  1.2644 -1.2059 -1.0140
14710TIP3    H265546   1.208   0.213  14.168  0.6271 -1.5516 -0.0977
14711TIP3   OH265547   3.797   1.406  13.472 -0.0342 -0.3025 -0.2286
14711TIP3    H165548   3.727   1.390  13.537  0.8488  1.4983  1.2708
14711TIP3    H265549   3.863   1.340  13.492 -0.8859 -1.4415 -1.0641
14712TIP3   OH265550   3.947   2.534   6.264  0.6412  0.0038 -0.3703
14712TIP3    H165551   3.999   2.487   6.329 -0.6657 -0.3014  0.4957
14712TIP3    H265552   3.873   2.476   6.246  0.1771  0.7608 -0.9678
14713TIP3   OH265553   2.115   3.442   0.778  0.2642  0.2481  0.0014
14713TIP3    H165554   2.205   3.474   0.784  0.6722 -0.8938  0.3007
14713TIP3    H265555   2.063   3.519   0.756  1.0911  1.2475  1.4160
14714TIP3   OH265556   6.146   3.324   0.579  0.5047 -0.4967 -0.1901
14714TIP3    H165557   6.126   3.400   0.633  0.6620 -0.5855 -0.0040
14714TIP3    H265558   6.129   3.353   0.489 -1.5114 -0.9170  0.0174
14715TIP3   OH265559   4.188   4.902   1.918  0.5377 -0.7072  0.2045
14715TIP3    H165560   4.098   4.927   1.901  0.7092 -0.6968 -0.7376
14715TIP3    H265561   4.208   4.942   2.003  0.2344  0.8736 -0.4264
14716TIP3   OH265562   3.930   0.101  17.026  0.1637 -0.1240  0.4708
14716TIP3    H165563   3.889   0.052  16.954  1.7890  0.8209 -1.1933
14716TIP3    H265564   4.023   0.079  17.019  0.3179 -0.2596  2.5304
14717TIP3   OH265565   6.604   0.448   0.827 -0.5056  0.0506  0.3765
14717TIP3    H165566   6.574   0.357   0.824  1.9940 -0.8188 -0.3186
14717TIP3    H265567   6.609   0.468   0.920 -0.8653 -0.5900  0.5430
14718TIP3   OH265568   0.527   2.148  15.466 -0.0741  0.2844 -0.2467
14718TIP3    H165569   0.587   2.217  15.439  0.3231 -0.3904 -1.1437
14718TIP3    H265570   0.583   2.080  15.504 -0.3951  0.1697  0.0274
14719TIP3   OH265571   0.629   1.403  16.727  0.2052 -0.3847  0.4077
14719TIP3    H165572   0.689   1.355  16.670 -0.6207 -2.7371  1.4061
14719TIP3    H265573   0.541   1.382  16.693 -0.3376  4.4843 -2.2505
14720TIP3   OH265574   1.829   5.304   4.852 -0.7644  0.2109 -0.0336
14720TIP3    H165575   1.797   5.214   4.842 -0.7800  0.1204  0.7227
14720TIP3    H265576   1.867   5.306   4.940 -0.8095  0.9578 -0.0245
14721TIP3   OH265577   0.425   4.529   4.792  0.2179  0.4531  0.0581
14721TIP3    H165578   0.330   4.533   4.776  0.4318  0.5858 -1.3037
14721TIP3    H265579   0.434   4.465   4.862 -0.7508 -1.1543 -1.2002
14722TIP3   OH265580   5.879   0.956  12.013  0.4167 -0.3969 -0.6144
14722TIP3    H165581   5.954   0.976  11.957  2.3203 -2.7040  0.9202
14722TIP3    H265582   5.905   0.987  12.100  0.0595 -2.0829  0.1437
14723TIP3   OH265583   0.827   1.947  14.865  0.2071 -0.4122  0.4285
14723TIP3    H165584   0.823   2.037  14.896 -0.1560  0.4951 -1.9973
14723TIP3    H265585   0.910   1.913  14.899  0.7852  1.1378  0.6241
14724TIP3   OH265586   3.410   1.537  16.585 -0.2082  0.3941  0.0057
14724TIP3    H165587   3.479   1.562  16.524  0.0930  0.0382  0.2011
14724TIP3    H265588   3.386   1.619  16.629  1.0323  0.2907  0.9115
14725TIP3   OH265589   0.735   6.742   3.628 -0.1143 -0.7758  0.3781
14725TIP3    H165590   0.683   6.664   3.608 -1.2592  0.2686 -0.8714
14725TIP3    H265591   0.820   6.724   3.588  0.0441 -1.8824  1.1617
14726TIP3   OH265592   0.967   1.756   4.494 -0.6328  0.0220 -0.1405
14726TIP3    H165593   0.920   1.838   4.480  1.2822  1.1695 -0.1377
14726TIP3    H265594   0.914   1.709   4.559 -2.3650  0.7142 -0.9988
14727TIP3   OH265595   5.857   0.293   3.906 -0.2204  0.4032 -0.0773
14727TIP3    H165596   5.936   0.276   3.855 -1.5780 -1.7000 -1.6385
14727TIP3    H265597   5.819   0.373   3.867 -0.7206 -0.6247 -1.7937
14728TIP3   OH265598   6.232   3.860   1.074  0.3906 -0.8034 -0.3221
14728TIP3    H165599   6.277   3.871   1.158 -0.7739 -1.4380  0.4086
14728TIP3    H265600   6.158   3.803   1.094 -1.7228  1.4905 -1.1056
14729TIP3   OH265601   3.992   3.278   5.648 -0.0274 -0.2179 -0.4702
14729TIP3    H165602   4.024   3.264   5.737 -1.4058  0.1485  0.1165
14729TIP3    H265603   3.965   3.191   5.618 -0.0820 -0.2573 -0.3090
14730TIP3   OH265604   4.019   5.690   3.998 -0.2002 -0.2158 -0.0683
14730TIP3    H165605   3.953   5.679   3.930 -0.1910  0.9022 -0.2747
14730TIP3    H265606   4.009   5.781   4.027  0.4013 -0.4132  0.7875
14731TIP3   OH265607   1.450   3.528  12.055 -0.6232 -0.7092 -0.8448
14731TIP3    H165608   1.377   3.521  12.116  0.1977  0.4121  0.3143
14731TIP3    H265609   1.417   3.585  11.985 -0.5923  0.6380  0.1805
14732TIP3   OH265610   4.162   3.675  16.669  0.6806 -0.0946  0.1266
14732TIP3    H165611   4.068   3.683  16.686  0.9721 -0.4396  2.2437
14732TIP3    H265612   4.168   3.644  16.579 -1.2260 -0.1484 -0.0288
14733TIP3   OH265613   3.826   1.833   3.171 -0.0554 -0.1134  0.1812
14733TIP3    H165614   3.732   1.851   3.178 -0.0057 -0.0487  0.8232
14733TIP3    H265615   3.833   1.738   3.185  0.0391  0.0025  0.9917
14734TIP3   OH265616   6.371   1.137  11.330 -0.3354  0.6053  0.5866
14734TIP3    H165617   6.432   1.064  11.321  0.5720  1.3314  0.6934
14734TIP3    H265618   6.309   1.125  11.258 -0.3210 -0.3744  0.7274
14735TIP3   OH265619   1.698   3.564  13.403  0.4238  0.2295  0.0094
14735TIP3    H165620   1.747   3.578  13.322 -0.9375  0.8630 -0.7402
14735TIP3    H265621   1.612   3.533  13.374 -0.4765  1.5550  1.1388
14736TIP3   OH265622   4.292   5.444  13.431  0.8288 -0.3924 -0.2626
14736TIP3    H165623   4.319   5.413  13.344  2.7406  2.4773 -0.8437
14736TIP3    H265624   4.363   5.501  13.459 -0.4662 -0.0025  2.5438
14737TIP3   OH265625   1.424   5.920   2.834  0.1428  0.4852  0.5556
14737TIP3    H165626   1.488   5.985   2.862  0.3256  0.6571 -0.2154
14737TIP3    H265627   1.413   5.937   2.740  1.0442 -1.3176  0.0820
14738TIP3   OH265628   4.800   3.193   0.716  0.3897  0.7803  0.0837
14738TIP3    H165629   4.790   3.098   0.725 -2.2145  0.7873 -1.6279
14738TIP3    H265630   4.781   3.228   0.803  0.4563 -0.2077  0.5133
14739TIP3   OH265631   1.124   2.360   1.202 -0.1198  0.0313  0.2894
14739TIP3    H165632   1.079   2.295   1.256  2.2362 -0.4487  1.8740
14739TIP3    H265633   1.163   2.309   1.131 -0.5276  0.1340 -0.0044
14740TIP3   OH265634   4.934   0.789   5.704  0.1832 -0.5200 -0.1259
14740TIP3    H165635   4.926   0.856   5.772 -0.8114 -0.8069  0.0517
14740TIP3    H265636   4.858   0.802   5.648 -0.1285 -1.6247  0.0226
14741TIP3   OH265637   3.940   3.225  11.312 -0.7902  0.6407  0.5953
14741TIP3    H165638   3.879   3.177  11.256  2.1686 -1.0040 -1.5113
14741TIP3    H265639   3.929   3.317  11.287 -1.8426  0.3041 -0.2640
14742TIP3   OH265640   1.057   6.408   2.509 -0.1552  0.2909  0.6801
14742TIP3    H165641   1.025   6.423   2.598 -2.0647  3.6195 -0.3702
14742TIP3    H265642   1.002   6.338   2.475 -3.3894  2.7011  0.4861
14743TIP3   OH265643   4.860   3.874   5.493 -0.0760 -0.2739  0.4527
14743TIP3    H165644   4.848   3.781   5.473  0.2386  0.0374 -1.3413
14743TIP3    H265645   4.839   3.881   5.586 -1.0757 -1.9566  0.3965
14744TIP3   OH265646   5.353   3.677   4.026  0.0493  0.0743 -0.2686
14744TIP3    H165647   5.267   3.652   3.990 -0.7580  0.9836  0.9593
14744TIP3    H265648   5.398   3.594   4.039 -1.6175 -0.6569  1.3828
14745TIP3   OH265649   2.525   4.441   4.424 -0.2167 -0.2187  0.4268
14745TIP3    H165650   2.493   4.493   4.350  0.5608 -0.6581 -0.2344
14745TIP3    H265651   2.560   4.361   4.385  2.8857  0.7646  0.9092
14746TIP3   OH265652   2.917   4.177   5.806 -0.2413  0.2627 -0.1285
14746TIP3    H165653   2.877   4.152   5.890  0.8606 -1.4994 -0.0972
14746TIP3    H265654   2.910   4.273   5.805 -3.2553  0.1717  0.4429
14747TIP3   OH265655   5.885   6.416  11.512 -0.5259 -0.2048 -0.3504
14747TIP3    H165656   5.979   6.407  11.499 -0.2001  1.3883  0.6129
14747TIP3    H265657   5.869   6.510  11.508 -1.9496 -0.3838  0.2958
14748TIP3   OH265658   3.369   0.656  12.139 -0.0282 -0.0205 -0.3959
14748TIP3    H165659   3.371   0.564  12.115 -2.3993  0.1568 -1.5241
14748TIP3    H265660   3.357   0.655  12.234 -0.9285 -0.9229 -0.4969
14749TIP3   OH265661   4.240   1.023  11.521  0.0118 -0.0048 -0.2962
14749TIP3    H165662   4.203   1.000  11.436  1.2889  1.8800 -1.4314
14749TIP3    H265663   4.334   1.020  11.508  0.2309 -0.2753  1.2416
14750TIP3   OH265664   0.654   3.386   4.867  0.0529  0.4314 -0.0504
14750TIP3    H165665   0.628   3.299   4.836  1.6737  0.0826 -0.4996
14750TIP3    H265666   0.591   3.445   4.825 -0.0035 -0.3684 -1.1590
14751TIP3   OH265667   2.541   5.371   6.305  0.4198  0.6004 -0.0335
14751TIP3    H165668   2.522   5.277   6.302 -1.7499  0.9980 -1.3300
14751TIP3    H265669   2.636   5.377   6.310  0.7913 -1.6736 -2.3993
14752TIP3   OH265670   0.583   6.141  15.088  0.2250 -0.2700  0.4028
14752TIP3    H165671   0.657   6.182  15.133  1.4743  0.8312 -2.3949
14752TIP3    H265672   0.620   6.062  15.047 -0.2037  0.0489 -0.6441
14753TIP3   OH265673   1.013   4.460  11.690 -0.0121  0.0541 -0.4576
14753TIP3    H165674   0.923   4.492  11.695 -0.2517 -0.5693 -0.7356
14753TIP3    H265675   1.024   4.434  11.598  0.5339  0.3646 -0.4832
14754TIP3   OH265676   4.782   2.844   3.531 -0.6142  0.2172  0.2807
14754TIP3    H165677   4.783   2.904   3.456 -1.2243 -0.8943 -0.6414
14754TIP3    H265678   4.807   2.759   3.494  0.2305 -0.1230  1.5623
14755TIP3   OH265679   0.955   4.409   2.109  0.5943 -0.2552  0.8128
14755TIP3    H165680   0.884   4.472   2.125  1.3668  1.1671 -0.9831
14755TIP3    H265681   0.915   4.342   2.053  0.7193  0.7646 -0.5496
14756TIP3   OH265682   1.982   5.657  13.289  0.1831  0.1666  0.3392
14756TIP3    H165683   1.914   5.719  13.262 -0.7291 -1.0686 -0.3123
14756TIP3    H265684   2.064   5.704  13.276 -0.2921  0.3509 -2.8205
14757TIP3   OH265685   4.885   4.760   2.834 -0.0612  0.7770  0.5204
14757TIP3    H165686   4.934   4.693   2.787  1.7000  2.1941  0.2338
14757TIP3    H265687   4.903   4.841   2.787 -0.4035  1.8129  2.0861
14758TIP3   OH265688   4.908   6.010  14.350  0.6241  0.2963 -0.2495
14758TIP3    H165689   4.957   6.059  14.416  0.7998  1.3506 -1.1329
14758TIP3    H265690   4.894   6.073  14.279  0.6041 -0.8603 -1.2998
14759TIP3   OH265691   0.076   6.164   4.985  0.9049 -0.1147  0.1390
14759TIP3    H165692   0.014   6.231   5.015  0.9702 -0.4011  0.9351
14759TIP3    H265693   0.122   6.205   4.912 -1.3204 -0.4478 -1.5810
14760TIP3   OH265694   3.229   5.134   0.498 -0.3202  0.5455 -0.4914
14760TIP3    H165695   3.307   5.154   0.446  0.2443  3.9276  1.3538
14760TIP3    H265696   3.238   5.188   0.576 -3.7980 -0.1012  0.5185
14761TIP3   OH265697   4.191   4.025   1.772 -0.6435 -0.7703 -0.7814
14761TIP3    H165698   4.222   3.994   1.856 -1.8022  2.4851  1.0401
14761TIP3    H265699   4.260   4.083   1.740 -1.2695 -0.0056 -0.7892
14762TIP3   OH265700   2.824   3.376   0.922  0.0358  0.4026  0.0287
14762TIP3    H165701   2.889   3.327   0.973  0.6175  0.6751 -0.4399
14762TIP3    H265702   2.741   3.357   0.965  0.3664 -0.3159  0.3644
14763TIP3   OH265703   3.074   0.316   1.759  0.4176 -0.2872  0.2263
14763TIP3    H165704   3.022   0.245   1.720 -0.8129  0.9280 -0.4227
14763TIP3    H265705   3.134   0.342   1.689  0.7970 -0.5943  0.4304
14764TIP3   OH265706   3.940   6.512  15.531  0.0212 -0.5962  0.0699
14764TIP3    H165707   3.879   6.446  15.563  1.1219 -1.7154 -0.0838
14764TIP3    H265708   3.991   6.537  15.608 -0.7559  0.5194  0.2522
14765TIP3   OH265709   3.236   4.222  11.176 -0.1788 -0.2792 -0.3309
14765TIP3    H165710   3.311   4.274  11.206  0.4625 -1.9406  1.0679
14765TIP3    H265711   3.194   4.277  11.109  0.7402  1.8057  0.7296
14766TIP3   OH265712   5.160   5.972   6.439 -0.2286  0.2029 -0.7812
14766TIP3    H165713   5.111   5.900   6.479 -0.1456  1.2327  1.2819
14766TIP3    H265714   5.229   5.993   6.502 -1.4304  3.3384 -0.3184
14767TIP3   OH265715   4.931   3.439   2.907  0.1954 -0.4687  0.1367
14767TIP3    H165716   5.010   3.455   2.855 -1.4337  1.6023 -1.9345
14767TIP3    H265717   4.935   3.502   2.979  1.0783 -1.3564  0.8821
14768TIP3   OH265718   0.511   2.492   2.010  0.2645  0.2213 -0.1086
14768TIP3    H165719   0.553   2.555   1.952  2.7178 -1.1958 -0.0218
14768TIP3    H265720   0.519   2.530   2.098  0.4926  0.3975 -0.2063
14769TIP3   OH265721   2.452   4.363   0.685  0.0128 -0.0940  0.1762
14769TIP3    H165722   2.411   4.346   0.770  0.3407 -1.2601  0.1107
14769TIP3    H265723   2.546   4.360   0.703  0.0920 -1.1357 -0.3658
14770TIP3   OH265724   0.666   0.434  14.543  0.0153  0.0810  0.1018
14770TIP3    H165725   0.729   0.367  14.515  1.7386  0.9450  1.7266
14770TIP3    H265726   0.703   0.517  14.512 -0.4152  0.5939  0.9271
14771TIP3   OH265727   0.005   0.211   3.054  0.6662  0.0165 -0.1994
14771TIP3    H165728   0.065   0.224   2.980 -0.1894 -1.9611 -1.3100
14771TIP3    H265729   0.056   0.159   3.116  1.5530  2.0783  0.9204
14772TIP3   OH265730   6.084   2.806  17.083  0.1620  0.4969 -0.2225
14772TIP3    H165731   6.123   2.766  17.005 -1.2150  2.0273 -1.7773
14772TIP3    H265732   5.995   2.772  17.085  0.3042  0.1561  0.9492
14773TIP3   OH265733   1.327   0.628  13.679 -0.1199 -0.1342 -0.3977
14773TIP3    H165734   1.288   0.698  13.626  0.7270  0.5834 -0.1086
14773TIP3    H265735   1.356   0.563  13.615  1.1526  0.8560 -0.8881
14774TIP3   OH265736   0.678   1.104  17.083  0.1954 -0.0264  0.4335
14774TIP3    H165737   0.624   1.182  17.067  0.6051  0.2675  0.4550
14774TIP3    H265738   0.615   1.034  17.101 -0.2339 -0.0616 -1.0821
14775TIP3   OH265739   2.395   5.658  11.586 -0.0337  0.4579 -0.6108
14775TIP3    H165740   2.415   5.592  11.519 -0.3224  0.2285 -0.4694
14775TIP3    H265741   2.394   5.741  11.537  2.3602  0.6575 -0.4728
14776TIP3   OH265742   2.358   4.021  11.246 -0.5753  0.4332  0.4914
14776TIP3    H165743   2.286   4.003  11.307 -1.1042 -1.3959 -0.6008
14776TIP3    H265744   2.315   4.065  11.172 -0.2358  1.0653  0.6679
14777TIP3   OH265745   4.536   5.130   2.206  0.4039  0.3974  0.1173
14777TIP3    H165746   4.444   5.104   2.196  0.3873  1.2862 -3.0304
14777TIP3    H265747   4.533   5.223   2.225  0.6957 -0.0138  2.5721
14778TIP3   OH265748   5.712   0.673  14.647  0.1492 -0.0381  0.1729
14778TIP3    H165749   5.685   0.605  14.584  1.5359 -2.2480  1.8358
14778TIP3    H265750   5.808   0.666  14.650  0.1718  0.6521  1.8361
14779TIP3   OH265751   3.103   4.062  13.940  0.1627  0.1703  0.2467
14779TIP3    H165752   3.130   4.026  14.025  1.5886  0.7981  0.0794
14779TIP3    H265753   3.140   4.150  13.939  1.1432 -0.2310 -1.5120
14780TIP3   OH265754   0.308   2.279   3.341  0.2149  0.1133 -0.1900
14780TIP3    H165755   0.342   2.368   3.340  0.6064  0.0047  1.1417
14780TIP3    H265756   0.380   2.226   3.376 -0.3693 -0.5613  0.0322
14781TIP3   OH265757   0.675   5.787   3.189 -0.1029 -0.0376  0.1940
14781TIP3    H165758   0.718   5.728   3.128 -0.8332  1.2159 -1.6012
14781TIP3    H265759   0.746   5.822   3.243  0.5951 -0.9442 -0.1148
14782TIP3   OH265760   3.372   4.504  16.079  0.1026 -0.7798  0.5519
14782TIP3    H165761   3.365   4.473  16.170  1.3834 -0.3231  0.8310
14782TIP3    H265762   3.418   4.433  16.034  1.3798 -0.1351  0.7743
14783TIP3   OH265763   0.610   4.472   0.653  0.1111  0.0009 -0.2933
14783TIP3    H165764   0.584   4.387   0.689 -0.5384  0.3973  0.1833
14783TIP3    H265765   0.600   4.533   0.726 -1.2743  0.8336 -1.1358
14784TIP3   OH265766   2.163   6.108   4.035  0.2313 -0.3938  0.1573
14784TIP3    H165767   2.234   6.160   4.073  0.4787  0.0148 -0.8357
14784TIP3    H265768   2.135   6.050   4.106 -0.3918  1.4345  1.4773
14785TIP3   OH265769   0.537   4.657   3.648 -0.1572  0.0540  0.4676
14785TIP3    H165770   0.617   4.635   3.697 -1.0625 -0.7964  1.6414
14785TIP3    H265771   0.522   4.749   3.667  0.1421  0.0285  0.8456
14786TIP3   OH265772   4.583   6.010   4.127 -0.4162 -0.0674 -0.1191
14786TIP3    H165773   4.601   6.066   4.203  0.0259 -0.9040  0.3968
14786TIP3    H265774   4.623   6.057   4.054  0.3524  0.0846  0.3818
14787TIP3   OH265775   5.705   0.217   1.238 -0.3954  0.1459 -0.8171
14787TIP3    H165776   5.611   0.232   1.228 -0.1005  2.3171 -1.0003
14787TIP3    H265777   5.712   0.150   1.306 -2.0747 -1.7289 -2.3748
14788TIP3   OH265778   4.999   6.415   4.404  0.7512  0.2706 -0.1468
14788TIP3    H165779   4.941   6.437   4.331  0.3530  0.2967  0.1725
14788TIP3    H265780   4.996   6.492   4.460  1.7701  0.6153 -0.5491
14789TIP3   OH265781   2.915   3.253   3.358 -0.0312  0.0273  0.1957
14789TIP3    H165782   2.855   3.270   3.430 -0.5976 -2.2756  0.3357
14789TIP3    H265783   2.876   3.180   3.310  1.4260  0.0823 -1.1682
14790TIP3   OH265784   3.133   5.137  10.867  0.1910  0.0007 -0.9618
14790TIP3    H165785   3.098   5.197  10.802 -1.5340 -1.0785 -1.0662
14790TIP3    H265786   3.224   5.166  10.880 -0.4424  2.3180 -1.3372
14791TIP3   OH265787   0.930   1.594  13.105 -0.4403 -0.1830 -0.3099
14791TIP3    H165788   0.851   1.541  13.109  0.1649 -1.2043 -1.4038
14791TIP3    H265789   1.002   1.531  13.106  0.3407  0.6731 -0.4950
14792TIP3   OH265790   5.497   3.596  13.493 -0.5177 -0.4957 -0.0073
14792TIP3    H165791   5.501   3.591  13.589  1.3733  0.6961  0.0323
14792TIP3    H265792   5.558   3.666  13.470  0.6418 -2.0867 -2.2073
14793TIP3   OH265793   5.605   1.523  13.790 -0.5204 -0.0211  0.0140
14793TIP3    H165794   5.542   1.452  13.801  0.7242 -0.9960  1.2252
14793TIP3    H265795   5.570   1.594  13.842 -0.6251 -0.5655  0.7059
14794TIP3   OH265796   1.958   0.784   5.609 -0.4210 -0.6151 -0.2914
14794TIP3    H165797   1.984   0.802   5.699  0.8732 -0.2467 -0.7185
14794TIP3    H265798   1.969   0.868   5.563  1.5677 -1.3940 -1.3663
14795TIP3   OH265799   1.334   2.666  16.574  0.6493  0.1813 -0.0896
14795TIP3    H165800   1.401   2.600  16.559 -0.0291 -0.3970 -0.6775
14795TIP3    H265801   1.332   2.677  16.669  0.7336 -0.6986  0.0273
14796TIP3   OH265802   5.127   3.563   3.835 -0.2970 -0.2009 -0.0092
14796TIP3    H165803   5.055   3.532   3.890 -0.7605  1.1948  0.2294
14796TIP3    H265804   5.147   3.490   3.778 -2.9012 -0.1761 -1.0988
14797TIP3   OH265805   5.499   4.060  15.049 -0.4049 -0.2834  0.0008
14797TIP3    H165806   5.441   4.134  15.068 -0.8018 -0.8705  1.1694
14797TIP3    H265807   5.559   4.056  15.123  0.5458 -0.2666 -0.7449
14798TIP3   OH265808   2.255   3.128   1.598  0.1659 -0.4657 -0.1609
14798TIP3    H165809   2.303   3.081   1.529  1.7855  1.5344 -0.5156
14798TIP3    H265810   2.292   3.216   1.596 -1.1959  0.2192  1.9337
14799TIP3   OH265811   2.778   3.332   5.482  0.0775  0.4753 -0.2000
14799TIP3    H165812   2.818   3.369   5.402  0.1991 -0.5228 -0.6114
14799TIP3    H265813   2.833   3.257   5.504 -0.2859  0.4092  0.5133
14800TIP3   OH265814   4.730   5.718   4.908  0.0532  0.3108 -0.0666
14800TIP3    H165815   4.641   5.694   4.934  0.2214 -2.0211 -1.3916
14800TIP3    H265816   4.719   5.786   4.842 -0.7171  0.4697  0.2255
14801TIP3   OH265817   1.533   2.405  11.355  0.7284 -0.8105 -0.2496
14801TIP3    H165818   1.515   2.318  11.321 -0.6545  0.0510 -1.8698
14801TIP3    H265819   1.472   2.416  11.428  0.7198 -1.0763 -0.2171
14802TIP3   OH265820   3.900   2.762   0.359  0.7119 -0.2554 -0.1028
14802TIP3    H165821   3.995   2.761   0.345  0.6906 -0.4477 -0.2401
14802TIP3    H265822   3.889   2.793   0.449  0.9557 -1.3047  0.2980
14803TIP3   OH265823   5.156   0.876   1.779  0.2407 -0.2893 -0.2370
14803TIP3    H165824   5.189   0.791   1.750  0.8840  0.1116 -0.7357
14803TIP3    H265825   5.154   0.930   1.699 -1.0539 -0.1026 -0.1023
14804TIP3   OH265826   3.142   6.306   3.416  0.4297  0.1028  0.7004
14804TIP3    H165827   3.079   6.237   3.434  0.1649  0.3946  0.8972
14804TIP3    H265828   3.222   6.277   3.460 -0.0900  0.6167  2.0536
14805TIP3   OH265829   4.214   1.164   2.921 -0.5405  0.3975  0.0844
14805TIP3    H165830   4.121   1.165   2.900 -0.1732  0.7809 -1.7455
14805TIP3    H265831   4.237   1.257   2.935 -0.0759  0.5360 -1.4172
14806TIP3   OH265832   1.345   0.309   4.749  0.2468  0.2570 -0.1654
14806TIP3    H165833   1.277   0.285   4.813 -0.0872 -1.0150 -0.9825
14806TIP3    H265834   1.414   0.349   4.803  0.9086 -2.6362  1.3315
14807TIP3   OH265835   0.483   3.202   5.565  0.2052  0.5524 -0.4811
14807TIP3    H165836   0.451   3.292   5.563  0.6585  0.7242 -0.1118
14807TIP3    H265837   0.572   3.208   5.598 -0.4852 -0.2202  1.7022
14808TIP3   OH265838   5.862   5.043  15.468 -0.1504 -0.1697  0.8311
14808TIP3    H165839   5.794   5.096  15.509 -0.7619 -1.2393  1.2444
14808TIP3    H265840   5.834   4.952  15.483  0.1420 -0.6193 -1.0346
14809TIP3   OH265841   2.191   0.020  14.421 -0.0948 -0.1649  0.3500
14809TIP3    H165842   2.238   0.096  14.456  1.1615 -0.8893  0.2643
14809TIP3    H265843   2.131  -0.005  14.492  0.4637  0.0603  0.9105
14810TIP3   OH265844   4.502   5.128  14.193 -0.5344 -0.1009  0.4532
14810TIP3    H165845   4.499   5.052  14.135 -0.3833 -0.7599  1.2885
14810TIP3    H265846   4.576   5.110  14.252  1.3167  1.9640 -1.0478
14811TIP3   OH265847   5.969   4.926   1.260 -0.0922  0.2014  0.1193
14811TIP3    H165848   5.927   4.842   1.241 -0.9024  0.2684  1.4294
14811TIP3    H265849   5.897   4.985   1.282  0.5724  0.7894  0.7969
14812TIP3   OH265850   6.412   4.301   1.339  0.5245 -0.2162 -0.3563
14812TIP3    H165851   6.440   4.376   1.287 -0.6209 -0.0984 -0.8385
14812TIP3    H265852   6.320   4.288   1.315  0.7211 -1.8352 -0.3719
14813TIP3   OH265853   0.401   2.888   1.388  0.5874 -0.0679 -0.6716
14813TIP3    H165854   0.343   2.866   1.461  0.0306  0.6472 -0.8885
14813TIP3    H265855   0.424   2.804   1.349  0.8715 -0.4528  0.3095
14814TIP3   OH265856   2.020   5.277  12.039  0.4051 -0.3392 -0.1999
14814TIP3    H165857   2.045   5.367  12.059  1.7185 -0.8188  0.4660
14814TIP3    H265858   2.072   5.254  11.962  0.2738 -0.6093 -0.2084
14815TIP3   OH265859   1.422   0.328  16.759 -0.4366  0.2873 -0.1483
14815TIP3    H165860   1.501   0.383  16.763 -1.3416  1.5550  1.4352
14815TIP3    H265861   1.431   0.268  16.832  0.0118 -0.9770 -1.2108
14816TIP3   OH265862   0.015   4.267  14.626 -0.1476 -0.3987 -0.1041
14816TIP3    H165863   0.049   4.292  14.540 -1.3253  2.6106  0.1732
14816TIP3    H265864   0.086   4.286  14.687  0.4490 -1.8873 -0.3085
14817TIP3   OH265865   2.711   5.389   1.652  0.1636 -0.1210 -0.1478
14817TIP3    H165866   2.692   5.473   1.610 -1.1122  0.5537  1.6838
14817TIP3    H265867   2.806   5.389   1.664  0.4347  0.1262 -1.9841
14818TIP3   OH265868   4.976   3.162  14.647 -0.2733 -0.5064  0.3173
14818TIP3    H165869   4.992   3.243  14.600  0.1154 -0.6421  0.2117
14818TIP3    H265870   5.062   3.137  14.683 -0.7760  0.2194  2.1216
14819TIP3   OH265871   1.735   2.326  16.002 -0.8453 -0.5803 -0.1591
14819TIP3    H165872   1.705   2.243  16.039 -1.5789  0.0032  0.5801
14819TIP3    H265873   1.829   2.328  16.021 -0.9696 -0.8934  0.4938
14820TIP3   OH265874   5.628   1.119  11.819 -0.1445 -0.4913  0.5503
14820TIP3    H165875   5.625   1.118  11.915 -2.2186 -1.3177  0.5284
14820TIP3    H265876   5.637   1.212  11.796 -1.9599 -0.0164  1.5620
14821TIP3   OH265877   5.737   0.385   1.960 -0.0286  0.0565  0.1014
14821TIP3    H165878   5.663   0.329   1.937  0.3570  0.3656 -2.1816
14821TIP3    H265879   5.805   0.325   1.989 -0.3860 -0.4589 -0.1115
14822TIP3   OH265880   3.719   2.905   2.897  0.6362  0.1661  0.0383
14822TIP3    H165881   3.673   2.988   2.911  0.4189  0.1962 -0.7977
14822TIP3    H265882   3.708   2.887   2.804 -0.9689 -1.7838  0.5500
14823TIP3   OH265883   2.551   4.734  14.357  0.0683 -0.3827  0.1696
14823TIP3    H165884   2.467   4.722  14.401  0.1345  1.1497  0.7556
14823TIP3    H265885   2.575   4.825  14.374  0.9753 -0.2515 -1.5312
14824TIP3   OH265886   2.154   0.071  12.251  0.1983  0.1711 -0.2509
14824TIP3    H165887   2.129   0.038  12.338  0.4587  0.2609 -0.1388
14824TIP3    H265888   2.190  -0.005  12.206  1.1695  0.3816  0.1513
14825TIP3   OH265889   5.522   3.223  14.385 -0.1020 -0.6649  1.0679
14825TIP3    H165890   5.591   3.240  14.450  0.2278 -2.3300  1.2003
14825TIP3    H265891   5.569   3.192  14.308 -0.6554 -0.9536  0.8446
14826TIP3   OH265892   6.392   4.919   0.536 -0.2846  0.7619  0.0051
14826TIP3    H165893   6.340   4.927   0.616 -0.8360 -0.2449 -0.2394
14826TIP3    H265894   6.336   4.871   0.476  0.4116  0.8702 -0.7402
14827TIP3   OH265895   6.669   0.626  13.250  0.2160 -0.4745  0.5119
14827TIP3    H165896   6.592   0.606  13.196 -1.0634  0.6656  1.8276
14827TIP3    H265897   6.657   0.573  13.329 -0.9831  1.9936  2.1366
14828TIP3   OH265898   5.288   6.030  16.489  0.0686  0.3485  0.4327
14828TIP3    H165899   5.326   6.051  16.575 -0.4111  0.2350  0.6756
14828TIP3    H265900   5.251   6.113  16.459 -0.1124  0.2967  0.5137
14829TIP3   OH265901   4.384   2.235   0.388  0.0207  0.0151  0.4044
14829TIP3    H165902   4.453   2.292   0.421 -0.7896  1.0908  0.3111
14829TIP3    H265903   4.370   2.170   0.458  0.5378  0.3040  0.7769
14830TIP3   OH265904   3.609   6.281  13.637 -0.0099  0.0954  0.0400
14830TIP3    H165905   3.605   6.363  13.686 -1.4253  0.3810 -0.5092
14830TIP3    H265906   3.635   6.307  13.548  2.9534 -0.4612  0.6382
14831TIP3   OH265907   0.297   3.008   2.650  0.2935 -0.0126  0.2816
14831TIP3    H165908   0.218   2.993   2.702 -0.3946 -0.5159 -0.8739
14831TIP3    H265909   0.266   3.015   2.560  1.4338  1.0868 -0.0531
14832TIP3   OH265910   1.353   1.608  13.592  1.1106 -0.1143 -0.1353
14832TIP3    H165911   1.286   1.674  13.580  0.7161 -0.5391 -0.3049
14832TIP3    H265912   1.334   1.569  13.677  0.7054 -0.7182 -0.4942
14833TIP3   OH265913   6.571   5.097  16.771  0.0143 -0.1148  0.1469
14833TIP3    H165914   6.662   5.120  16.754  0.2476  0.1195  1.6461
14833TIP3    H265915   6.521   5.146  16.706  0.9604 -0.5303 -0.9321
14834TIP3   OH265916   4.628   6.301   2.052  0.3122  0.2490  0.1437
14834TIP3    H165917   4.601   6.263   2.136 -0.6317  1.2995  0.3466
14834TIP3    H265918   4.551   6.291   1.996  0.6619  0.2769 -0.3450
14835TIP3   OH265919   2.429   3.350   0.425  0.1481 -0.7107  0.2552
14835TIP3    H165920   2.523   3.335   0.415  0.5334  0.7209  1.3761
14835TIP3    H265921   2.400   3.283   0.486  0.9262  0.2372  1.7064
14836TIP3   OH265922   1.556   1.123   5.002 -0.6423 -0.0553  0.3728
14836TIP3    H165923   1.567   1.033   5.031 -0.9067 -0.7507 -1.5483
14836TIP3    H265924   1.586   1.123   4.911 -0.1318  1.9288  0.4939
14837TIP3   OH265925   6.764   1.978   4.036  0.1035 -0.2467  0.3726
14837TIP3    H165926   6.775   2.064   3.996  0.1943 -1.1382 -1.6255
14837TIP3    H265927   6.796   1.989   4.125 -0.6163  1.9804  0.4248
14838TIP3   OH265928   6.427   6.435   0.856 -0.1029  0.3898  0.1213
14838TIP3    H165929   6.511   6.477   0.873 -0.2344  0.3127  1.0242
14838TIP3    H265930   6.362   6.503   0.875 -0.3094 -0.1376  1.4099
14839TIP3   OH265931   4.453   1.656   6.106  0.2826 -0.2080  0.2837
14839TIP3    H165932   4.477   1.584   6.165  1.2004 -0.2241 -0.0849
14839TIP3    H265933   4.465   1.735   6.158  3.4326 -0.0356 -0.4916
14840TIP3   OH265934   1.341   3.302  17.071 -0.0444 -0.2309 -0.2429
14840TIP3    H165935   1.423   3.255  17.053 -0.0777 -1.0980  1.5714
14840TIP3    H265936   1.345   3.380  17.016  1.0039 -1.3171 -1.7855
14841TIP3   OH265937   6.646   5.785  10.693 -0.6363 -0.8616 -0.4336
14841TIP3    H165938   6.726   5.748  10.731  0.2586  0.2428 -1.1837
14841TIP3    H265939   6.607   5.713  10.644  0.3620 -1.1890 -0.7729
14842TIP3   OH265940   6.429   0.559  14.290 -0.5849  0.0349 -0.0882
14842TIP3    H165941   6.486   0.489  14.320 -0.1978  0.9194  1.3535
14842TIP3    H265942   6.460   0.581  14.203  0.2528 -0.5745  0.0539
14843TIP3   OH265943   4.420   4.635  13.525  0.1947  0.1898  0.6465
14843TIP3    H165944   4.508   4.671  13.511  0.1409 -0.5224 -2.0767
14843TIP3    H265945   4.362   4.712  13.520  0.4855  0.3797  0.1443
14844TIP3   OH265946   5.996   5.373  11.435  0.7088 -0.2028 -0.2900
14844TIP3    H165947   5.909   5.337  11.417  0.4892  0.8471 -1.5679
14844TIP3    H265948   5.994   5.460  11.395  1.0089  1.5186  3.1501
14845TIP3   OH265949   0.123   3.362   2.268 -0.5850  0.3148 -0.5694
14845TIP3    H165950   0.092   3.451   2.283 -0.6584 -0.1211  2.5082
14845TIP3    H265951   0.216   3.373   2.248 -0.0723  1.0740  1.8480
14846TIP3   OH265952   4.908   2.174   4.011  0.3398  0.0219  0.2236
14846TIP3    H165953   4.982   2.132   4.056  1.2929  0.3561 -0.9830
14846TIP3    H265954   4.846   2.103   3.995  0.8904 -0.4833  0.2840
14847TIP3   OH265955   4.351   1.537   4.178 -0.7050  0.6960 -0.1607
14847TIP3    H165956   4.396   1.482   4.242 -1.6937 -0.8376 -0.7183
14847TIP3    H265957   4.258   1.513   4.188 -1.0703  1.6858 -0.9985
14848TIP3   OH265958   4.588   6.388   3.384  0.0631  0.5992 -0.7037
14848TIP3    H165959   4.506   6.373   3.431 -0.6885  0.8116 -1.9161
14848TIP3    H265960   4.632   6.457   3.435  0.0532 -0.3179  0.6023
14849TIP3   OH265961   2.220   1.467   3.401  0.5582 -0.0826 -0.5338
14849TIP3    H165962   2.179   1.479   3.315  0.3088  0.7118 -0.3110
14849TIP3    H265963   2.295   1.410   3.384 -0.3956 -1.2305 -1.0187
14850TIP3   OH265964   1.343   3.790   1.623  0.0911  0.5525 -0.1412
14850TIP3    H165965   1.420   3.817   1.574  0.6878 -0.3528  0.2808
14850TIP3    H265966   1.377   3.749   1.702 -0.8396  1.0581  0.5544
14851TIP3   OH265967   4.134   0.248   4.931  0.2621  0.2707 -0.1733
14851TIP3    H165968   4.055   0.262   4.984 -0.1124  0.7795 -0.8451
14851TIP3    H265969   4.107   0.185   4.864  0.8190 -0.6098  0.4149
14852TIP3   OH265970   4.082   6.190   5.787  0.4566  0.3099 -0.4009
14852TIP3    H165971   4.086   6.132   5.711  2.4746 -1.5166  0.9848
14852TIP3    H265972   4.053   6.133   5.859 -1.3529  1.9727  0.2847
14853TIP3   OH265973   1.551   2.979   6.100 -0.3011 -0.3333  0.3992
14853TIP3    H165974   1.591   3.063   6.120 -0.5394  0.2098 -1.2246
14853TIP3    H265975   1.506   2.954   6.181 -0.1535  1.0501  0.9404
14854TIP3   OH265976   6.509   3.265   0.276 -0.7750 -0.6882  0.0639
14854TIP3    H165977   6.445   3.213   0.325 -0.5835 -0.5400  0.4823
14854TIP3    H265978   6.459   3.340   0.243 -0.8810 -0.7270  0.1340
14855TIP3   OH265979   0.786   3.102   2.962 -0.3697  0.3874  0.2944
14855TIP3    H165980   0.740   3.112   2.879  0.0989 -1.3989 -0.2274
14855TIP3    H265981   0.871   3.143   2.948 -0.5302  0.6449  0.0936
14856TIP3   OH265982   6.010   5.210  15.663 -0.1994 -0.4042 -0.1934
14856TIP3    H165983   6.030   5.290  15.615 -0.4503  0.1938  0.6828
14856TIP3    H265984   5.924   5.225  15.701  0.1488 -0.7205  0.7398
14857TIP3   OH265985   4.087   6.727  11.384 -0.4778  0.2717 -0.0164
14857TIP3    H165986   4.074   6.664  11.455 -1.4509  0.9393  0.4233
14857TIP3    H265987   4.136   6.798  11.426  2.2125 -0.9127 -0.9342
14858TIP3   OH265988   1.937   0.105   4.567  0.6407  0.1985 -0.4951
14858TIP3    H165989   2.027   0.128   4.587  0.4342  1.6753 -1.0937
14858TIP3    H265990   1.885   0.150   4.634  0.2467  1.2505 -1.4552
14859TIP3   OH265991   1.869   1.555  11.338  0.4172 -0.0768 -0.2005
14859TIP3    H165992   1.857   1.636  11.289  0.5570 -0.8593 -1.6023
14859TIP3    H265993   1.793   1.502  11.314 -0.2968  0.0554  1.6300
14860TIP3   OH265994   0.694   0.132  11.503  0.0920  0.4456 -0.0923
14860TIP3    H165995   0.761   0.064  11.499  0.4903  0.7992  0.3572
14860TIP3    H265996   0.641   0.109  11.579 -1.2198 -0.6485 -1.2879
14861TIP3   OH265997   5.530   4.606  12.971 -0.1093  0.4172  0.0545
14861TIP3    H165998   5.601   4.615  12.907 -1.0636 -2.4309 -1.5675
14861TIP3    H265999   5.450   4.603  12.919 -1.0667 -0.5157  1.4965
14862TIP3   OH266000   3.085   3.223   5.282  0.1712  0.2558  0.5343
14862TIP3    H166001   3.082   3.244   5.376 -0.7226  0.0245  0.5658
14862TIP3    H266002   3.022   3.284   5.242  0.1016 -0.0513  0.1708
14863TIP3   OH266003   4.160   0.857   6.050 -0.1294 -0.3112 -0.0430
14863TIP3    H166004   4.147   0.914   5.975 -0.9517  0.2626  0.5215
14863TIP3    H266005   4.072   0.840   6.084  0.1738 -1.1529  0.3580
14864TIP3   OH266006   2.063   2.960   2.067  0.1675 -0.0900  0.1367
14864TIP3    H166007   2.113   2.904   2.007 -2.0685 -0.0221 -1.9432
14864TIP3    H266008   2.109   2.952   2.151  1.0779 -3.5434 -0.5209
14865TIP3   OH266009   1.888   6.440   0.020 -0.0272 -0.2925 -0.1712
14865TIP3    H166010   1.819   6.414   0.081 -1.0714  1.5353 -0.4906
14865TIP3    H266011   1.872   6.533   0.005  3.3391  0.5843  0.8156
14866TIP3   OH266012   6.251   2.940   6.327 -0.0804 -0.2303 -0.3981
14866TIP3    H166013   6.341   2.943   6.359 -0.3984 -2.6246  0.9047
14866TIP3    H266014   6.205   3.006   6.379  1.0171  1.7561 -1.7684
14867TIP3   OH266015   6.349   1.575  13.678  0.1621  0.4091  0.0519
14867TIP3    H166016   6.364   1.551  13.769  1.1858 -0.8826 -0.4319
14867TIP3    H266017   6.333   1.670  13.680  1.3462  0.6084  1.4348
14868TIP3   OH266018   5.936   0.003   2.270 -0.0802  1.0550 -0.2694
14868TIP3    H166019   5.988  -0.055   2.215  0.5545  0.9153  0.4615
14868TIP3    H266020   5.850  -0.039   2.276  0.0977  0.6636 -0.4813
14869TIP3   OH266021   1.940   0.078   0.848  0.0482 -0.2185  0.3564
14869TIP3    H166022   1.974   0.038   0.768 -1.7991 -0.9101 -0.1547
14869TIP3    H266023   2.016   0.116   0.891  1.2130 -0.5285 -1.3332
14870TIP3   OH266024   4.541   0.630   5.517 -0.0937  0.3465  0.3529
14870TIP3    H166025   4.599   0.630   5.441 -0.2410  0.4738  0.2401
14870TIP3    H266026   4.464   0.581   5.489  0.5633 -1.1146  0.9759
14871TIP3   OH266027   2.500   5.851  13.297 -0.4036 -0.4351  0.4230
14871TIP3    H166028   2.481   5.940  13.328  0.1483  0.5077 -1.7460
14871TIP3    H266029   2.437   5.836  13.227  0.3426 -1.2358 -0.1013
14872TIP3   OH266030   2.434   5.438   5.448 -0.0456 -0.2766  0.1890
14872TIP3    H166031   2.516   5.488   5.448  0.5959 -1.2322 -1.3362
14872TIP3    H266032   2.412   5.428   5.540  1.3671  0.3225  0.6218
14873TIP3   OH266033   5.730   6.397  14.145 -0.3374 -0.1422 -0.0231
14873TIP3    H166034   5.776   6.480  14.133 -0.2232  0.1988  2.3556
14873TIP3    H266035   5.796   6.338  14.181 -1.1685 -0.2780  1.3664
14874TIP3   OH266036   0.646   2.557   5.281 -0.0022 -0.5417 -0.7733
14874TIP3    H166037   0.556   2.544   5.311 -0.5464 -0.2905 -2.1884
14874TIP3    H266038   0.695   2.485   5.320 -0.8979 -0.8898 -0.2693
14875TIP3   OH266039   5.160   2.004   8.563  0.3686 -0.0904  0.2841
14875TIP3    H166040   5.146   1.977   8.654  0.9510  0.3642  0.5116
14875TIP3    H266041   5.227   2.072   8.568 -0.3954  0.7367 -0.3826
14876TIP3   OH266042   2.961   6.333   0.801  0.8773 -0.6943  0.0539
14876TIP3    H166043   2.991   6.326   0.711  0.8185 -0.4105  0.0103
14876TIP3    H266044   2.870   6.303   0.799  1.2442 -1.8584  0.2443
14877TIP3   OH266045   1.850   3.412  11.401  0.5272  0.4002 -0.2674
14877TIP3    H166046   1.867   3.491  11.452  1.2520 -0.3211  0.6434
14877TIP3    H266047   1.926   3.404  11.343  0.8227 -0.0303  0.1725
14878TIP3   OH266048   1.019   3.822  16.552 -0.1316 -0.5228 -1.0803
14878TIP3    H166049   0.977   3.778  16.478 -2.5894 -2.7546  1.3907
14878TIP3    H266050   0.961   3.896  16.572 -1.8546 -2.2502  0.8923
14879TIP3   OH266051   1.540   0.315   1.843 -0.0012  0.7192 -0.6050
14879TIP3    H166052   1.456   0.277   1.869  1.5247 -1.4350  1.6253
14879TIP3    H266053   1.517   0.398   1.801 -3.2712 -0.4109 -1.3206
14880TIP3   OH266054   5.156   5.396   0.016 -0.1494  0.0427  0.1377
14880TIP3    H166055   5.234   5.341   0.013 -1.0149 -1.2248 -0.1425
14880TIP3    H266056   5.083   5.335   0.002 -1.3928  0.7326  2.7846
14881TIP3   OH266057   2.010   4.059   4.018 -0.2157 -0.6993  0.9590
14881TIP3    H166058   2.030   3.995   4.086 -0.3768  0.1946  1.8696
14881TIP3    H266059   1.915   4.070   4.023 -0.3513 -1.2757 -0.0259
14882TIP3   OH266060   2.637   5.665   4.413  0.0776 -0.3223 -0.3371
14882TIP3    H166061   2.573   5.638   4.347 -2.0041  0.1653  1.3538
14882TIP3    H266062   2.584   5.708   4.481  2.3439  1.0356  0.6954
14883TIP3   OH266063   3.551   3.039  14.036  0.3988 -0.7886 -0.0274
14883TIP3    H166064   3.545   3.038  13.940 -0.9946 -2.4956  0.0317
14883TIP3    H266065   3.543   3.131  14.059 -2.0658 -0.5569 -1.4440
14884TIP3   OH266066   5.998   2.002   0.376 -0.2080  0.2728  0.2755
14884TIP3    H166067   6.083   1.964   0.352 -0.1888  1.2328 -1.3431
14884TIP3    H266068   5.953   1.933   0.425  1.5915 -0.1611  1.4066
14885TIP3   OH266069   5.988   4.128  16.470  0.3859  0.1112  0.3528
14885TIP3    H166070   6.021   4.042  16.494  1.2671  0.2308 -0.3848
14885TIP3    H266071   6.052   4.162  16.407 -0.9995  0.4508 -0.9423
14886TIP3   OH266072   3.418   6.018   3.279  0.0529 -0.5449  0.3585
14886TIP3    H166073   3.503   6.026   3.234 -0.0240 -0.2753  0.2626
14886TIP3    H266074   3.407   6.101   3.325 -0.0317 -0.6876  0.5933
14887TIP3   OH266075   5.565   6.023   1.799  0.1807 -0.2493  0.3561
14887TIP3    H166076   5.506   6.070   1.740  1.0542  0.7452  0.2418
14887TIP3    H266077   5.520   6.026   1.884  0.1506  0.6989  0.3189
14888TIP3   OH266078   4.378   4.734   2.814 -0.4262  0.4131 -1.1634
14888TIP3    H166079   4.408   4.680   2.888 -0.6507  2.2881  0.3833
14888TIP3    H266080   4.454   4.787   2.791 -0.9984  1.4937 -0.6741
14889TIP3   OH266081   2.057   0.132   6.549 -0.2258 -0.1166 -0.1946
14889TIP3    H166082   2.032   0.090   6.632 -1.0209  1.8556  0.6229
14889TIP3    H266083   1.978   0.130   6.496  0.4040 -1.7750 -1.1275
14890TIP3   OH266084   0.511   0.542  15.443 -0.3384 -0.0144  0.1560
14890TIP3    H166085   0.421   0.512  15.432 -1.0487  2.2942 -1.1296
14890TIP3    H266086   0.564   0.479  15.395 -1.4442 -0.6401 -0.2683
14891TIP3   OH266087   1.015   0.748  16.709 -0.3929  0.6452  0.3778
14891TIP3    H166088   1.063   0.817  16.663 -0.4793  1.2611  1.1836
14891TIP3    H266089   0.934   0.791  16.737 -1.1013 -0.1799 -0.3360
14892TIP3   OH266090   4.825   2.759   5.749 -0.7405  1.0188 -1.0579
14892TIP3    H166091   4.816   2.828   5.815 -0.3287  1.6679 -1.6709
14892TIP3    H266092   4.792   2.681   5.792  1.1709  1.0396  0.5778
14893TIP3   OH266093   6.465   0.536  14.007 -0.1210  0.6617  0.6043
14893TIP3    H166094   6.414   0.587  13.945  0.5494  0.0524 -0.4841
14893TIP3    H266095   6.481   0.453  13.962  1.2865  0.6045  1.1761
14894TIP3   OH266096   4.125   5.894   6.452 -0.1810 -0.4202  0.2749
14894TIP3    H166097   4.049   5.937   6.412 -0.8779 -1.9032 -0.0418
14894TIP3    H266098   4.187   5.883   6.381  0.1406  0.3240  0.4268
14895TIP3   OH266099   5.105   6.248   3.168 -0.3957 -0.1241 -0.3308
14895TIP3    H166100   5.099   6.323   3.228 -1.0735  0.8488 -1.5624
14895TIP3    H266101   5.113   6.287   3.081  2.0384 -1.4983 -0.8140
14896TIP3   OH266102   5.930   4.285  12.747 -0.0413  0.0880 -0.5405
14896TIP3    H166103   5.929   4.224  12.673  0.5081 -0.1806 -0.3289
14896TIP3    H266104   5.837   4.302  12.764 -0.1720  0.6782 -1.7137
14897TIP3   OH266105   0.296   3.073  15.150 -0.5936 -0.3070 -0.3670
14897TIP3    H166106   0.210   3.032  15.163 -0.7910  0.2140 -0.0279
14897TIP3    H266107   0.328   3.036  15.067 -0.9628 -0.8103 -0.2899
14898TIP3   OH266108   3.867   5.099  14.324 -0.0058  0.1251 -0.1853
14898TIP3    H166109   3.797   5.033  14.321  2.1185 -2.2803 -0.1140
14898TIP3    H266110   3.852   5.153  14.246 -1.2879 -1.0608 -0.8026
14899TIP3   OH266111   3.598   3.888   0.444 -0.3659 -0.9101 -0.3118
14899TIP3    H166112   3.617   3.800   0.477  1.3870 -0.7200 -0.7068
14899TIP3    H266113   3.659   3.945   0.491 -2.5505  0.3729  1.1198
14900TIP3   OH266114   0.262   6.636  13.314 -0.0538  0.1884 -0.0767
14900TIP3    H166115   0.268   6.678  13.228 -0.6008 -2.3827 -1.4519
14900TIP3    H266116   0.328   6.682  13.367  1.9207  0.3829 -2.5132
14901TIP3   OH266117   0.515   0.525   0.273  0.1463  0.0695 -0.3053
14901TIP3    H166118   0.520   0.516   0.368  0.5874 -0.2315 -0.3550
14901TIP3    H266119   0.421   0.526   0.254  0.0535 -0.7694  0.0517
14902TIP3   OH266120   2.757   0.599  14.018 -0.2738  0.1946 -0.2445
14902TIP3    H166121   2.696   0.672  14.012  0.8954  1.2688  0.3845
14902TIP3    H266122   2.802   0.611  14.102  2.5815  0.9744 -1.7364
14903TIP3   OH266123   0.224   1.189  15.482 -0.2376  0.2912 -0.4744
14903TIP3    H166124   0.218   1.093  15.476 -1.5479  0.3815 -0.7304
14903TIP3    H266125   0.317   1.207  15.464 -0.1051 -0.8779 -1.1131
14904TIP3   OH266126   2.314   5.638  16.421 -0.1738  0.4582 -0.3598
14904TIP3    H166127   2.233   5.688  16.416  0.7268  1.9729 -0.4934
14904TIP3    H266128   2.358   5.654  16.337  0.6539  0.3634  0.0426
14905TIP3   OH266129   1.411   0.464  12.168  0.3169 -0.0472 -0.6152
14905TIP3    H166130   1.356   0.543  12.174 -0.3274 -0.5701  1.1524
14905TIP3    H266131   1.386   0.424  12.085 -0.3777  0.8868 -0.8795
14906TIP3   OH266132   2.260   5.985  13.107  0.0755 -0.1089  0.1908
14906TIP3    H166133   2.178   5.947  13.074  1.2580 -0.5962 -2.4511
14906TIP3    H266134   2.318   5.910  13.120  0.3065  0.2782  1.5178
14907TIP3   OH266135   6.164   4.312   2.532  0.1403 -0.1770 -0.3226
14907TIP3    H166136   6.144   4.271   2.616  1.1117  0.5177  0.2669
14907TIP3    H266137   6.142   4.245   2.467  2.1333 -1.8764  0.6140
14908TIP3   OH266138   2.770   3.810  11.320  0.0165  0.4824 -0.1342
14908TIP3    H166139   2.730   3.790  11.404 -0.1284 -2.1018 -0.7447
14908TIP3    H266140   2.759   3.904  11.310 -2.6401  0.4208  1.3743
14909TIP3   OH266141   4.012   1.405  14.724 -0.1509 -0.4301  0.0170
14909TIP3    H166142   4.060   1.322  14.727 -0.6173 -0.7064 -0.0680
14909TIP3    H266143   4.067   1.466  14.772  0.7933 -0.4850 -0.9395
14910TIP3   OH266144   2.960   0.227  16.676  0.3432  0.7460 -0.4061
14910TIP3    H166145   2.966   0.149  16.622  0.2260 -0.2863  1.0166
14910TIP3    H266146   2.900   0.204  16.746  1.4923  1.5702  0.9077
14911TIP3   OH266147   3.068   2.557   5.647 -0.6920  0.3739  0.1354
14911TIP3    H166148   3.146   2.610   5.629 -1.4666  1.4981 -0.0457
14911TIP3    H266149   3.073   2.486   5.583  0.0201  0.6127 -0.0918
14912TIP3   OH266150   3.308   0.891   3.550  0.2655  0.8240  0.4290
14912TIP3    H166151   3.253   0.846   3.615 -0.7973  1.8617  0.2803
14912TIP3    H266152   3.256   0.889   3.470  0.7508  1.2218  0.1027
14913TIP3   OH266153   5.056   6.414   4.878 -0.3871  0.3591 -0.4208
14913TIP3    H166154   5.086   6.499   4.846  1.0586  0.1233  0.2482
14913TIP3    H266155   5.093   6.406   4.966 -0.2600 -1.0864 -0.5753
14914TIP3   OH266156   0.176   3.904  14.589 -0.0323 -0.3685 -0.1193
14914TIP3    H166157   0.238   3.948  14.648 -0.5504 -1.3124  1.1969
14914TIP3    H266158   0.213   3.817  14.578 -0.9732 -0.8581  0.4832
14915TIP3   OH266159   3.037   5.373  17.073 -0.4427  0.1786 -0.5045
14915TIP3    H166160   3.105   5.356  17.137  1.3428  2.2479 -1.7038
14915TIP3    H266161   3.028   5.291  17.024  0.4276 -0.4364  0.3498
14916TIP3   OH266162   5.237   1.685  12.541 -0.1214 -0.1891  0.4704
14916TIP3    H166163   5.310   1.661  12.485 -0.2785 -1.5049  0.8048
14916TIP3    H266164   5.189   1.604  12.555  0.5615 -0.1862  3.4725
14917TIP3   OH266165   1.034   0.958   3.092  0.2515  0.2080  0.1034
14917TIP3    H166166   1.071   1.009   3.020  0.9504  0.7424  0.8191
14917TIP3    H266167   1.054   1.009   3.170  1.3140 -1.3314  0.8900
14918TIP3   OH266168   3.020   2.635  15.991 -0.3316 -0.1291 -0.4361
14918TIP3    H166169   2.933   2.614  15.958 -0.4290 -1.6047  0.6693
14918TIP3    H266170   3.077   2.629  15.913 -0.8722 -1.4648 -0.7531
14919TIP3   OH266171   5.377   5.004  11.900 -0.0295 -0.0653  0.1300
14919TIP3    H166172   5.315   5.069  11.868  0.9308  0.1452 -1.4267
14919TIP3    H266173   5.410   5.039  11.983 -1.6872 -0.0241  0.8099
14920TIP3   OH266174   5.225   0.879   4.683  0.2272  0.4763  0.0829
14920TIP3    H166175   5.145   0.828   4.676  0.2845  0.4349 -0.2580
14920TIP3    H266176   5.262   0.853   4.767 -0.3294  0.8058  0.4372
14921TIP3   OH266177   3.924   5.264   3.734 -0.4587 -0.1814  0.5684
14921TIP3    H166178   3.912   5.328   3.664  0.7147  1.5311  1.8603
14921TIP3    H266179   3.985   5.200   3.698 -0.5894  0.1562 -0.2752
14922TIP3   OH266180   6.469   6.151  14.221  0.3752 -0.1832 -0.1919
14922TIP3    H166181   6.484   6.241  14.249  1.7354 -0.8074  1.2868
14922TIP3    H266182   6.382   6.130  14.254  0.7123  0.0937  0.9253
14923TIP3   OH266183   2.898   4.053  11.128  0.1457  0.5228 -0.9194
14923TIP3    H166184   2.944   4.105  11.061  0.0143 -0.3692 -1.7244
14923TIP3    H266185   2.875   3.971  11.083 -1.3702  0.5496 -0.2549
14924TIP3   OH266186   2.556   0.462  12.169 -0.1621 -0.4022 -0.0180
14924TIP3    H166187   2.633   0.481  12.114  0.1212 -2.9095 -0.6566
14924TIP3    H266188   2.585   0.390  12.225 -1.9695 -1.2582 -0.1168
14925TIP3   OH266189   1.409   0.659  14.766 -0.3291 -0.1651  0.1635
14925TIP3    H166190   1.330   0.605  14.757 -1.4941  1.5710 -0.5890
14925TIP3    H266191   1.465   0.631  14.693  1.0030 -3.2225  2.1575
14926TIP3   OH266192   2.383   4.266  16.075  0.9104 -0.0745  0.0715
14926TIP3    H166193   2.313   4.296  16.132 -1.1371 -0.8596 -1.8934
14926TIP3    H266194   2.371   4.171  16.070  1.3612 -0.0791 -1.2199
14927TIP3   OH266195   2.352   3.092  13.819 -0.5052 -0.2117 -0.7048
14927TIP3    H166196   2.431   3.146  13.829 -0.1155 -0.6273 -1.4635
14927TIP3    H266197   2.281   3.148  13.851  0.0934  0.1672 -0.0035
14928TIP3   OH266198   4.229   6.761  13.967  0.1011 -0.6977  0.1594
14928TIP3    H166199   4.215   6.856  13.968 -1.2352 -0.7783 -2.1273
14928TIP3    H266200   4.318   6.751  13.935 -0.6903 -0.1031 -2.5884
14929TIP3   OH266201   6.297   4.214   1.001  0.4410  0.1974 -0.1977
14929TIP3    H166202   6.343   4.145   1.050 -0.0268 -0.1742 -0.2768
14929TIP3    H266203   6.287   4.285   1.065 -2.5437 -1.2754  1.1575
14930TIP3   OH266204   1.831   3.475  14.677 -0.0343  0.4465 -0.6039
14930TIP3    H166205   1.803   3.418  14.749  1.6111 -0.4132 -0.6044
14930TIP3    H266206   1.892   3.537  14.717  1.0501 -0.1613 -1.2662
14931TIP3   OH266207   4.682   6.604   3.777  0.5611  0.3700 -0.2415
14931TIP3    H166208   4.749   6.570   3.836  0.7621 -2.2822 -1.8302
14931TIP3    H266209   4.670   6.695   3.804  2.2713 -0.0618  2.3346
14932TIP3   OH266210   1.250   1.071  13.893 -0.1770 -0.5815  0.3376
14932TIP3    H166211   1.192   1.147  13.887  0.8177  0.1364 -0.2773
14932TIP3    H266212   1.199   1.007  13.944 -0.8189  0.6778  1.3363
14933TIP3   OH266213   3.608   5.860   5.783 -0.5173  0.4672  0.2239
14933TIP3    H166214   3.592   5.892   5.872  0.6116  0.4694  0.4506
14933TIP3    H266215   3.554   5.781   5.775 -0.5377  0.4029  0.9562
14934TIP3   OH266216   1.234   3.907   2.290  0.2776 -0.2382  0.6269
14934TIP3    H166217   1.201   3.996   2.305 -2.2465 -1.1995  1.1881
14934TIP3    H266218   1.228   3.895   2.195  0.3690  0.0946  0.5773
14935TIP3   OH266219   6.275   0.296   4.236 -0.9128 -0.5724  0.0783
14935TIP3    H166220   6.286   0.391   4.231 -3.0182 -0.2609  0.3279
14935TIP3    H266221   6.326   0.262   4.163 -0.7526  0.8183 -0.4882
14936TIP3   OH266222   4.037   1.632   2.240 -0.4803 -0.0938 -0.4617
14936TIP3    H166223   4.073   1.607   2.325 -0.5472  0.3712 -0.2935
14936TIP3    H266224   4.103   1.603   2.177 -0.7645 -1.0993 -0.3140
14937TIP3   OH266225   4.204   0.033  16.577 -0.0383  0.2282  0.3711
14937TIP3    H166226   4.128  -0.025  16.570  1.2303 -1.4116 -0.7205
14937TIP3    H266227   4.200   0.088  16.500  1.0382 -1.4258 -0.9397
14938TIP3   OH266228   6.594   3.257   1.408  0.1565  0.0108  0.8001
14938TIP3    H166229   6.565   3.168   1.386  0.8865 -0.4489  1.6473
14938TIP3    H266230   6.668   3.244   1.467  0.6813  1.1812  0.4240
14939TIP3   OH266231   1.924   4.922   3.521  0.5197 -0.1675  0.1009
14939TIP3    H166232   1.912   4.850   3.582 -1.4379  0.3796  0.4300
14939TIP3    H266233   1.835   4.946   3.495  1.1744  1.5144 -0.7209
14940TIP3   OH266234   5.381   6.074   3.665  0.0027 -0.3027  0.2853
14940TIP3    H166235   5.409   6.147   3.720 -2.5101  0.3376  0.8338
14940TIP3    H266236   5.403   5.996   3.715  0.9741  0.1233  0.5519
14941TIP3   OH266237   0.103   4.272  12.871 -0.4243  0.0063 -0.1757
14941TIP3    H166238   0.159   4.222  12.812 -0.0425  0.4035 -0.1561
14941TIP3    H266239   0.081   4.211  12.942 -0.3024 -0.2538 -0.3599
14942TIP3   OH266240   6.389   1.962   6.267 -0.3832  0.5786 -0.0676
14942TIP3    H166241   6.392   2.031   6.200  0.9599  0.4432 -0.1736
14942TIP3    H266242   6.387   2.009   6.350  0.2550  0.7547 -0.1465
14943TIP3   OH266243   6.386   1.338   2.674  0.6802 -0.5278 -0.0377
14943TIP3    H166244   6.459   1.277   2.679  1.3972  0.2953 -0.1889
14943TIP3    H266245   6.418   1.418   2.717  0.7519  0.6734 -2.1896
14944TIP3   OH266246   5.081   3.503   4.849  0.2301  0.1784  0.1697
14944TIP3    H166247   5.132   3.493   4.769  2.1466  3.0270  0.8529
14944TIP3    H266248   5.071   3.414   4.882  0.4680 -0.9510 -2.5472
14945TIP3   OH266249   3.379   0.242  14.946 -0.0470 -0.0655  0.0331
14945TIP3    H166250   3.430   0.196  15.012 -0.0412  0.1615  0.1860
14945TIP3    H266251   3.411   0.207  14.863  1.3266  1.0567  0.0534
14946TIP3   OH266252   4.547   3.415   0.896  0.2661 -0.4823 -1.3153
14946TIP3    H166253   4.607   3.356   0.943 -0.6218 -0.0475  0.4836
14946TIP3    H266254   4.469   3.417   0.952 -1.1901 -0.5446 -3.2667
14947TIP3   OH266255   2.614   4.671  14.743 -0.0192  0.2195 -0.2578
14947TIP3    H166256   2.656   4.746  14.701  3.0246 -0.7105  0.8531
14947TIP3    H266257   2.639   4.678  14.835  1.3887 -2.7050 -0.3067
14948TIP3   OH266258   2.562   2.477  12.764  0.1661  0.1676  0.0945
14948TIP3    H166259   2.575   2.383  12.777 -0.9968 -0.2067 -1.3213
14948TIP3    H266260   2.647   2.509  12.733  0.6325 -0.3541  0.8092
14949TIP3   OH266261   3.037   6.800  14.435 -0.0604  0.0995  0.0448
14949TIP3    H166262   3.082   6.771  14.514  0.1943  0.8749  0.1990
14949TIP3    H266263   2.964   6.739  14.426 -0.8986  0.7885  1.6526
14950TIP3   OH266264   3.825   2.232   3.934  0.2306  0.6083 -0.0526
14950TIP3    H166265   3.878   2.293   3.985  0.3567  0.2409  0.2580
14950TIP3    H266266   3.872   2.149   3.938  0.0735  0.4906 -0.4943
14951TIP3   OH266267   0.705   1.957  13.143  0.5365  0.1711  0.5333
14951TIP3    H166268   0.769   2.019  13.177 -0.3899 -0.2413  3.2817
14951TIP3    H266269   0.757   1.893  13.094  1.8359  1.4350  0.2142
14952TIP3   OH266270   0.694   0.925   3.463 -0.0933  0.7177  0.3557
14952TIP3    H166271   0.612   0.878   3.451 -0.2243  0.4625  2.0423
14952TIP3    H266272   0.671   1.017   3.449 -0.8157  0.7121  1.4359
14953TIP3   OH266273   2.555   1.226  16.565  0.7544 -0.6217 -0.1243
14953TIP3    H166274   2.607   1.249  16.641 -0.0525  0.4180  0.1422
14953TIP3    H266275   2.472   1.195  16.601  0.2840  0.0926 -0.5600
14954TIP3   OH266276   2.206   3.343  16.911 -0.3574  0.2391  0.3678
14954TIP3    H166277   2.205   3.439  16.905 -0.7480  0.3059  1.3812
14954TIP3    H266278   2.297   3.319  16.891 -0.2591  0.8182  0.0988
14955TIP3   OH266279   3.605   0.626  10.334 -0.4101  0.0738  0.1734
14955TIP3    H166280   3.625   0.580  10.415  0.2550  0.9376  0.5128
14955TIP3    H266281   3.518   0.664  10.350  0.9386  2.8677  1.7664
14956TIP3   OH266282   6.729   0.411  11.247 -0.9491 -0.0811  0.3115
14956TIP3    H166283   6.689   0.469  11.311 -0.0673 -0.7528  1.5109
14956TIP3    H266284   6.787   0.468  11.196 -1.4333  0.4065  0.3047
14957TIP3   OH266285   4.563   2.102   1.713 -0.2716  0.2733 -0.0914
14957TIP3    H166286   4.483   2.058   1.740 -0.2887 -0.6586 -1.5235
14957TIP3    H266287   4.621   2.095   1.788 -1.7971  1.7654  1.3100
14958TIP3   OH266288   0.419   3.499   5.557 -0.0597  0.6629  0.1658
14958TIP3    H166289   0.361   3.492   5.633  3.1343  0.6939  2.8118
14958TIP3    H266290   0.475   3.574   5.577  1.0460  0.5207 -2.1521
14959TIP3   OH266291   2.582   0.092   1.730 -0.0120  0.0695  0.3238
14959TIP3    H166292   2.633   0.014   1.750  0.0720 -0.0345 -0.2724
14959TIP3    H266293   2.546   0.120   1.814 -0.0020 -0.5795  0.5467
14960TIP3   OH266294   3.737   4.488  16.037  0.4524 -0.2883  0.4157
14960TIP3    H166295   3.696   4.549  16.099  1.4437  0.2584  0.5619
14960TIP3    H266296   3.670   4.422  16.020 -0.3584  0.3878  0.9065
14961TIP3   OH266297   1.426   0.890  13.775 -0.3118  0.0427 -0.4157
14961TIP3    H166298   1.368   0.949  13.824  0.2552 -1.5251  2.3534
14961TIP3    H266299   1.372   0.812  13.759  0.9053 -1.5203  2.3783
14962TIP3   OH266300   0.373   3.355   4.386 -0.3431 -0.1668 -0.1337
14962TIP3    H166301   0.377   3.279   4.328  0.4241 -0.5943  0.4588
14962TIP3    H266302   0.386   3.430   4.329 -0.3029 -0.5325 -0.6120
14963TIP3   OH266303   3.265   2.628   0.669 -0.0034  0.3525  0.2156
14963TIP3    H166304   3.299   2.673   0.746  0.0724  2.2947 -0.8919
14963TIP3    H266305   3.180   2.669   0.652  1.0891  1.9192 -2.1966
14964TIP3   OH266306   5.587   0.797   3.288  0.4814  0.1105 -0.2769
14964TIP3    H166307   5.575   0.830   3.199  0.6781 -0.0800 -0.3736
14964TIP3    H266308   5.660   0.849   3.322 -1.1937  1.9939  0.6636
14965TIP3   OH266309   5.606   2.499   3.373 -0.2165 -0.2888  0.3341
14965TIP3    H166310   5.567   2.547   3.446  0.2279  0.4013  0.1256
14965TIP3    H266311   5.699   2.493   3.395 -0.3501 -1.5599  0.6303
14966TIP3   OH266312   4.573   1.481  16.253  0.1312 -0.0044  0.2560
14966TIP3    H166313   4.567   1.535  16.332  0.5601  0.3055  0.0756
14966TIP3    H266314   4.666   1.475  16.235  0.0144  0.2476 -0.4502
14967TIP3   OH266315   1.933   4.353  11.997  0.3502 -0.3409  0.2219
14967TIP3    H166316   2.003   4.415  11.974  1.9477 -2.2470 -0.2942
14967TIP3    H266317   1.977   4.283  12.044 -1.5151 -0.8166  1.3433
14968TIP3   OH266318   2.981   5.492   5.767  0.2471 -0.5644  0.1212
14968TIP3    H166319   3.071   5.492   5.801 -0.2478 -1.7081  1.5753
14968TIP3    H266320   2.991   5.499   5.673  1.8132  0.4805  0.3276
14969TIP3   OH266321   3.331   6.058  13.080 -0.5756 -0.1415 -0.6611
14969TIP3    H166322   3.329   6.152  13.063  0.5585  0.0261  0.0298
14969TIP3    H266323   3.350   6.050  13.173  0.4931 -1.0505 -0.9251
14970TIP3   OH266324   1.372   2.426  15.237  0.3835  0.5011 -0.0063
14970TIP3    H166325   1.448   2.371  15.252 -0.3070 -0.8839 -1.3988
14970TIP3    H266326   1.394   2.479  15.160 -0.1060 -0.0298 -0.5228
14971TIP3   OH266327   5.907   0.671  14.374 -0.3734  0.0676 -0.5603
14971TIP3    H166328   5.983   0.631  14.331 -0.1195  0.3407 -0.3728
14971TIP3    H266329   5.844   0.600  14.383  0.5080 -0.5948  0.8272
14972TIP3   OH266330   5.715   3.012   1.974 -0.0340  0.3967 -0.2093
14972TIP3    H166331   5.743   2.987   1.885 -1.2322  2.2774 -1.1834
14972TIP3    H266332   5.689   3.104   1.966  2.3307  1.4918  2.7000
14973TIP3   OH266333   1.803   4.806  14.002  0.3836  0.5190 -0.2977
14973TIP3    H166334   1.878   4.749  13.986 -0.3973 -0.7660  0.5060
14973TIP3    H266335   1.745   4.792  13.927  0.7108  1.1490 -0.6770
14974TIP3   OH266336   1.091   1.199  17.020 -0.0711 -0.1089 -0.0073
14974TIP3    H166337   1.008   1.152  17.028 -0.2189  0.3423  1.4110
14974TIP3    H266338   1.158   1.131  17.021 -0.3435 -0.3825  0.9148
14975TIP3   OH266339   5.327   5.191   6.746  0.0727 -0.1094 -0.3286
14975TIP3    H166340   5.275   5.268   6.770 -0.6863 -0.8393  0.4260
14975TIP3    H266341   5.414   5.210   6.783 -0.1799  0.2598  0.0911
14976TIP3   OH266342   6.037   6.472  16.153  0.8467 -0.8642  0.4234
14976TIP3    H166343   6.032   6.395  16.209 -0.4543  0.1832  1.8196
14976TIP3    H266344   6.090   6.534  16.203 -1.3879  0.5528  1.1506
14977TIP3   OH266345   4.241   6.059  16.126 -0.0521  0.5918  0.2099
14977TIP3    H166346   4.318   6.116  16.123  0.0033  0.4818 -0.8098
14977TIP3    H266347   4.270   5.981  16.173  0.8446  0.0265 -1.2085
14978TIP3   OH266348   5.577   3.432   3.778  0.3910  0.1208 -0.0267
14978TIP3    H166349   5.580   3.385   3.695 -2.6321  0.7350 -0.6080
14978TIP3    H266350   5.626   3.377   3.839 -0.3533 -2.1990 -1.4050
14979TIP3   OH266351   4.702   3.189  11.474  0.2282  0.1715 -0.8148
14979TIP3    H166352   4.679   3.107  11.517  1.4485  0.3401  0.2239
14979TIP3    H266353   4.620   3.221  11.437 -0.5407 -0.7974  0.0064
14980TIP3   OH266354   5.015   2.598  11.387 -0.6101 -0.4319  0.3768
14980TIP3    H166355   4.930   2.635  11.407 -1.2152 -2.1124  1.1225
14980TIP3    H266356   5.049   2.568  11.472  2.4142  3.3771  0.7642
14981TIP3   OH266357   4.559   0.337   4.838 -0.1477 -0.3655 -0.1935
14981TIP3    H166358   4.591   0.270   4.898  0.1810  0.3740  0.4650
14981TIP3    H266359   4.606   0.416   4.863 -0.7284  0.1760 -0.7927
14982TIP3   OH266360   3.277   1.318  11.525 -0.0807  0.0901  0.2213
14982TIP3    H166361   3.182   1.323  11.512 -0.3488  1.3750  2.1447
14982TIP3    H266362   3.297   1.225  11.524 -1.1748 -0.1767 -1.1560
14983TIP3   OH266363   0.180   6.679   3.843  0.7620  0.1613 -0.5322
14983TIP3    H166364   0.249   6.703   3.905  1.1359 -1.4407 -0.2768
14983TIP3    H266365   0.202   6.590   3.817  1.0712  1.0125 -3.5888
14984TIP3   OH266366   2.763   3.114   2.781 -0.4169 -0.7027 -0.3767
14984TIP3    H166367   2.846   3.072   2.759  0.0580 -0.3356  0.6226
14984TIP3    H266368   2.716   3.049   2.834 -0.0816 -0.3458  0.3793
14985TIP3   OH266369   3.316   0.436  11.299 -0.3749  0.1959  0.2901
14985TIP3    H166370   3.378   0.372  11.334  1.5996  0.1881 -2.8035
14985TIP3    H266371   3.367   0.516  11.289 -1.3530  0.7240 -0.7142
14986TIP3   OH266372   2.385   2.456  14.679  0.3499 -0.3003  0.3165
14986TIP3    H166373   2.416   2.544  14.656  0.2631  0.2616  2.1547
14986TIP3    H266374   2.458   2.398  14.660  0.1327 -0.0039 -1.7075
14987TIP3   OH266375   3.746   2.308   1.443 -0.0295  0.0715  0.0249
14987TIP3    H166376   3.684   2.304   1.516 -0.5676 -1.3579 -0.4707
14987TIP3    H266377   3.831   2.294   1.483 -0.3573 -1.0739  0.3673
14988TIP3   OH266378   1.951   3.125   3.126  0.1120 -0.3091  0.3529
14988TIP3    H166379   1.951   3.188   3.198 -0.9178 -0.3807  0.4357
14988TIP3    H266380   1.879   3.153   3.069  1.5863  0.3842 -1.2457
14989TIP3   OH266381   1.471   0.085   5.867  1.2168  0.2563 -0.4502
14989TIP3    H166382   1.520   0.161   5.834  1.0407  0.8813  0.6820
14989TIP3    H266383   1.525   0.052   5.939 -0.0860  1.0838  0.9625
14990TIP3   OH266384   5.265   3.663  13.126  0.2049  0.3334 -0.1578
14990TIP3    H166385   5.350   3.671  13.083  1.0743  0.9857  1.5895
14990TIP3    H266386   5.274   3.588  13.184 -0.0079  1.0983  0.8932
14991TIP3   OH266387   2.330   3.721  10.662 -0.8655  0.0466  0.4365
14991TIP3    H166388   2.309   3.671  10.583 -0.5913 -1.1521  1.0864
14991TIP3    H266389   2.369   3.656  10.721  0.4314  1.2481  0.9633
14992TIP3   OH266390   1.663   1.058  11.987  0.0973  0.2310 -0.4881
14992TIP3    H166391   1.633   1.141  12.025  1.3300  1.1391 -1.3942
14992TIP3    H266392   1.711   1.015  12.057 -1.3223 -0.1783  0.2727
14993TIP3   OH266393   6.699   1.064   5.435  0.6194  0.0325 -0.2932
14993TIP3    H166394   6.620   1.095   5.478  1.1061 -0.0681  0.6871
14993TIP3    H266395   6.751   1.143   5.421  0.4395  0.0721 -0.7570
14994TIP3   OH266396   6.235   4.198  10.438 -0.1539  0.3697 -0.5107
14994TIP3    H166397   6.262   4.261  10.370 -1.1845  1.0714 -0.2804
14994TIP3    H266398   6.261   4.239  10.520  1.6903 -0.7718 -0.4632
14995TIP3   OH266399   0.217   0.459   1.382  0.0547 -0.5381 -0.3884
14995TIP3    H166400   0.208   0.365   1.393  1.3418 -0.5461  0.8237
14995TIP3    H266401   0.142   0.496   1.430  0.1551 -0.9099  0.0550
14996TIP3   OH266402   5.946   4.251   3.482  0.1515  0.3532 -0.3069
14996TIP3    H166403   6.018   4.262   3.545  1.2601  2.6157 -1.8385
14996TIP3    H266404   5.871   4.292   3.525  0.0954 -0.7120  0.6866
14997TIP3   OH266405   4.176   1.959   4.006  0.6017  0.3296  0.3249
14997TIP3    H166406   4.226   1.877   4.012  0.4910  0.2130 -0.2526
14997TIP3    H266407   4.242   2.025   3.987  0.8269  0.5489  1.7522
14998TIP3   OH266408   1.773   3.780   0.998 -0.0941  0.2332 -0.0857
14998TIP3    H166409   1.803   3.692   1.024 -2.0984 -0.7126 -0.7396
14998TIP3    H266410   1.686   3.787   1.037 -0.5986  1.3036 -1.3367
14999TIP3   OH266411   1.615   4.637   3.792 -0.0952 -0.2703  0.5980
14999TIP3    H166412   1.530   4.679   3.776  0.7487  1.1588 -0.2774
14999TIP3    H266413   1.598   4.578   3.865 -1.7975  0.1337  0.5838
15000TIP3   OH266414   3.079   3.396  16.132  0.2068  0.8466 -0.1663
15000TIP3    H166415   3.118   3.353  16.208 -0.0483  0.2126 -0.3815
15000TIP3    H266416   3.072   3.326  16.067 -1.9740  0.7495  0.1151
15001TIP3   OH266417   2.854   6.495  11.611 -0.0456 -0.5900 -0.6378
15001TIP3    H166418   2.943   6.464  11.596 -0.6891 -2.7118 -0.4679
15001TIP3    H266419   2.822   6.521  11.525  0.1525 -1.5510 -1.0098
15002TIP3   OH266420   4.783   4.830   5.233  0.3927  0.2132  0.4077
15002TIP3    H166421   4.741   4.866   5.311  0.0568  0.9426 -0.0872
15002TIP3    H266422   4.870   4.871   5.231 -0.1971  1.5056 -0.4633
15003TIP3   OH266423   5.506   1.789  16.422  0.0747 -0.6463 -0.2305
15003TIP3    H166424   5.598   1.778  16.399  0.6209  0.3789  1.3184
15003TIP3    H266425   5.466   1.831  16.346  0.8058 -1.3647 -1.0230
15004TIP3   OH266426   3.125   5.219  12.881  0.7030 -0.0522  0.2787
15004TIP3    H166427   3.112   5.272  12.802  2.2608  0.3391  0.2362
15004TIP3    H266428   3.102   5.130  12.855 -1.6257  0.5100  0.2483
15005TIP3   OH266429   2.957   2.255   2.505 -0.3221 -0.2343 -0.5258
15005TIP3    H166430   2.920   2.336   2.539 -2.5953 -1.5670  0.3499
15005TIP3    H266431   2.974   2.201   2.582  0.4462 -0.9102 -1.1420
15006TIP3   OH266432   5.104   0.081  11.011  0.4312  0.3811 -0.1818
15006TIP3    H166433   5.188   0.128  11.003  0.1437  0.8711 -0.3371
15006TIP3    H266434   5.057   0.102  10.931 -0.3392  1.1101  0.4377
15007TIP3   OH266435   1.648   0.561  13.338  0.3922 -0.1138 -0.0592
15007TIP3    H166436   1.651   0.652  13.306  3.7984  0.3512  1.1825
15007TIP3    H266437   1.624   0.568  13.430 -1.5431 -0.7573 -0.4635
15008TIP3   OH266438   1.527   5.890   1.928  0.0690  0.0816 -0.0844
15008TIP3    H166439   1.561   5.808   1.962  0.0629 -0.5020 -1.4121
15008TIP3    H266440   1.450   5.864   1.877  0.1217  0.8927 -0.5917
15009TIP3   OH266441   5.158   1.110   3.189  0.0307  0.3171  0.1163
15009TIP3    H166442   5.193   1.070   3.269 -2.5643  0.3823  1.3817
15009TIP3    H266443   5.147   1.037   3.128  3.2693  0.4350 -0.8222
15010TIP3   OH266444   2.025   4.117  14.586 -0.1130 -0.5139  0.8726
15010TIP3    H166445   2.111   4.094  14.621  0.7394 -0.1483 -0.8879
15010TIP3    H266446   2.008   4.052  14.518  0.0605  1.0446 -0.7137
15011TIP3   OH266447   3.874   2.250   0.726 -0.2157  0.3221  0.3523
15011TIP3    H166448   3.782   2.222   0.726 -0.6815  1.7332  0.1432
15011TIP3    H266449   3.874   2.328   0.670  1.5225 -0.8935 -1.4372
15012TIP3   OH266450   0.923   1.874   5.696 -1.0240  0.2205 -0.3412
15012TIP3    H166451   0.858   1.804   5.694 -1.1244  0.3058 -0.1565
15012TIP3    H266452   0.884   1.940   5.753 -0.6335  0.1274  0.0374
15013TIP3   OH266453   5.127   2.438   4.156 -0.3325 -0.3330 -0.3405
15013TIP3    H166454   5.146   2.465   4.246  1.0963 -0.2341 -0.6410
15013TIP3    H266455   5.031   2.435   4.151 -0.4301 -1.1403  1.4060
15014TIP3   OH266456   2.774   5.244   5.719  0.0473 -0.1012 -0.6724
15014TIP3    H166457   2.810   5.227   5.806 -0.1827  0.8438 -0.3892
15014TIP3    H266458   2.805   5.331   5.696 -2.0127  0.7800 -0.4072
15015TIP3   OH266459   0.059   4.664  14.739  0.1811  0.0022  0.0774
15015TIP3    H166460   0.149   4.695  14.724  0.5961 -0.0846  2.0349
15015TIP3    H266461   0.017   4.670  14.654  1.8982  0.5446 -0.7872
15016TIP3   OH266462   1.071   2.792  16.504  0.2206  0.2363  0.3986
15016TIP3    H166463   1.079   2.847  16.426  1.2828 -1.4627 -0.7805
15016TIP3    H266464   1.152   2.740  16.504 -0.9452 -1.6645  1.1338
15017TIP3   OH266465   6.275   4.042  15.491  0.1054  0.2292 -0.0162
15017TIP3    H166466   6.344   3.975  15.489  0.3998  0.5281 -2.3078
15017TIP3    H266467   6.219   4.016  15.564  0.1847 -2.5763 -0.8419
15018TIP3   OH266468   2.100   3.275  11.576  0.5228 -0.1338 -0.3513
15018TIP3    H166469   2.024   3.304  11.525  1.6190  3.0657 -0.3268
15018TIP3    H266470   2.062   3.230  11.652 -1.3010  0.5176 -0.8350
15019TIP3   OH266471   5.424   3.879   3.092  0.7730 -0.4904 -0.4885
15019TIP3    H166472   5.461   3.841   3.012 -0.8965 -2.9856 -0.1943
15019TIP3    H266473   5.488   3.945   3.119  1.8332 -0.2094 -3.3563
15020TIP3   OH266474   4.850   5.053   3.596 -0.8241 -0.6614  0.4489
15020TIP3    H166475   4.868   4.996   3.672 -0.4158 -1.2300 -0.0669
15020TIP3    H266476   4.923   5.114   3.594 -1.5503  0.2839  1.3468
15021TIP3   OH266477   2.240   4.038  14.736  0.2832 -0.3691  0.3942
15021TIP3    H166478   2.184   4.046  14.814  1.0316  0.4851  0.8676
15021TIP3    H266479   2.315   4.094  14.755  1.0792 -1.1260 -0.4343
15022TIP3   OH266480   1.468   0.331  11.701  0.0989  0.5224 -0.0725
15022TIP3    H166481   1.553   0.375  11.699 -0.0191  0.7456 -0.2506
15022TIP3    H266482   1.431   0.348  11.614  0.1214 -0.0659 -0.1962
15023TIP3   OH266483   6.517   3.579   4.596 -1.0962  0.2023 -0.1796
15023TIP3    H166484   6.525   3.515   4.525  1.5114 -0.5409  0.6673
15023TIP3    H266485   6.468   3.533   4.664  0.2216 -0.7527  0.1763
15024TIP3   OH266486   1.282   2.632  10.896  0.4640 -0.1342  0.2919
15024TIP3    H166487   1.315   2.637  10.986  1.1599 -0.0311  0.0315
15024TIP3    H266488   1.352   2.589  10.847  0.4899  0.6723 -0.3971
15025TIP3   OH266489   2.717   1.156  12.372 -0.0062  0.6076 -0.1910
15025TIP3    H166490   2.638   1.192  12.332 -0.3400  0.9799  0.7798
15025TIP3    H266491   2.694   1.066  12.395 -1.0095  1.4165  2.2998
15026TIP3   OH266492   3.306   2.735  11.280 -0.2113 -0.8516  0.0467
15026TIP3    H166493   3.211   2.720  11.282  0.1472 -3.4670  0.8181
15026TIP3    H266494   3.329   2.730  11.187 -0.8356  0.1461 -0.1827
15027TIP3   OH266495   4.531   3.660   4.141 -0.2986 -0.2240 -0.1304
15027TIP3    H166496   4.459   3.602   4.168  1.3740 -1.3863  2.3011
15027TIP3    H266497   4.521   3.737   4.197  0.0803 -0.2108 -0.0794
15028TIP3   OH266498   3.315   3.311  14.415  0.2895  0.0839  0.0750
15028TIP3    H166499   3.370   3.337  14.340  0.2563  1.0535  0.3835
15028TIP3    H266500   3.341   3.220  14.432  0.0798 -0.2656 -1.3053
15029TIP3   OH266501   2.862   5.884  14.845  0.4764 -0.1657  0.3012
15029TIP3    H166502   2.819   5.897  14.930  0.1146  1.0428 -0.0489
15029TIP3    H266503   2.803   5.926  14.782  0.5701 -1.3321 -0.6076
15030TIP3   OH266504   1.921   4.429   0.397  0.1038 -0.4244  0.6888
15030TIP3    H166505   1.910   4.497   0.463  2.8929  1.2469 -0.3988
15030TIP3    H266506   1.971   4.360   0.442  1.5915  0.5020  0.5146
15031TIP3   OH266507   5.916   1.263  11.871  0.5972  0.7154 -0.0604
15031TIP3    H166508   5.846   1.325  11.849  0.8560  1.5143  1.2786
15031TIP3    H266509   5.954   1.239  11.786 -0.6133  1.0699 -0.7268
15032TIP3   OH266510   2.214   2.616  16.785 -0.5899 -0.0781 -0.1405
15032TIP3    H166511   2.249   2.693  16.828 -0.0135 -0.0483 -0.6543
15032TIP3    H266512   2.186   2.647  16.699 -0.8779 -0.3260 -0.1380
15033TIP3   OH266513   1.047   1.796  14.908 -0.5189  0.3819 -0.1196
15033TIP3    H166514   1.074   1.769  14.821  2.3226  0.0112  0.7678
15033TIP3    H266515   1.120   1.771  14.965 -1.8713  1.4059  2.2421
15034TIP3   OH266516   6.349   6.328  12.957 -0.2044 -0.0857  0.4400
15034TIP3    H166517   6.334   6.411  13.002  0.0664 -0.7443  1.7819
15034TIP3    H266518   6.353   6.263  13.027 -0.3893 -1.2371 -0.5883
15035TIP3   OH266519   1.591   0.190  12.932  0.4335 -0.8349 -0.5865
15035TIP3    H166520   1.506   0.234  12.932  0.5481 -0.6128 -1.5056
15035TIP3    H266521   1.570   0.097  12.943  0.1473 -0.6634  0.4426
15036TIP3   OH266522   3.624   0.850  12.266 -0.3171 -0.1939  1.0985
15036TIP3    H166523   3.530   0.853  12.248 -0.0222  1.7335 -0.4296
15036TIP3    H266524   3.654   0.771  12.222 -1.1121 -0.5093  1.0934
15037TIP3   OH266525   6.004   0.067  16.117 -0.3802 -0.0972 -0.2085
15037TIP3    H166526   6.094   0.076  16.146 -0.4944  1.1237 -0.2154
15037TIP3    H266527   5.956   0.137  16.161 -0.9242  0.5795 -1.8184
15038TIP3   OH266528   0.236   3.671  12.771 -0.1579 -0.0498  0.6722
15038TIP3    H166529   0.214   3.759  12.801  0.5915 -0.2221  1.7893
15038TIP3    H266530   0.174   3.614  12.818  0.2003 -0.2178  0.9463
15039TIP3   OH266531   3.853   2.163   4.353  0.2435 -0.1034 -0.2114
15039TIP3    H166532   3.838   2.096   4.286 -1.0156  1.7894 -1.9376
15039TIP3    H266533   3.943   2.149   4.381  0.1593 -2.2224 -0.8017
15040TIP3   OH266534   2.823   5.484   4.144  0.5611  0.8578 -0.0507
15040TIP3    H166535   2.792   5.419   4.207  0.3238  1.0068 -0.0112
15040TIP3    H266536   2.779   5.462   4.062  0.8098  0.7111 -0.1451
15041TIP3   OH266537   4.816   6.683   1.554  0.3741  0.1963  0.0455
15041TIP3    H166538   4.764   6.631   1.493  2.1828 -0.8984 -0.6451
15041TIP3    H266539   4.832   6.624   1.628  1.1448  0.2841 -0.0422
15042TIP3   OH266540   4.161   6.450   1.184 -0.4076  0.1008 -0.8024
15042TIP3    H166541   4.070   6.456   1.154 -0.7919  0.7866  0.4505
15042TIP3    H266542   4.158   6.470   1.277  1.1202  0.7859 -0.8626
15043TIP3   OH266543   4.222   6.178  16.517  0.1704 -0.1749 -0.1426
15043TIP3    H166544   4.196   6.126  16.593 -0.0650 -0.5630 -0.4837
15043TIP3    H266545   4.226   6.268  16.550 -0.7182 -0.2274  0.1522
15044TIP3   OH266546   5.404   0.570   4.654 -0.1300 -0.1873  0.1855
15044TIP3    H166547   5.483   0.623   4.640  2.2041 -2.9720  1.4920
15044TIP3    H266548   5.360   0.611   4.728  0.0253  1.4487 -0.5803
15045TIP3   OH266549   2.668   0.868   3.638  0.2030  0.0718  0.7863
15045TIP3    H166550   2.681   0.791   3.582  1.3730  1.3413 -0.7744
15045TIP3    H266551   2.734   0.858   3.708  0.8670  0.0152  0.1647
15046TIP3   OH266552   4.562   4.894  14.844 -0.4464  0.1909 -0.1365
15046TIP3    H166553   4.524   4.841  14.774  0.3421  0.9361 -1.1455
15046TIP3    H266554   4.510   4.974  14.844 -0.3550  0.2501  0.0490
15047TIP3   OH266555   6.380   0.015   2.614 -0.0324 -0.0229 -0.2515
15047TIP3    H166556   6.324   0.021   2.536 -0.5704 -2.7442 -0.1983
15047TIP3    H266557   6.469   0.024   2.581 -0.2259 -1.5351 -1.3132
15048TIP3   OH266558   4.276   1.430   2.995  0.8546  0.0114 -0.0149
15048TIP3    H166559   4.210   1.463   3.055  1.8554 -0.8867  1.6465
15048TIP3    H266560   4.345   1.497   2.996  0.3874  0.5347 -1.0764
15049TIP3   OH266561   0.068   6.360   1.760  0.6204 -0.2461  0.1102
15049TIP3    H166562   0.065   6.429   1.694  0.9870  0.7448  1.0835
15049TIP3    H266563  -0.005   6.380   1.819 -0.5383 -1.8897 -0.6843
15050TIP3   OH266564   3.438   4.555  16.389 -0.3876  0.1773 -0.1544
15050TIP3    H166565   3.392   4.607  16.455 -1.6726 -0.1771 -0.7507
15050TIP3    H266566   3.391   4.472  16.386  1.3051 -0.8641  0.3922
15051TIP3   OH266567   0.011   3.464   6.354  0.0400  0.2424  0.2269
15051TIP3    H166568   0.058   3.523   6.296 -0.7025  0.8592  0.2409
15051TIP3    H266569   0.024   3.377   6.315 -0.8286  0.7031 -1.1414
15052TIP3   OH266570   0.671   2.432  12.035 -0.3101 -0.0340  0.2185
15052TIP3    H166571   0.587   2.385  12.030 -0.5386  0.4843 -1.3933
15052TIP3    H266572   0.736   2.368  12.006 -0.3264 -0.0548  0.2270
15053TIP3   OH266573   1.649   1.993   1.555 -0.1421  0.2242 -0.2763
15053TIP3    H166574   1.578   2.047   1.520 -0.1044 -0.0916 -0.8625
15053TIP3    H266575   1.672   1.935   1.482  2.1714  1.7180 -0.8523
15054TIP3   OH266576   1.946   4.846   0.365 -0.1760  0.1674 -0.3838
15054TIP3    H166577   2.036   4.827   0.391 -0.3045 -0.8473 -0.6458
15054TIP3    H266578   1.901   4.864   0.448  0.3396  1.0767 -0.2825
15055TIP3   OH266579   5.968   1.606  11.352  0.0939 -0.5331  0.4265
15055TIP3    H166580   5.972   1.526  11.405  0.3383 -0.2270  0.8734
15055TIP3    H266581   6.040   1.660  11.385  0.1316 -0.2608 -0.0937
15056TIP3   OH266582   1.403   0.824  11.273  0.0202  0.1858 -0.5997
15056TIP3    H166583   1.467   0.824  11.344 -1.9796  1.5563  1.3389
15056TIP3    H266584   1.425   0.901  11.221 -1.2234  1.9406  1.3168
15057TIP3   OH266585   2.506   3.964   4.297  0.1017  0.0181 -0.6021
15057TIP3    H166586   2.537   4.020   4.368  0.2603 -0.0936 -0.5843
15057TIP3    H266587   2.585   3.940   4.249  0.0285 -0.1581 -0.6353
15058TIP3   OH266588   2.906   4.458   4.815 -0.3526  0.4793  0.6072
15058TIP3    H166589   2.909   4.480   4.908  2.2905  4.0331 -0.0950
15058TIP3    H266590   2.825   4.498   4.784 -0.5636  0.4712  1.1421
15059TIP3   OH266591   2.223   2.206   2.717  0.7156  0.0124 -0.0920
15059TIP3    H166592   2.194   2.261   2.789  0.5435 -0.0451 -0.1190
15059TIP3    H266593   2.294   2.256   2.676  0.4405  0.2958 -0.2258
15060TIP3   OH266594   0.826   3.991  11.918  0.0583  0.9835 -0.1217
15060TIP3    H166595   0.799   3.901  11.897  0.8911  0.5454  0.6270
15060TIP3    H266596   0.825   4.037  11.834 -0.1445  0.2112 -0.5514
15061TIP3   OH266597   1.694   5.382   0.879 -0.1341 -0.5970  0.1704
15061TIP3    H166598   1.746   5.456   0.910 -2.1594  1.0744 -0.1760
15061TIP3    H266599   1.672   5.334   0.958  0.4923 -0.3361  0.5089
15062TIP3   OH266600   6.358   3.856   4.466  0.1020  0.7312 -0.2768
15062TIP3    H166601   6.287   3.810   4.421 -0.2185 -0.0486  0.9825
15062TIP3    H266602   6.436   3.803   4.448  0.4624  1.7768 -1.9504
15063TIP3   OH266603   5.172   0.627  11.540 -0.4490  0.1062  0.6268
15063TIP3    H166604   5.260   0.655  11.517 -0.6645  1.6709  1.5301
15063TIP3    H266605   5.184   0.572  11.618 -0.1227 -1.3870 -0.4478
15064TIP3   OH266606   6.204   5.164   3.481 -0.0841  0.1710  0.5376
15064TIP3    H166607   6.296   5.144   3.461  0.1058  0.0320  1.5041
15064TIP3    H266608   6.209   5.235   3.546 -0.4905 -2.4751  3.7213
15065TIP3   OH266609   5.356   3.967   2.418  1.2058 -0.1182 -0.2244
15065TIP3    H166610   5.349   4.041   2.478 -0.9375 -1.6905  1.6095
15065TIP3    H266611   5.271   3.963   2.373  2.4134  0.4228 -2.7493
15066TIP3   OH266612   1.558   2.197   5.937  0.4731  0.0374 -0.0810
15066TIP3    H166613   1.537   2.195   6.030 -1.8046  1.7198 -0.4843
15066TIP3    H266614   1.578   2.288   5.918  1.8289 -0.4349 -1.1015
15067TIP3   OH266615   4.390   2.969  16.247 -0.2733  0.3584  0.1120
15067TIP3    H166616   4.302   2.941  16.269 -0.3275  0.5183  0.1045
15067TIP3    H266617   4.419   3.021  16.322 -0.3383  0.6382 -0.0530
15068TIP3   OH266618   5.695   0.842   2.656  0.0409  0.5216  0.0283
15068TIP3    H166619   5.723   0.782   2.587  1.2533  0.3258  0.6574
15068TIP3    H266620   5.709   0.929   2.619  0.3175  0.4164 -0.1182
15069TIP3   OH266621   5.693   3.749   5.188 -0.2017 -0.9320 -0.6196
15069TIP3    H166622   5.644   3.795   5.120 -0.2313  1.2176  0.7833
15069TIP3    H266623   5.783   3.777   5.176 -0.5742  1.7029  1.8182
15070TIP3   OH266624   3.985   0.774   3.674  0.0980 -0.4997 -0.2564
15070TIP3    H166625   3.973   0.846   3.736  2.2027  0.9128 -1.3768
15070TIP3    H266626   3.993   0.696   3.729  0.0925  0.4558  1.1446
15071TIP3   OH266627   5.291   4.655   5.826  0.2002  0.0923 -0.4560
15071TIP3    H166628   5.361   4.638   5.889 -0.7839 -0.9921  0.3752
15071TIP3    H266629   5.213   4.670   5.879 -0.0899  2.0442 -1.3414
15072TIP3   OH266630   0.546   6.564  15.463 -0.2915  0.2017 -0.4971
15072TIP3    H166631   0.457   6.533  15.480  0.3119 -2.1446 -1.2670
15072TIP3    H266632   0.586   6.572  15.550 -0.8266 -0.1242 -0.2195
15073TIP3   OH266633   3.794   3.954   4.835 -0.2540  0.1141  0.0341
15073TIP3    H166634   3.780   3.938   4.741 -2.6244  1.0875  0.1320
15073TIP3    H266635   3.769   3.872   4.877 -0.6042  0.1318 -0.1288
15074TIP3   OH266636   4.105   4.284  10.688 -0.0693  0.5384  0.2120
15074TIP3    H166637   4.104   4.202  10.638  1.8339  0.1145  0.7679
15074TIP3    H266638   4.077   4.350  10.625 -0.5833 -0.3766 -0.5623
15075TIP3   OH266639   5.479   3.511   1.782  0.2084 -0.0387 -0.3436
15075TIP3    H166640   5.564   3.516   1.826 -1.5829  1.0369  3.4203
15075TIP3    H266641   5.497   3.533   1.691  3.7892  1.2718  0.5365
15076TIP3   OH266642   5.188   4.944  14.024  0.4326  0.1471  0.0916
15076TIP3    H166643   5.130   4.904  13.959  0.4880  0.4876 -0.1644
15076TIP3    H266644   5.197   5.035  13.996 -0.8283  0.7380  1.4375
15077TIP3   OH266645   2.739   2.408  16.748 -0.2040 -0.2093 -0.2702
15077TIP3    H166646   2.676   2.467  16.707 -0.5276  0.0164  0.5379
15077TIP3    H266647   2.813   2.407  16.688  0.0315  1.4369 -0.0517
15078TIP3   OH266648   5.316   0.945   3.407  0.1521  0.7584  0.4998
15078TIP3    H166649   5.373   0.920   3.480  0.8424  1.3428  0.1706
15078TIP3    H266650   5.247   0.997   3.447 -0.0489  0.2122  0.8766
15079TIP3   OH266651   1.503   3.512   0.560  0.0060 -0.3710  0.2573
15079TIP3    H166652   1.458   3.439   0.603 -1.2533  0.6233  0.6866
15079TIP3    H266653   1.553   3.554   0.630  2.1572 -1.7888 -0.3147
15080TIP3   OH266654   1.379   4.779   3.422 -0.0160 -0.6528 -0.1596
15080TIP3    H166655   1.346   4.851   3.476  0.7130 -0.8482  0.5753
15080TIP3    H266656   1.318   4.773   3.349 -0.4898  0.2403  0.1552
15081TIP3   OH266657   2.173   1.792  14.934  0.4832  0.3991 -0.7224
15081TIP3    H166658   2.085   1.830  14.937  0.2433 -0.2150  0.1104
15081TIP3    H266659   2.159   1.698  14.940  1.2760  0.3623  1.4770
15082TIP3   OH266660   5.490   4.136   2.899  0.2097 -0.0215 -0.2457
15082TIP3    H166661   5.504   4.051   2.857  1.6196 -0.4656  1.0554
15082TIP3    H266662   5.454   4.116   2.985  0.0093  0.7318 -0.1416
15083TIP3   OH266663   5.210   2.341  14.491 -0.2683 -0.4721  0.5110
15083TIP3    H166664   5.166   2.269  14.537 -0.1914 -1.0250 -0.2598
15083TIP3    H266665   5.195   2.323  14.398 -1.3022  1.1802  0.3250
15084TIP3   OH266666   0.318   0.827  15.822  0.1074 -0.0899 -0.7777
15084TIP3    H166667   0.393   0.768  15.822  0.0314 -0.1973  0.4283
15084TIP3    H266668   0.260   0.792  15.890  0.0327  1.3434 -0.0717
15085TIP3   OH266669   0.326   5.165  15.355 -0.6108  0.1137 -0.6695
15085TIP3    H166670   0.244   5.207  15.379 -0.9755 -1.3293  0.7786
15085TIP3    H266671   0.302   5.099  15.289 -0.7096 -0.6242  0.0905
15086TIP3   OH266672   0.107   2.802   0.414 -0.2646 -0.1884  0.1103
15086TIP3    H166673   0.022   2.846   0.417  0.3219  0.9532  1.6183
15086TIP3    H266674   0.108   2.756   0.330 -1.7790  0.9655 -0.5893
15087TIP3   OH266675   1.064   2.348  15.166  0.2217 -0.1013  0.5087
15087TIP3    H166676   1.021   2.400  15.097 -0.9024  1.4729  2.2991
15087TIP3    H266677   1.157   2.367  15.155 -0.0340  0.9996  0.0571
15088TIP3   OH266678   4.568   1.476   4.018  0.5081  0.5696  0.0531
15088TIP3    H166679   4.491   1.524   4.048 -0.1386  0.3805 -1.2275
15088TIP3    H266680   4.568   1.396   4.070 -1.3381 -0.3655 -1.2668
15089TIP3   OH266681   1.534   3.417  12.769  0.3712  0.2785 -0.1494
15089TIP3    H166682   1.582   3.491  12.730 -2.3618  2.0034 -0.4709
15089TIP3    H266683   1.451   3.414  12.722 -0.0104 -2.4262  0.5365
15090TIP3   OH266684   5.247   2.262   0.795 -0.0972 -0.0441 -0.0855
15090TIP3    H166685   5.214   2.197   0.733  0.6395 -1.3298  0.8178
15090TIP3    H266686   5.216   2.232   0.880 -0.2322  1.1288  0.2921
15091TIP3   OH266687   3.317   0.261   5.120  0.4408 -0.8042  0.5839
15091TIP3    H166688   3.222   0.253   5.121  0.3622  0.1009  0.9071
15091TIP3    H266689   3.346   0.205   5.191  0.2574 -2.1448 -0.3494
15092TIP3   OH266690   1.673   4.348   2.390 -0.1181  0.1964 -0.4356
15092TIP3    H166691   1.718   4.351   2.306  1.4429 -0.3326  0.3535
15092TIP3    H266692   1.582   4.329   2.367  0.2602  0.1209 -2.0058
15093TIP3   OH266693   6.641   5.805   1.237 -0.5864 -0.5864  0.3427
15093TIP3    H166694   6.704   5.869   1.268 -0.4655 -0.0414 -0.9685
15093TIP3    H266695   6.577   5.855   1.186 -0.2165 -1.5296 -1.1231
15094TIP3   OH266696   1.568   0.267  15.766 -0.2341  0.9101  0.0623
15094TIP3    H166697   1.648   0.260  15.819 -0.2379 -0.9547 -0.0841
15094TIP3    H266698   1.597   0.241  15.678 -0.8678  0.8083 -0.1185
15095TIP3   OH266699   3.748   2.380   5.183 -0.3807  0.3814 -0.1360
15095TIP3    H166700   3.784   2.426   5.107  0.5027 -0.9704 -0.5687
15095TIP3    H266701   3.743   2.289   5.155  0.7092 -0.2753  1.6967
15096TIP3   OH266702   5.307   4.646   0.652 -0.2240 -0.1524 -0.4000
15096TIP3    H166703   5.377   4.686   0.704 -0.6009 -0.3884  0.3077
15096TIP3    H266704   5.321   4.679   0.563  0.4232  0.2762 -0.1483
15097TIP3   OH266705   3.864   6.710   4.981 -0.2753  0.0582  0.0771
15097TIP3    H166706   3.905   6.666   5.055 -1.3028 -0.1555  0.5256
15097TIP3    H266707   3.930   6.774   4.952  0.8626 -1.1248 -0.0154
15098TIP3   OH266708   2.985   5.566   5.508  0.2959 -0.5866  0.2295
15098TIP3    H166709   3.063   5.553   5.454 -0.3229 -1.3965 -0.4937
15098TIP3    H266710   2.952   5.652   5.481  0.9313 -0.2424  0.5380
15099TIP3   OH266711   6.039   4.684  13.868 -0.1939  0.0533 -0.5227
15099TIP3    H166712   5.951   4.704  13.836 -0.3676 -0.1419 -0.1637
15099TIP3    H266713   6.084   4.648  13.791 -0.4646  0.0265 -0.6697
15100TIP3   OH266714   2.826   4.883  15.396 -0.3401  0.0170 -0.9061
15100TIP3    H166715   2.852   4.915  15.310 -0.2898  0.2615 -0.8009
15100TIP3    H266716   2.908   4.875  15.445 -0.5388  1.7995 -0.2280
15101TIP3   OH266717   2.784   4.610  12.465  0.2417  0.0721  0.8752
15101TIP3    H166718   2.741   4.662  12.397 -0.7909  0.5788  1.8874
15101TIP3    H266719   2.727   4.534  12.477  0.2948  0.1030  1.3349
15102TIP3   OH266720   3.035   1.393  12.166  0.1577 -0.2003  0.2222
15102TIP3    H166721   2.967   1.435  12.219  1.3387 -0.6554  2.2297
15102TIP3    H266722   3.035   1.302  12.197  0.2152 -0.7475 -1.3293
15103TIP3   OH266723   1.802   3.340  10.419 -0.4183 -0.7178 -0.3283
15103TIP3    H166724   1.846   3.425  10.415 -0.0635 -0.8979 -0.2657
15103TIP3    H266725   1.719   3.358  10.463 -0.0955 -0.5073  0.1964
15104TIP3   OH266726   2.500   6.221   2.160  0.0881  0.6056 -0.3545
15104TIP3    H166727   2.556   6.144   2.145 -0.2137  0.6225 -1.6993
15104TIP3    H266728   2.455   6.202   2.243  0.9839 -0.0703 -0.0104
15105TIP3   OH266729   2.242   0.329   4.142 -0.0795 -0.5288 -0.0052
15105TIP3    H166730   2.165   0.306   4.089  0.7567 -0.7243 -1.1630
15105TIP3    H266731   2.316   0.289   4.096  0.5734 -1.7698  1.9707
15106TIP3   OH266732   2.315   5.909  13.852  0.7622 -0.1379 -0.0541
15106TIP3    H166733   2.253   5.836  13.851 -2.4824  2.4111 -1.8037
15106TIP3    H266734   2.319   5.936  13.943 -1.0058 -0.1588  0.0563
15107TIP3   OH266735   3.979   5.439  10.904 -0.0538  0.0455 -0.3614
15107TIP3    H166736   3.981   5.521  10.855  0.2420  0.6852  0.7135
15107TIP3    H266737   3.913   5.453  10.972 -1.2157 -1.2006 -1.1565
15108TIP3   OH266738   6.566   0.108   3.128  0.1515 -0.3135  0.5064
15108TIP3    H166739   6.640   0.157   3.091 -0.5749  0.6968  0.3518
15108TIP3    H266740   6.600   0.070   3.209  0.8494  0.1045  0.4159
15109TIP3   OH266741   4.243   4.427   2.329  0.3115 -0.2752  0.8323
15109TIP3    H166742   4.213   4.391   2.413  1.1431 -2.3073  0.3200
15109TIP3    H266743   4.320   4.479   2.352  1.6659 -2.3194  1.2033
15110TIP3   OH266744   1.892   5.285  14.252 -0.3613 -0.2141 -0.7097
15110TIP3    H166745   1.955   5.304  14.321 -0.6114 -1.0687 -0.2175
15110TIP3    H266746   1.848   5.368  14.235  1.9202  0.7676 -2.1573
15111TIP3   OH266747   3.825   1.013  11.146 -0.3698  0.0960 -0.3447
15111TIP3    H166748   3.831   1.052  11.059  1.2888 -0.0388 -0.3277
15111TIP3    H266749   3.814   1.087  11.205  0.2428  0.3416 -0.5322
15112TIP3   OH266750   0.419   6.347  15.859  0.9958  0.9355  0.6758
15112TIP3    H166751   0.356   6.389  15.801  1.0098 -0.1202 -0.1372
15112TIP3    H266752   0.398   6.381  15.946 -0.1317  1.2562  0.2985
15113TIP3   OH266753   0.735   5.588   0.726 -0.4623  0.2353 -0.0969
15113TIP3    H166754   0.798   5.606   0.657 -0.0210  2.8059  0.8633
15113TIP3    H266755   0.782   5.531   0.787  1.0479  2.1798  0.6560
15114TIP3   OH266756   2.993   3.493  10.244  0.3387  0.4288 -0.0132
15114TIP3    H166757   3.053   3.496  10.318 -0.5699 -0.5737  0.7826
15114TIP3    H266758   2.912   3.534  10.276  0.0666  0.3481 -0.5791
15115TIP3   OH266759   5.412   2.252   1.640 -0.3080  0.8331  0.5204
15115TIP3    H166760   5.382   2.331   1.684  0.4997  0.7658  1.2103
15115TIP3    H266761   5.375   2.181   1.693 -1.1327  0.7289 -0.1650
15116TIP3   OH266762   3.131   6.566  15.232 -0.3523  0.1560 -0.1180
15116TIP3    H166763   3.185   6.585  15.155 -1.6626  0.4310 -1.0254
15116TIP3    H266764   3.178   6.498  15.279  0.4118 -0.1481 -1.2787
15117TIP3   OH266765   5.986   2.505   5.277 -0.2776  0.3381  0.0456
15117TIP3    H166766   6.060   2.445   5.282 -0.3664  0.2207 -0.0321
15117TIP3    H266767   6.024   2.592   5.287 -0.3940  0.1753  2.6792
15118TIP3   OH266768   5.315   6.643  16.928 -0.2901 -0.0024  0.2231
15118TIP3    H166769   5.349   6.653  16.839 -1.3628  0.1230 -0.1852
15118TIP3    H266770   5.326   6.730  16.967 -0.6466  0.1833 -0.0884
15119TIP3   OH266771   5.474   4.914   2.474  0.2669 -0.5110  0.1107
15119TIP3    H166772   5.540   4.947   2.535  1.3170 -0.4349 -1.0146
15119TIP3    H266773   5.476   4.819   2.485  0.6494 -0.5165  0.0186
15120TIP3   OH266774   1.551   4.141   1.860 -0.4248 -0.3000  0.0870
15120TIP3    H166775   1.594   4.064   1.898 -1.4073 -1.0765 -0.3480
15120TIP3    H266776   1.457   4.126   1.875 -0.5733  1.4664  1.2211
15121TIP3   OH266777   2.978   3.263   1.402 -0.3959 -0.3337 -0.2663
15121TIP3    H166778   2.946   3.225   1.484 -2.2024  2.4634  0.4655
15121TIP3    H266779   3.073   3.260   1.410 -0.3377 -4.2901 -0.2217
15122TIP3   OH266780   2.289   1.543   3.648 -0.4257  0.5597  0.0424
15122TIP3    H166781   2.355   1.477   3.672 -0.4004  0.6045  0.0970
15122TIP3    H266782   2.257   1.516   3.562  0.8691  1.4704 -0.7552
15123TIP3   OH266783   4.749   5.139   4.499 -0.2848 -0.1027 -0.2430
15123TIP3    H166784   4.678   5.084   4.531  0.2129 -0.6964 -0.1488
15123TIP3    H266785   4.716   5.174   4.416 -0.4982 -0.7573 -0.4396
15124TIP3   OH266786   1.495   4.842   1.505  0.5365  0.0791  0.0481
15124TIP3    H166787   1.512   4.850   1.598  1.1745  0.3973 -0.0909
15124TIP3    H266788   1.581   4.846   1.464  0.3070 -0.5582 -0.5238
15125TIP3   OH266789   5.704   6.066  12.328  0.1646  0.5413  0.1420
15125TIP3    H166790   5.623   6.016  12.336  1.0518 -0.8475  0.8225
15125TIP3    H266791   5.676   6.158  12.334 -1.4602  0.1471 -0.7405
15126TIP3   OH266792   6.794   1.736  13.047  0.0285  0.0471  0.1874
15126TIP3    H166793   6.815   1.813  12.994 -0.7801  0.4344  0.4169
15126TIP3    H266794   6.820   1.662  12.992  0.7947  0.4721 -0.0417
15127TIP3   OH266795   3.206   3.524   2.536  0.6249 -0.0356  0.1050
15127TIP3    H166796   3.121   3.492   2.565  0.8309  0.3036  1.1236
15127TIP3    H266797   3.192   3.618   2.521  0.2823 -0.3499 -1.8720
15128TIP3   OH266798   2.854   5.786  10.967  0.3964 -0.2824  0.0885
15128TIP3    H166799   2.833   5.791  11.061  0.9433  0.2786  0.1887
15128TIP3    H266800   2.920   5.854  10.954  2.1021 -1.9406 -0.2207
15129TIP3   OH266801   4.772   2.587  14.219 -0.0762 -0.0177  0.8445
15129TIP3    H166802   4.750   2.643  14.293  1.7561  1.7136  0.1949
15129TIP3    H266803   4.848   2.537  14.249  0.2769  0.2205  0.3604
15130TIP3   OH266804   3.049   6.615   4.179 -0.1429 -0.1435  0.9580
15130TIP3    H166805   3.090   6.691   4.138  2.1849 -0.5542  2.3338
15130TIP3    H266806   2.995   6.577   4.110 -1.0858  2.4808  0.1118
15131TIP3   OH266807   5.342   2.304   2.477 -0.6703  0.1886 -0.2214
15131TIP3    H166808   5.333   2.337   2.387 -1.7154 -1.2370 -0.6712
15131TIP3    H266809   5.256   2.319   2.516 -0.3965  0.2618  0.3635
15132TIP3   OH266810   2.064   4.616  13.019 -0.8610  0.9465  0.1586
15132TIP3    H166811   2.104   4.648  12.939  0.1464  1.2401  0.7586
15132TIP3    H266812   2.050   4.523  13.004 -1.8122  1.2274 -0.8000
15133TIP3   OH266813   0.872   0.425  12.147  0.1872 -0.7697 -0.3430
15133TIP3    H166814   0.806   0.484  12.182  0.4717  1.2069 -2.8708
15133TIP3    H266815   0.823   0.350  12.113 -0.7423  0.2830 -1.4093
15134TIP3   OH266816   0.764   0.605   0.515 -0.4285 -0.3408 -0.2059
15134TIP3    H166817   0.754   0.670   0.445 -0.2226 -1.5946 -1.4406
15134TIP3    H266818   0.796   0.656   0.590  0.7401  0.8311 -1.4422
15135TIP3   OH266819   1.467   5.006   2.714 -0.6806 -0.5651 -0.3896
15135TIP3    H166820   1.526   4.999   2.788 -0.5208  0.7788 -0.3586
15135TIP3    H266821   1.380   5.014   2.753 -0.3910  2.9249 -0.1144
15136TIP3   OH266822   2.239   3.289   1.995  0.1941  0.1040  0.4169
15136TIP3    H166823   2.225   3.361   1.933  2.1116 -0.6570 -0.9846
15136TIP3    H266824   2.225   3.329   2.081 -0.7528  1.6434 -0.3978
15137TIP3   OH266825   6.666   2.472   4.530 -0.2604  0.5093 -0.4759
15137TIP3    H166826   6.678   2.377   4.540  0.2899  0.2246 -3.0240
15137TIP3    H266827   6.573   2.486   4.546  0.0752  0.0048  2.4773
15138TIP3   OH266828   1.605   0.037   4.748 -0.1884  0.2051  0.1478
15138TIP3    H166829   1.669   0.100   4.778 -0.2757  0.9066 -1.0614
15138TIP3    H266830   1.654  -0.045   4.738  0.4321  0.6300 -0.3722
15139TIP3   OH266831   5.587   4.604  12.658  0.3696 -0.3523  0.0325
15139TIP3    H166832   5.635   4.675  12.614  1.1210 -0.4119  0.7412
15139TIP3    H266833   5.500   4.608  12.620  1.1226 -0.7458 -1.8753
15140TIP3   OH266834   2.994   4.096   1.068  0.1930  0.3814 -0.1493
15140TIP3    H166835   2.957   4.008   1.065 -0.6079  0.7010 -0.0487
15140TIP3    H266836   2.951   4.142   0.996 -2.1867  1.7110  1.9667
15141TIP3   OH266837   6.561   2.614  15.632 -0.3359 -0.4334 -0.2620
15141TIP3    H166838   6.559   2.616  15.727 -0.4893  0.0831 -0.2725
15141TIP3    H266839   6.477   2.653  15.606 -1.0956 -2.2242 -0.5972
15142TIP3   OH266840   3.287   0.663  13.641 -0.0429 -0.6125  0.4174
15142TIP3    H166841   3.215   0.713  13.601  0.1240 -1.0664 -0.4650
15142TIP3    H266842   3.359   0.726  13.647  0.5043 -0.9940 -1.6574
15143TIP3   OH266843   0.604   6.398  12.452  0.4654  0.0048 -0.3853
15143TIP3    H166844   0.593   6.341  12.528  0.1785  0.8778  0.2530
15143TIP3    H266845   0.555   6.355  12.382 -0.9067  0.1324  0.4536
15144TIP3   OH266846   4.204   6.091   6.636 -0.5917  0.1568 -0.8911
15144TIP3    H166847   4.188   6.016   6.579  0.8135  0.2777 -1.5036
15144TIP3    H266848   4.131   6.151   6.618 -0.8808 -0.3846 -1.5631
15145TIP3   OH266849   0.518   0.761   3.160  0.4814 -0.3202  0.4625
15145TIP3    H166850   0.605   0.790   3.135  0.1447 -0.1816 -0.5577
15145TIP3    H266851   0.476   0.736   3.078 -0.6727  0.2364  0.8673
15146TIP3   OH266852   3.884   1.119   0.355 -0.0164  0.0326 -0.2867
15146TIP3    H166853   3.978   1.103   0.358 -0.3630 -2.2418  1.5711
15146TIP3    H266854   3.875   1.198   0.302  3.0593  1.6445  1.3090
15147TIP3   OH266855   5.501   4.852   0.698 -0.3486 -0.4675  0.3479
15147TIP3    H166856   5.525   4.937   0.662 -0.5020 -0.6019 -0.0822
15147TIP3    H266857   5.443   4.871   0.771  3.2514  0.0626  3.3999
15148TIP3   OH266858   3.807   2.077   3.663 -0.5041  0.4109  0.2745
15148TIP3    H166859   3.798   2.153   3.720  0.5637  0.1133  0.8660
15148TIP3    H266860   3.900   2.076   3.638 -0.3794 -0.9740  0.6920
15149TIP3   OH266861   2.726   5.076  17.097  0.3124  0.0525 -0.4494
15149TIP3    H166862   2.818   5.068  17.071  0.8334 -0.0949  1.2869
15149TIP3    H266863   2.726   5.146  17.162 -0.4813 -1.1547  0.9108
15150TIP3   OH266864   6.029   6.152   5.939 -0.3793 -0.2403  0.0248
15150TIP3    H166865   5.954   6.114   5.984  0.3511 -0.7032  0.8758
15150TIP3    H266866   6.089   6.079   5.925  0.0510  0.1809 -0.3706
15151TIP3   OH266867   6.246   3.836  12.899  0.0851  0.5074  0.0663
15151TIP3    H166868   6.201   3.810  12.979  1.9569  0.4787  1.1590
15151TIP3    H266869   6.240   3.932  12.899  1.5271  0.6277  1.1727
15152TIP3   OH266870   3.688   6.145   3.270  0.1175 -0.5073  0.0973
15152TIP3    H166871   3.742   6.186   3.203  0.0633  0.3077  0.5439
15152TIP3    H266872   3.687   6.052   3.247  1.1779 -0.4300 -0.2776
15153TIP3   OH266873   2.000   1.630  13.000 -0.6949  0.0394  0.5745
15153TIP3    H166874   2.071   1.585  13.045 -0.8985 -0.3568  0.4953
15153TIP3    H266875   2.040   1.661  12.918 -0.7959 -0.7858  0.2106
15154TIP3   OH266876   3.491   3.556  14.534 -0.1554  0.5551  0.6983
15154TIP3    H166877   3.579   3.524  14.517  0.4498  2.3265  0.2514
15154TIP3    H266878   3.436   3.478  14.530  1.6313 -0.9917  3.2368
15155TIP3   OH266879   4.708   5.518  11.622 -0.0300  0.1752 -0.1881
15155TIP3    H166880   4.646   5.492  11.690 -1.3329  3.0297 -0.1317
15155TIP3    H266881   4.675   5.477  11.542 -0.1133 -0.9141  0.3829
15156TIP3   OH266882   0.477   4.693   5.144 -0.0310  0.0575  0.0126
15156TIP3    H166883   0.485   4.761   5.078  1.4986  0.2653  0.3931
15156TIP3    H266884   0.394   4.649   5.122 -1.7924  2.8488  0.5747
15157TIP3   OH266885   0.191   1.730   0.714 -0.4461 -0.0826 -0.5242
15157TIP3    H166886   0.201   1.635   0.724  0.5518  0.1535  1.1047
15157TIP3    H266887   0.210   1.746   0.621  1.8076 -1.2295 -0.3327
15158TIP3   OH266888   4.662   6.435  13.827  0.2304  0.1647 -0.2994
15158TIP3    H166889   4.651   6.349  13.786  0.8911 -0.3339  0.5556
15158TIP3    H266890   4.749   6.433  13.866 -0.1033  0.8861  0.5189
15159TIP3   OH266891   6.782   3.096  10.424 -0.4520  0.4695  0.0300
15159TIP3    H166892   6.814   3.021  10.373 -0.2761  0.0572  0.7306
15159TIP3    H266893   6.703   3.123  10.378  0.0381  0.5079 -0.8253
15160TIP3   OH266894   4.890   4.667  11.314 -0.1823 -0.1064  0.6672
15160TIP3    H166895   4.839   4.748  11.318 -1.5439 -0.9652  1.5738
15160TIP3    H266896   4.976   4.692  11.348 -0.6431  0.9288  1.1275
15161TIP3   OH266897   1.432   3.050   2.197  0.6867 -0.2430 -0.9421
15161TIP3    H166898   1.452   2.972   2.249 -0.0637 -0.6684 -1.2804
15161TIP3    H266899   1.457   3.027   2.108  0.0010 -0.2867 -1.1300
15162TIP3   OH266900   2.798   2.796   3.621 -0.5376 -0.8786  0.3665
15162TIP3    H166901   2.768   2.741   3.693  0.8586  1.2246  2.7304
15162TIP3    H266902   2.732   2.865   3.615 -0.5409 -0.9313 -0.2693
15163TIP3   OH266903   3.246   3.323  13.044 -0.3192  0.0820  0.4439
15163TIP3    H166904   3.242   3.416  13.068  3.1646  0.8137 -1.0872
15163TIP3    H266905   3.278   3.279  13.123  1.8018  0.9158  0.1222
15164TIP3   OH266906   0.131   2.107  14.348 -0.2409  0.2612 -0.3315
15164TIP3    H166907   0.094   2.031  14.393 -2.4465  0.5707 -1.4853
15164TIP3    H266908   0.116   2.180  14.408  1.6331 -0.0978  0.6560
15165TIP3   OH266909   5.353   4.101   1.734 -0.0954  0.9045 -0.6173
15165TIP3    H166910   5.325   4.011   1.716  1.2118  0.4345 -0.4065
15165TIP3    H266911   5.449   4.097   1.730 -0.0288  2.6368 -2.3292
15166TIP3   OH266912   4.479   0.375  16.256 -0.1816 -0.1397 -0.2718
15166TIP3    H166913   4.470   0.286  16.221  1.0525 -0.9813  1.3963
15166TIP3    H266914   4.530   0.421  16.190 -0.5263 -0.7711 -0.9924
15167TIP3   OH266915   3.577   3.585   2.392  0.2154  0.4654 -0.4344
15167TIP3    H166916   3.653   3.643   2.390  0.0364  0.9997  2.8222
15167TIP3    H266917   3.502   3.643   2.380  0.0826  0.9139  2.0539
15168TIP3   OH266918   2.559   1.105   5.742  0.6820 -0.1467 -0.1707
15168TIP3    H166919   2.650   1.077   5.747  0.7281 -0.1198 -0.8337
15168TIP3    H266920   2.514   1.053   5.808  1.2567  0.1648  0.4761
15169TIP3   OH266921   3.025   3.307  11.563  0.5085 -0.0662 -0.1627
15169TIP3    H166922   2.989   3.302  11.475 -1.6213  0.1628  0.6312
15169TIP3    H266923   3.072   3.225  11.575  1.0666  0.0143 -1.5739
15170TIP3   OH266924   0.847   5.770  13.312 -0.3317 -0.3216 -0.2991
15170TIP3    H166925   0.858   5.770  13.217  0.0230 -0.4244 -0.2617
15170TIP3    H266926   0.873   5.859  13.339 -0.5973 -0.2389 -0.3164
15171TIP3   OH266927   0.408   4.789   2.644 -0.0665  0.3730  0.0164
15171TIP3    H166928   0.316   4.764   2.651 -0.3711  1.3788 -0.2530
15171TIP3    H266929   0.413   4.875   2.686  0.6388  0.5861 -0.4864
15172TIP3   OH266930   5.001   2.921  13.193 -0.4154 -0.0911 -0.0183
15172TIP3    H166931   5.089   2.907  13.158 -0.4906  1.8172 -1.0761
15172TIP3    H266932   4.956   2.838  13.179  1.7830 -1.9198  2.5570
15173TIP3   OH266933   1.908   0.846  11.121  0.5647  0.4747 -0.4079
15173TIP3    H166934   1.834   0.886  11.076  0.5759 -0.3793 -1.2185
15173TIP3    H266935   1.985   0.884  11.079  0.5763  0.6048 -0.2664
15174TIP3   OH266936   6.101   1.477  11.656  0.0539  0.3838  1.0443
15174TIP3    H166937   6.164   1.495  11.725  0.7907  0.2856  0.4161
15174TIP3    H266938   6.155   1.447  11.582 -0.3837  2.9575 -0.4672
15175TIP3   OH266939   1.477   2.912  13.127  0.5003 -0.0322 -0.4244
15175TIP3    H166940   1.500   2.919  13.034  0.9248  2.0331 -0.2194
15175TIP3    H266941   1.485   3.002  13.160 -3.7814  0.1745  0.6587
15176TIP3   OH266942   6.454   6.729   4.633  0.2964 -0.0324  0.9674
15176TIP3    H166943   6.431   6.638   4.653 -2.3714  0.6500  1.4391
15176TIP3    H266944   6.534   6.723   4.581  0.3485 -2.6129  1.2101
15177TIP3   OH266945   5.290   4.965   0.312 -0.2638 -0.4575  0.7221
15177TIP3    H166946   5.379   4.964   0.277 -0.2150 -0.2489  0.8405
15177TIP3    H266947   5.302   4.982   0.406 -0.4393 -0.2911  0.7126
15178TIP3   OH266948   2.163   1.475  15.221  0.0502 -0.1318 -0.2742
15178TIP3    H166949   2.240   1.418  15.224 -0.7134 -1.3397 -2.1846
15178TIP3    H266950   2.194   1.558  15.257  1.9812 -0.8711 -0.0957
15179TIP3   OH266951   5.705   1.252  13.290 -0.1070 -0.3928  0.6364
15179TIP3    H166952   5.794   1.281  13.310  0.7363 -3.5492  1.9985
15179TIP3    H266953   5.650   1.298  13.354  0.5749  1.0882  0.2031
15180TIP3   OH266954   5.619   1.140  12.729 -0.0568 -0.3525  0.0001
15180TIP3    H166955   5.679   1.069  12.751  0.8961  0.7670  1.1715
15180TIP3    H266956   5.675   1.216  12.716 -1.0909  0.3257 -0.6994
15181TIP3   OH266957   6.809   0.644   5.068  0.2255 -0.2745  0.1743
15181TIP3    H166958   6.895   0.627   5.029  0.3005  0.7240 -0.1254
15181TIP3    H266959   6.784   0.560   5.107  1.4132 -0.5352  0.4363
15182TIP3   OH266960   3.265   0.952  14.862  0.4324  0.1106  0.2488
15182TIP3    H166961   3.204   1.005  14.914  0.3928 -0.1994  0.5226
15182TIP3    H266962   3.330   0.921  14.925 -0.9874 -2.3449  0.6806
15183TIP3   OH266963   0.132   5.298   6.214  0.3267  0.4188  0.2172
15183TIP3    H166964   0.049   5.327   6.252  0.8310  1.9188  0.2393
15183TIP3    H266965   0.181   5.262   6.287 -0.4693 -0.9083  0.1201
15184TIP3   OH266966   1.306   1.210  13.528 -0.8567  0.1697  0.1629
15184TIP3    H166967   1.272   1.124  13.503 -1.5187  0.0390  1.4252
15184TIP3    H266968   1.280   1.220  13.620  2.1472  0.2498  1.1277
15185TIP3   OH266969   4.720   0.861   5.555  0.4811  0.0309  0.5336
15185TIP3    H166970   4.672   0.914   5.491 -0.1859  0.7562  1.5894
15185TIP3    H266971   4.657   0.794   5.582  0.9817 -0.6860 -0.0367
15186TIP3   OH266972   6.473   4.842   0.931  1.3928 -0.0230  0.3992
15186TIP3    H166973   6.500   4.910   0.993  0.3137  1.2936 -0.5176
15186TIP3    H266974   6.547   4.781   0.928  2.0134  0.6041  1.9353
15187TIP3   OH266975   5.378   2.032  14.547  0.0136  0.0651 -0.4453
15187TIP3    H166976   5.353   2.072  14.630  0.0614 -1.5589  0.3909
15187TIP3    H266977   5.437   2.096  14.506 -0.1186  0.9494  0.6889
15188TIP3   OH266978   1.221   6.616  15.618 -0.0741 -0.1402 -0.5036
15188TIP3    H166979   1.212   6.525  15.647 -0.4426  1.4935  5.7232
15188TIP3    H266980   1.132   6.647  15.605  0.0178 -0.2758 -1.6263
15189TIP3   OH266981   2.084   0.257  15.928 -0.1479 -0.0077  0.1777
15189TIP3    H166982   1.993   0.267  15.898 -0.3356  2.4293  1.3167
15189TIP3    H266983   2.079   0.266  16.023  1.1536 -1.3833  0.4205
15190TIP3   OH266984   3.913   0.256  11.569  0.0075  0.1698 -0.3809
15190TIP3    H166985   4.001   0.226  11.547  0.6796  1.1125  0.8798
15190TIP3    H266986   3.905   0.341  11.525 -0.2871  0.0755 -0.5129
15191TIP3   OH266987   1.615   0.572   0.631 -0.0085  0.3998 -0.2238
15191TIP3    H166988   1.568   0.654   0.616 -1.8285 -0.2399  1.5266
15191TIP3    H266989   1.664   0.588   0.712 -0.6669 -0.3392  0.3307
15192TIP3   OH266990   6.076   5.094  14.287  0.1675  0.2322 -0.2406
15192TIP3    H166991   6.170   5.113  14.283  0.6388 -1.8092  0.2811
15192TIP3    H266992   6.060   5.036  14.212 -0.5804  0.1582 -0.0321
15193TIP3   OH266993   2.596   3.019  12.523  0.1449  0.1215  0.5257
15193TIP3    H166994   2.564   2.988  12.438  0.6465 -1.1192  0.7618
15193TIP3    H266995   2.575   3.112  12.524 -0.5678 -0.0021 -0.6348
15194TIP3   OH266996   3.535   5.379  16.038 -0.0857  0.5241 -0.0510
15194TIP3    H166997   3.593   5.325  16.091  0.0331  2.0737  1.4952
15194TIP3    H266998   3.455   5.327  16.028  0.5027 -0.4594  0.2491
15195TIP3   OH266999   0.969   6.401   4.740 -0.3618  0.2456  0.5895
15195TIP3    H167000   1.055   6.444   4.742 -0.5618  0.6343  1.6250
15195TIP3    H267001   0.978   6.328   4.802 -0.0440 -1.2243 -1.1024
15196TIP3   OH267002   3.353   0.289   2.921  0.1895  0.3277  0.1392
15196TIP3    H167003   3.401   0.365   2.886  0.5798  0.2903  0.5931
15196TIP3    H267004   3.292   0.266   2.851  0.8193  0.3881 -0.4424
15197TIP3   OH267005   1.612   1.731   5.252 -0.4283  0.3483 -0.5298
15197TIP3    H167006   1.683   1.792   5.274  1.2669 -1.8311  0.4085
15197TIP3    H267007   1.533   1.774   5.285  1.2082  0.0422  4.7733
15198TIP3   OH267008   6.461   4.947   4.343 -0.2996  0.2728 -0.0923
15198TIP3    H167009   6.513   4.867   4.354 -0.0982  0.6004  1.6710
15198TIP3    H267010   6.501   4.991   4.269  0.7683 -0.3951  0.0580
15199TIP3   OH267011   2.760   1.298  12.105  0.3571  0.5192  0.3464
15199TIP3    H167012   2.679   1.260  12.140  0.1111 -2.0819 -2.6601
15199TIP3    H267013   2.818   1.304  12.181 -0.7246 -3.0490  1.6825
15200TIP3   OH267014   2.547   1.574   5.107 -0.1385  0.4450 -0.3727
15200TIP3    H167015   2.533   1.482   5.130  0.2199  0.8889  1.8860
15200TIP3    H267016   2.459   1.609   5.091 -0.4311  0.0564  0.3452
15201TIP3   OH267017   5.953   4.998  12.818  0.1360 -0.3243 -0.2228
15201TIP3    H167018   5.861   5.000  12.789 -0.1599  0.4158  0.6936
15201TIP3    H267019   5.975   4.905  12.820 -0.8953 -0.5745  0.4048
15202TIP3   OH267020   5.639   0.182   5.116 -0.2981 -0.2584  0.0056
15202TIP3    H167021   5.566   0.219   5.165 -2.0959 -0.3342 -2.4403
15202TIP3    H267022   5.717   0.218   5.159 -1.7770  1.0089  1.8024
15203TIP3   OH267023   3.134   4.852  11.517 -0.0519  0.1645 -0.6680
15203TIP3    H167024   3.054   4.804  11.495 -0.8042  1.4739 -0.9508
15203TIP3    H267025   3.192   4.787  11.555 -1.6069 -0.6655  0.4006
15204TIP3   OH267026   0.489   0.170   0.665 -0.0941 -0.2874 -0.2612
15204TIP3    H167027   0.524   0.202   0.748 -0.4027  1.3004 -0.7167
15204TIP3    H267028   0.566   0.147   0.614  0.3276  2.1879 -0.8621
15205TIP3   OH267029   2.051   3.949  17.030  0.3364 -0.1730  0.1149
15205TIP3    H167030   1.969   3.912  16.997  0.3573  0.0699 -0.2172
15205TIP3    H267031   2.050   4.039  16.998 -0.3513  0.5495  2.0137
15206TIP3   OH267032   3.782   0.580  12.434 -0.5181 -0.3434  0.0056
15206TIP3    H167033   3.824   0.608  12.352  0.5861 -0.6061  0.4557
15206TIP3    H267034   3.794   0.485  12.436  0.3176 -0.2428  0.8989
15207TIP3   OH267035   6.581   5.770   0.801  0.0354  0.0432  0.1589
15207TIP3    H167036   6.672   5.767   0.771 -0.0078  1.2112 -0.1560
15207TIP3    H267037   6.546   5.851   0.764 -0.9831 -0.1241  0.7046
15208TIP3   OH267038   1.711   5.761  12.968  0.5032 -0.3582 -0.3064
15208TIP3    H167039   1.644   5.819  12.932  0.8267 -0.0202 -0.3713
15208TIP3    H267040   1.666   5.678  12.982 -0.0698  0.0240  0.1765
15209TIP3   OH267041   1.050   1.785  13.818  0.9552 -0.5174  0.2628
15209TIP3    H167042   1.005   1.754  13.739 -1.7739 -1.0716  1.8829
15209TIP3    H267043   1.078   1.874  13.798 -2.1599  0.4136 -0.5252
15210TIP3   OH267044   6.214   0.525  14.712  0.6434 -0.0854 -0.4312
15210TIP3    H167045   6.228   0.506  14.804  2.1991  0.6715 -0.4795
15210TIP3    H267046   6.302   0.530  14.674  0.1302  1.4361 -1.5566
15211TIP3   OH267047   5.035   4.853   6.437  0.0642  0.0272 -0.1971
15211TIP3    H167048   5.061   4.929   6.490  1.1830 -0.9185  0.6734
15211TIP3    H267049   5.107   4.791   6.448 -0.4085 -0.8176 -1.6213
15212TIP3   OH267050   0.056   0.159   4.180 -0.4304  0.0093  0.7506
15212TIP3    H167051   0.128   0.125   4.233  0.9422 -0.1936 -1.1532
15212TIP3    H267052   0.012   0.080   4.147  0.5567  0.0621 -0.7715
15213TIP3   OH267053   5.852   1.635  16.776  0.3871 -0.3810 -0.1899
15213TIP3    H167054   5.940   1.609  16.801  0.1737 -0.1765  0.8047
15213TIP3    H267055   5.830   1.579  16.702  0.9768 -1.0992  0.1744
15214TIP3   OH267056   3.756   5.590  16.796  0.2711 -0.3165  0.8396
15214TIP3    H167057   3.716   5.574  16.711  1.3273 -1.2912  0.4928
15214TIP3    H267058   3.788   5.504  16.825  2.7806  0.4729  0.7098
15215TIP3   OH267059   4.297   5.377  13.838  0.2336  0.2093 -0.5430
15215TIP3    H167060   4.229   5.443  13.853 -0.0155 -0.5675  2.3431
15215TIP3    H267061   4.260   5.295  13.871  1.5249 -0.8325 -1.5464
15216TIP3   OH267062   5.402   4.753  11.177  0.3840  0.2574 -0.0706
15216TIP3    H167063   5.312   4.721  11.177  1.0873 -1.8889 -0.5170
15216TIP3    H267064   5.395   4.846  11.199 -1.8882  0.0407  0.3077
15217TIP3   OH267065   0.872   4.170   3.587 -0.0017 -0.4032 -0.1276
15217TIP3    H167066   0.844   4.094   3.637  3.6961 -0.1900  2.7079
15217TIP3    H267067   0.935   4.136   3.524  0.7006  0.1308  0.2704
15218TIP3   OH267068   0.607   2.259  10.483  0.4873 -0.0137 -0.1505
15218TIP3    H167069   0.615   2.355  10.483 -1.3153  0.1802 -0.8022
15218TIP3    H267070   0.579   2.237  10.572 -0.6341  0.2546 -0.4206
15219TIP3   OH267071   1.120   6.027   4.905  0.2971  0.2738 -0.2567
15219TIP3    H167072   1.040   6.064   4.867 -0.5431 -0.6419  0.5607
15219TIP3    H267073   1.094   5.940   4.936  0.8403  1.0638  2.6495
15220TIP3   OH267074   6.349   1.761   1.040  0.5983  0.6575 -0.0463
15220TIP3    H167075   6.403   1.800   0.971 -0.1393  0.2758 -0.8623
15220TIP3    H267076   6.262   1.800   1.027  0.5907  1.0418  1.0623
15221TIP3   OH267077   5.303   5.204   1.652 -0.6403  0.1984  0.1599
15221TIP3    H167078   5.208   5.199   1.652 -0.5735 -1.3234 -0.4450
15221TIP3    H267079   5.326   5.215   1.744 -1.3849  0.8155  0.2890
15222TIP3   OH267080   3.738   3.941   3.344 -0.1908 -0.4963  0.1610
15222TIP3    H167081   3.668   3.908   3.287 -1.3826  2.3882 -0.2605
15222TIP3    H267082   3.706   3.923   3.433  0.0431 -1.9626 -0.0323
15223TIP3   OH267083   1.914   0.837   0.247  0.5052  0.3526 -0.6635
15223TIP3    H167084   1.850   0.907   0.231  0.5592  0.5573 -0.0089
15223TIP3    H267085   1.906   0.818   0.340  1.4563  0.4278 -0.5602
15224TIP3   OH267086   1.597   1.698  15.957 -0.5644 -0.8194  0.2941
15224TIP3    H167087   1.515   1.650  15.963 -0.4659 -0.9348  0.7165
15224TIP3    H267088   1.654   1.642  15.903 -1.0450 -0.3342 -0.7556
15225TIP3   OH267089   4.003   5.076   4.346 -0.7243  0.0982  0.6907
15225TIP3    H167090   3.910   5.059   4.335 -0.9427 -0.0032  2.4803
15225TIP3    H267091   4.016   5.082   4.440  1.1032  0.0110  0.4888
15226TIP3   OH267092   3.073   2.019   6.344 -0.3684 -0.0187  0.0588
15226TIP3    H167093   3.035   2.105   6.366 -0.4787 -0.4733  1.8342
15226TIP3    H267094   3.001   1.957   6.361  0.3065 -0.6301  0.7556
15227TIP3   OH267095   0.150   1.607  10.359  0.2685 -0.4764  0.0133
15227TIP3    H167096   0.114   1.662  10.290 -2.2066  1.6288  2.7098
15227TIP3    H267097   0.119   1.519  10.339  0.6477 -0.1657 -2.1368
15228TIP3   OH267098   2.753   5.794  15.898 -0.2975 -0.2389 -0.2075
15228TIP3    H167099   2.673   5.816  15.850 -1.7305 -2.3514  1.0602
15228TIP3    H267100   2.801   5.737  15.838 -0.0573  0.4611 -0.6978
15229TIP3   OH267101   4.042   3.218   1.089  0.0799 -0.2353  0.4165
15229TIP3    H167102   4.004   3.169   1.162 -0.2959 -0.2408  0.2250
15229TIP3    H267103   4.047   3.155   1.018  2.9047 -0.9619  1.1679
15230TIP3   OH267104   2.247   2.420   5.931  0.0680 -0.7171 -0.3172
15230TIP3    H167105   2.248   2.334   5.973  0.7901 -0.8419 -0.5818
15230TIP3    H267106   2.235   2.482   6.003 -0.8830 -1.0594 -0.1696
15231TIP3   OH267107   2.206   3.379   2.257  0.4079  0.3545  0.3552
15231TIP3    H167108   2.200   3.382   2.352  1.2033  1.1671  0.3860
15231TIP3    H267109   2.295   3.407   2.237  0.5979 -0.8248 -0.5821
15232TIP3   OH267110   4.782   1.744  14.636  0.1115 -0.0461 -0.4470
15232TIP3    H167111   4.738   1.765  14.554 -0.0132 -0.7249 -0.5540
15232TIP3    H267112   4.711   1.727  14.698  0.1967 -2.0320 -0.8468
15233TIP3   OH267113   1.498   4.532  12.284 -0.4237 -0.5222 -0.0122
15233TIP3    H167114   1.572   4.533  12.225  0.4880 -1.7082  1.0473
15233TIP3    H267115   1.465   4.442  12.281 -1.1294 -0.2899  0.3570
15234TIP3   OH267116   6.160   2.568  11.665  0.6314  0.2793  0.0099
15234TIP3    H167117   6.114   2.576  11.749  1.8821 -0.9238  0.8559
15234TIP3    H267118   6.238   2.623  11.675  1.7234 -1.2812  0.3558
15235TIP3   OH267119   4.214   2.612   4.277 -0.1588 -0.1426  0.0925
15235TIP3    H167120   4.131   2.635   4.234 -0.0399  0.9665  0.4418
15235TIP3    H267121   4.204   2.643   4.367  0.4361 -0.4902  0.2831
15236TIP3   OH267122   6.640   3.018   2.591 -0.3696 -0.2656 -0.0954
15236TIP3    H167123   6.679   3.100   2.560 -0.2502 -0.8034 -1.4624
15236TIP3    H267124   6.555   3.015   2.547  0.1810 -1.4937 -1.1270
15237TIP3   OH267125   6.079   2.380   2.161 -0.3646 -0.1450  0.1690
15237TIP3    H167126   5.993   2.372   2.202 -1.2883  0.6710 -1.4898
15237TIP3    H267127   6.128   2.304   2.192 -2.6688 -2.2970 -1.0854
15238TIP3   OH267128   3.759   0.205   0.345 -0.2417 -0.0485  0.2163
15238TIP3    H167129   3.673   0.189   0.307 -0.5093  1.1492  0.2911
15238TIP3    H267130   3.768   0.139   0.414 -0.2849 -1.4166 -1.0330
15239TIP3   OH267131   2.249   1.554  13.115  0.1764  0.5635 -0.4609
15239TIP3    H167132   2.242   1.520  13.204  1.7571  0.5643 -0.3053
15239TIP3    H267133   2.287   1.641  13.126  0.2307  0.6307 -1.1303
15240TIP3   OH267134   1.388   3.797  15.745  0.4073  0.2427 -0.2059
15240TIP3    H167135   1.458   3.861  15.733 -0.3821  1.6197  1.8547
15240TIP3    H267136   1.312   3.849  15.772 -1.0006 -1.3499 -0.8568
15241TIP3   OH267137   5.494   3.709   2.489 -0.1892 -0.0118 -0.0316
15241TIP3    H167138   5.470   3.728   2.579  3.6706  0.6002  1.0555
15241TIP3    H267139   5.467   3.786   2.439 -0.9853  0.3160  0.8872
15242TIP3   OH267140   0.875   5.696  15.860  0.3229 -0.2514  0.1420
15242TIP3    H167141   0.958   5.733  15.831 -0.9920  3.1507  0.2076
15242TIP3    H267142   0.832   5.666  15.780  1.3140 -1.4629  0.0404
15243TIP3   OH267143   0.066   1.420   0.477 -0.2728 -0.4839 -0.4304
15243TIP3    H167144   0.001   1.490   0.473 -0.6961 -0.8920 -0.9729
15243TIP3    H267145   0.068   1.393   0.568 -1.2554 -0.8142 -0.4933
15244TIP3   OH267146   0.130   1.397   2.007  0.1553 -0.0315  0.5589
15244TIP3    H167147   0.076   1.437   2.074  0.7896 -1.0743  1.7514
15244TIP3    H267148   0.120   1.453   1.930 -1.3078  0.6843  1.2398
15245TIP3   OH267149   0.779   3.480   1.720  0.0222  0.5688 -0.5134
15245TIP3    H167150   0.803   3.391   1.696 -1.5531  0.7117 -2.9113
15245TIP3    H267151   0.790   3.483   1.815 -0.6817 -2.4065 -0.2509
15246TIP3   OH267152   4.249   1.760  13.441  0.5084  0.1778 -0.5288
15246TIP3    H167153   4.331   1.721  13.410  2.1774  0.9193  2.5748
15246TIP3    H267154   4.265   1.854  13.438  0.2327  0.2988  1.1590
15247TIP3   OH267155   3.180   4.972   1.980 -0.2634 -0.7377  0.2963
15247TIP3    H167156   3.159   5.035   2.049  2.0715 -0.9669  1.3297
15247TIP3    H267157   3.230   5.023   1.915  1.1622 -1.3366  0.8739
15248TIP3   OH267158   1.191   1.645   0.317 -0.1624 -0.0873 -0.2177
15248TIP3    H167159   1.121   1.590   0.350 -1.0744  2.3145  2.2198
15248TIP3    H267160   1.149   1.701   0.251  0.1302 -0.4187 -0.6971
15249TIP3   OH267161   0.235   6.388   6.028  0.0714 -0.1232  0.3306
15249TIP3    H167162   0.212   6.462   5.972  1.2454 -1.0925 -1.5136
15249TIP3    H267163   0.157   6.332   6.027  0.4107 -0.6035 -1.1794
15250TIP3   OH267164   5.376   2.676   2.249 -0.0983  0.7547  0.3645
15250TIP3    H167165   5.340   2.652   2.334 -0.4449  0.9175  0.2649
15250TIP3    H267166   5.454   2.728   2.270  0.7925 -0.6338  0.5820
15251TIP3   OH267167   2.766   6.775   5.255 -0.2582 -0.1157 -0.0665
15251TIP3    H167168   2.787   6.708   5.189 -0.4278  0.5706 -0.8393
15251TIP3    H267169   2.850   6.819   5.271 -0.0701 -0.7484  0.7209
15252TIP3   OH267170   0.009   2.484   1.591 -0.5326  0.0135  0.3461
15252TIP3    H167171   0.072   2.434   1.540 -0.1992  0.3904  0.3882
15252TIP3    H267172   0.043   2.574   1.592 -1.9985  0.6326 -1.1988
15253TIP3   OH267173   5.211   2.361   2.232 -0.2113  0.3021  0.1511
15253TIP3    H167174   5.251   2.433   2.183 -1.2731 -0.0786 -1.3339
15253TIP3    H267175   5.148   2.322   2.171 -1.6046 -0.1938  1.8131
15254TIP3   OH267176   5.382   6.022   4.815 -0.0213  0.3765  0.2513
15254TIP3    H167177   5.402   6.049   4.904 -1.6917  1.5632  0.3174
15254TIP3    H267178   5.456   6.052   4.763  0.1367  1.2906  0.9805
15255TIP3   OH267179   3.689   4.814  11.617  0.5512 -0.7063  0.9850
15255TIP3    H167180   3.624   4.744  11.624  0.1813 -0.3673  0.9822
15255TIP3    H267181   3.653   4.872  11.550  1.1231 -0.7985  0.5983
15256TIP3   OH267182   1.143   6.065   5.234  0.0796 -0.4699  0.0446
15256TIP3    H167183   1.139   6.137   5.297 -0.1470 -0.2201 -0.2601
15256TIP3    H267184   1.052   6.045   5.214  0.1635  0.6553 -1.5947
15257TIP3   OH267185   0.293   4.921  12.078 -0.3149  0.1082  0.1089
15257TIP3    H167186   0.365   4.898  12.019  1.8802  1.4625  2.0656
15257TIP3    H267187   0.241   4.984  12.029  1.1724  0.8419 -0.5977
15258TIP3   OH267188   6.646   1.378  12.954 -0.4122  0.1704 -0.2407
15258TIP3    H167189   6.614   1.288  12.963 -0.1720  0.2187  1.5395
15258TIP3    H267190   6.741   1.370  12.957 -0.3967  0.5096  0.2920
15259TIP3   OH267191   2.932   3.216   1.672 -0.0166  0.3089 -0.0105
15259TIP3    H167192   2.973   3.149   1.728 -1.1837 -0.0809  0.4130
15259TIP3    H267193   2.938   3.296   1.724 -0.9406 -0.0170  0.6287
15260TIP3   OH267194   2.080   1.823  11.390 -0.0580  0.2099  0.0904
15260TIP3    H167195   2.157   1.802  11.443 -0.5588 -0.0980  0.7120
15260TIP3    H267196   2.006   1.811  11.450 -0.6652 -0.4277 -0.7656
15261TIP3   OH267197   1.633   6.325  14.185  0.1169 -0.0336  0.0301
15261TIP3    H167198   1.698   6.382  14.227 -0.9264  2.5781 -1.6490
15261TIP3    H267199   1.550   6.350  14.224 -0.4536  0.1174 -1.2457
15262TIP3   OH267200   3.882   1.632   1.960 -0.1968 -0.6286 -0.2307
15262TIP3    H167201   3.820   1.587   1.903 -2.3835 -0.9501  2.1982
15262TIP3    H267202   3.889   1.576   2.037 -1.3204  2.0224  1.9884
15263TIP3   OH267203   2.850   6.206  14.087 -0.4287  0.8634 -0.5457
15263TIP3    H167204   2.894   6.264  14.150  0.9893 -1.5049  0.8056
15263TIP3    H267205   2.922   6.168  14.036 -1.4757  1.7070 -2.7355
15264TIP3   OH267206   3.364   3.442   1.987  0.2787  0.1994  0.0821
15264TIP3    H167207   3.367   3.358   1.942  0.0994  0.9976 -1.5126
15264TIP3    H267208   3.455   3.460   2.011  0.1550 -0.9743  1.5008
15265TIP3   OH267209   4.701   6.722   5.838  0.0425  0.0685 -0.5957
15265TIP3    H167210   4.729   6.812   5.857 -2.3101  1.1178 -1.7220
15265TIP3    H267211   4.652   6.695   5.915 -0.9461  0.5325 -1.0472
15266TIP3   OH267212   0.455   5.718  14.185 -0.0964  0.2238 -0.1828
15266TIP3    H167213   0.512   5.644  14.208 -0.0075  0.7115  1.2827
15266TIP3    H267214   0.388   5.680  14.128  2.2147 -0.1811 -2.8864
15267TIP3   OH267215   1.170   2.489  11.420  0.2469  0.1013  0.0418
15267TIP3    H167216   1.182   2.555  11.351  1.1493  0.3677  0.4393
15267TIP3    H267217   1.104   2.527  11.478 -0.1267  0.1101 -0.3817
15268TIP3   OH267218   4.900   0.985   5.917 -0.4430 -0.1603 -0.2494
15268TIP3    H167219   4.905   1.026   6.003 -0.9657 -1.2297  0.3082
15268TIP3    H267220   4.835   1.036   5.869 -1.6450 -0.7789  0.6974
15269TIP3   OH267221   3.854   6.509  16.365 -0.3200  0.6244  0.3440
15269TIP3    H167222   3.773   6.559  16.377 -0.2041  0.8802  0.0646
15269TIP3    H267223   3.892   6.504  16.452  0.8246  2.9680  0.0573
15270TIP3   OH267224   2.072   2.546   0.470  0.4562 -0.2124  0.0954
15270TIP3    H167225   1.986   2.517   0.499 -0.0375  0.0794 -1.0252
15270TIP3    H267226   2.113   2.581   0.549 -0.9752  0.8924  0.3876
15271TIP3   OH267227   4.351   5.736  14.400  0.3985 -0.4093  0.0659
15271TIP3    H167228   4.401   5.683  14.338  0.1394 -0.1350 -0.3840
15271TIP3    H267229   4.398   5.818  14.406  0.2886 -0.3450  0.0483
15272TIP3   OH267230   2.841   5.192  12.994 -0.0828 -1.0094 -0.7481
15272TIP3    H167231   2.935   5.203  12.979  0.4726 -2.0938  1.4892
15272TIP3    H267232   2.800   5.264  12.947  1.9655  0.2219 -0.7453
15273TIP3   OH267233   5.076   0.060   2.349  0.0385 -0.3772 -0.0376
15273TIP3    H167234   4.997   0.113   2.359 -0.4871 -1.1901  0.1940
15273TIP3    H267235   5.102   0.072   2.258 -0.2481  0.0303 -0.0665
15274TIP3   OH267236   5.031   4.499  15.637  0.2639 -0.1642 -0.5174
15274TIP3    H167237   5.122   4.528  15.645  0.0030  0.7204 -0.6371
15274TIP3    H267238   5.019   4.438  15.709  1.6287 -2.1581 -1.8613
15275TIP3   OH267239   1.797   3.774  13.087  0.2786  0.3599 -0.0485
15275TIP3    H167240   1.708   3.763  13.052 -0.2650  1.0373  1.0600
15275TIP3    H267241   1.784   3.819  13.170  1.4438 -2.0091  1.4981
15276TIP3   OH267242   5.965   3.171   4.605  0.0186 -0.5066 -0.0993
15276TIP3    H167243   5.975   3.240   4.670 -1.3841  0.8190 -1.2214
15276TIP3    H267244   6.045   3.119   4.612  1.2695  1.4323  0.5468
15277TIP3   OH267245   3.225   1.816  12.787  0.0038 -0.0171  0.1397
15277TIP3    H167246   3.146   1.781  12.829 -0.5632 -0.1776 -1.0191
15277TIP3    H267247   3.224   1.777  12.699  0.4946  1.2583 -0.4506
15278TIP3   OH267248   5.033   5.735   2.717  0.0089  0.1857  0.7022
15278TIP3    H167249   4.968   5.692   2.772  0.6673 -1.2870  0.3539
15278TIP3    H267250   5.063   5.667   2.657 -0.1566  1.5445 -1.0203
15279TIP3   OH267251   1.778   0.132   3.594  0.0278  0.3328  0.2021
15279TIP3    H167252   1.843   0.191   3.632  0.4292  0.1387 -0.1797
15279TIP3    H267253   1.746   0.178   3.516 -0.8387  0.7574  0.7942
15280TIP3   OH267254   2.068   6.270  14.440  0.1596 -0.2014  0.2236
15280TIP3    H167255   2.073   6.197  14.503  0.5550  1.0491  1.7028
15280TIP3    H267256   2.154   6.311  14.444 -0.9179  2.1016  1.6616
15281TIP3   OH267257   3.261   4.853  16.793  0.2900  0.1826  0.7560
15281TIP3    H167258   3.170   4.862  16.819  0.0430 -1.7956  0.7079
15281TIP3    H267259   3.306   4.820  16.872  0.0527 -3.1666 -0.3468
15282TIP3   OH267260   4.020   2.223   1.509  0.5048 -0.3838 -0.0052
15282TIP3    H167261   4.018   2.129   1.523  1.0498 -0.2958  0.7925
15282TIP3    H267262   3.971   2.259   1.583  0.1857 -0.0437 -0.3763
15283TIP3   OH267263   5.065   1.429   2.666  0.0804 -0.2256  0.3237
15283TIP3    H167264   5.061   1.408   2.759 -0.6869 -0.4193  0.2556
15283TIP3    H267265   5.140   1.488   2.657  0.1728 -0.2308  1.0579
15284TIP3   OH267266   3.549   0.565   1.137  0.5448 -0.4796  0.5995
15284TIP3    H167267   3.525   0.538   1.226 -2.0868 -0.1843  0.0734
15284TIP3    H267268   3.554   0.484   1.087 -2.6742 -0.4608  0.0576
15285TIP3   OH267269   2.405   0.459   6.614  0.4161  0.3100  0.0460
15285TIP3    H167270   2.340   0.390   6.622  1.2544 -0.4542  0.4087
15285TIP3    H267271   2.354   0.539   6.605 -0.6183 -0.5186 -2.1994
15286TIP3   OH267272   1.196   1.446  13.433  0.5481 -0.2128 -0.5383
15286TIP3    H167273   1.261   1.513  13.453 -0.3604  0.4434  0.3179
15286TIP3    H267274   1.242   1.363  13.444  0.8127  0.1814  1.8473
15287TIP3   OH267275   3.616   4.419   4.865  0.3343 -0.1147 -0.8235
15287TIP3    H167276   3.643   4.358   4.933 -0.1530  1.5752  0.9803
15287TIP3    H267277   3.551   4.371   4.814  0.9545 -1.5304 -0.3325
15288TIP3   OH267278   6.606   6.519   3.409 -0.4370 -0.1834  0.0606
15288TIP3    H167279   6.535   6.583   3.410 -0.8862 -0.6753  0.7517
15288TIP3    H267280   6.564   6.436   3.433  0.4895 -0.3371  1.2864
15289TIP3   OH267281   4.102   4.345   1.002 -0.4034  0.3280 -0.2297
15289TIP3    H167282   4.033   4.319   1.063  1.2389  0.8139  1.9918
15289TIP3    H267283   4.183   4.321   1.047  0.9120  0.1450 -2.5486
15290TIP3   OH267284   5.717   2.909  14.510  0.2721 -0.0916  0.1605
15290TIP3    H167285   5.768   2.983  14.478 -0.9698  0.4929 -0.5519
15290TIP3    H267286   5.709   2.924  14.604  0.2280  0.5676  0.0590
15291TIP3   OH267287   0.338   3.789   1.650  0.1997 -0.0804  0.1361
15291TIP3    H167288   0.406   3.769   1.714  0.7103  1.7455  0.2313
15291TIP3    H267289   0.325   3.884   1.658 -1.8142 -0.2648 -0.4178
15292TIP3   OH267290   2.168   3.871   0.797  0.1171 -0.2095  0.3481
15292TIP3    H167291   2.215   3.937   0.746  0.6275 -0.6610  0.2277
15292TIP3    H267292   2.146   3.803   0.734 -0.1783 -0.2755  0.5228
15293TIP3   OH267293   2.538   2.410   1.649  0.5777 -0.5130  0.5750
15293TIP3    H167294   2.552   2.325   1.689 -1.9730 -0.6771  1.3122
15293TIP3    H267295   2.498   2.390   1.564  1.9503 -0.0583 -0.2124
15294TIP3   OH267296   6.382   6.721  11.205  0.4099 -0.1036 -0.2084
15294TIP3    H167297   6.399   6.711  11.111  0.8316 -0.1169 -0.1357
15294TIP3    H267298   6.344   6.808  11.214  0.0433 -0.2406 -0.4341
15295TIP3   OH267299   5.050   4.540  13.019 -0.4023  0.0635  0.6291
15295TIP3    H167300   5.022   4.450  13.001 -2.4349  0.6997  0.3973
15295TIP3    H267301   5.146   4.534  13.026  0.0447 -1.3920 -3.6926
15296TIP3   OH267302   3.948   2.594  15.272 -0.6704 -0.5905 -0.6030
15296TIP3    H167303   3.931   2.592  15.366 -0.2931 -0.9321 -0.5370
15296TIP3    H267304   3.890   2.662  15.238 -0.2533  0.0754 -0.0081
15297TIP3   OH267305   3.490   1.716   5.299  0.6267 -0.1399  0.5352
15297TIP3    H167306   3.558   1.767   5.255  1.5083 -0.5313  1.4018
15297TIP3    H267307   3.517   1.713   5.391 -0.6602 -0.1611  0.9460
15298TIP3   OH267308   2.826   3.338   0.181  0.5999  0.0809  0.1959
15298TIP3    H167309   2.806   3.431   0.171  0.2297  0.0127  0.3053
15298TIP3    H267310   2.908   3.326   0.132 -1.2043 -0.2688 -3.0326
15299TIP3   OH267311   6.730   0.727   2.646  0.4490 -0.3314 -0.0962
15299TIP3    H167312   6.747   0.666   2.717  0.6244  0.3814  0.4774
15299TIP3    H267313   6.777   0.806   2.669  0.1068  0.0815 -0.7625
15300TIP3   OH267314   2.936   2.275   4.771  0.0120  0.0456 -0.0436
15300TIP3    H167315   2.975   2.338   4.710 -0.2709 -0.0070 -0.2794
15300TIP3    H267316   2.979   2.293   4.854 -0.4783  0.9485  0.0288
15301TIP3   OH267317   6.004   6.780  11.157  0.1683  0.3717 -0.2571
15301TIP3    H167318   6.015   6.862  11.109 -1.0989 -0.6121 -2.3536
15301TIP3    H267319   6.059   6.791  11.235 -1.2500  3.8572  0.4328
15302TIP3   OH267320   3.496   0.636   0.322  0.0554  0.6155  0.3361
15302TIP3    H167321   3.509   0.583   0.243  0.2832  0.0557  0.7475
15302TIP3    H267322   3.470   0.722   0.288 -1.2748 -0.0076 -0.3172
15303TIP3   OH267323   5.351   2.870  15.412 -0.1779  0.2337 -0.3539
15303TIP3    H167324   5.273   2.923  15.399 -1.0288 -1.0054 -0.4890
15303TIP3    H267325   5.359   2.819  15.332  2.0176  1.8324 -1.2401
15304TIP3   OH267326   3.537   3.181  15.259 -0.3903  0.2637  0.4520
15304TIP3    H167327   3.555   3.123  15.185 -0.8396 -0.0158  0.5583
15304TIP3    H267328   3.473   3.134  15.312  0.4258  0.1725  1.3828
15305TIP3   OH267329   0.006   2.932  11.092  0.1924  0.3239  0.1986
15305TIP3    H167330  -0.004   2.848  11.047  1.5864  0.5236 -0.5137
15305TIP3    H267331  -0.052   2.992  11.044  0.7109  0.2353 -0.5440
15306TIP3   OH267332   4.913   4.198  16.925  0.3106 -0.0966 -0.2665
15306TIP3    H167333   4.830   4.200  16.877 -1.4006 -0.8204  2.3777
15306TIP3    H267334   4.959   4.278  16.899 -0.1619 -0.7523 -3.4486
15307TIP3   OH267335   4.814   3.374   4.262  0.2493 -0.3405  0.2260
15307TIP3    H167336   4.821   3.465   4.293  2.3171 -1.2274  2.7136
15307TIP3    H267337   4.871   3.371   4.186  0.1144  0.4582  0.0760
15308TIP3   OH267338   4.107   2.327   0.436  0.5843  0.1206  0.1950
15308TIP3    H167339   4.176   2.288   0.490  1.4286  0.6042 -0.4904
15308TIP3    H267340   4.099   2.266   0.362  1.3778  0.8246 -0.4986
15309TIP3   OH267341   6.444   5.820   0.424  0.2954 -0.1733  0.3531
15309TIP3    H167342   6.463   5.898   0.476 -0.5117  0.7335 -0.6851
15309TIP3    H267343   6.356   5.794   0.452 -0.0227  0.1458 -0.3215
15310TIP3   OH267344   2.086   5.553   5.051  0.2178  0.3574 -0.3013
15310TIP3    H167345   2.154   5.493   5.081  1.1916  1.2335 -0.6926
15310TIP3    H267346   2.004   5.507   5.069  0.9240 -1.0716 -0.5430
15311TIP3   OH267347   3.277   1.936   1.843  0.0407 -0.6343  0.2608
15311TIP3    H167348   3.272   1.986   1.925  1.5580 -0.1139  0.0738
15311TIP3    H267349   3.310   1.850   1.870  1.7670 -0.0653  0.0976
15312TIP3   OH267350   0.128   6.516   4.845 -0.4387  0.2388 -0.0533
15312TIP3    H167351   0.148   6.527   4.938 -2.6623 -1.6562  0.7557
15312TIP3    H267352   0.213   6.507   4.803  0.6419  1.5624  1.7172
15313TIP3   OH267353   1.787   3.700   0.448  0.4558  0.0171  0.4108
15313TIP3    H167354   1.781   3.606   0.433  0.5247  0.0190  0.3710
15313TIP3    H267355   1.777   3.739   0.361 -1.3438  0.1247  0.6195
15314TIP3   OH267356   1.819   4.335   5.132 -0.1126 -0.1581  0.0568
15314TIP3    H167357   1.847   4.338   5.223 -2.3950  0.7916  0.8124
15314TIP3    H267358   1.815   4.426   5.105 -0.6979 -0.3525 -0.5525
15315TIP3   OH267359   2.305   0.691   6.022 -0.5821 -0.5668 -0.2930
15315TIP3    H167360   2.357   0.656   6.094 -0.7016  0.7649  0.4770
15315TIP3    H267361   2.217   0.656   6.037 -0.6815 -0.0342  0.4106
15316TIP3   OH267362   5.949   6.406  12.487  0.1570 -0.7525 -0.6364
15316TIP3    H167363   5.986   6.397  12.575 -0.8258  1.6898  0.1135
15316TIP3    H267364   6.021   6.441  12.434 -0.0905  0.8534  0.0263
15317TIP3   OH267365   6.589   0.185  11.366  0.0000  0.1882  0.3704
15317TIP3    H167366   6.641   0.105  11.369  0.4150  0.3943 -0.6290
15317TIP3    H267367   6.647   0.249  11.323 -0.3323  1.0177  1.1247
15318TIP3   OH267368   5.563   0.034  15.139  0.2233 -0.3238 -0.7236
15318TIP3    H167369   5.628   0.011  15.072  0.2399  0.7973 -1.1074
15318TIP3    H267370   5.605   0.102  15.191  0.5644 -1.7952  1.0294
15319TIP3   OH267371   1.074   5.855  11.543 -0.3151  0.0493  0.0668
15319TIP3    H167372   1.077   5.911  11.621 -1.2017  0.6072 -0.2878
15319TIP3    H267373   1.034   5.910  11.476  1.6999  0.0700 -1.2003
15320TIP3   OH267374   0.272   2.263   2.868 -0.1210 -0.9991 -0.6424
15320TIP3    H167375   0.257   2.220   2.784  1.2291 -1.4788 -0.6639
15320TIP3    H267376   0.332   2.204   2.915  1.0152  0.3797 -0.2970
15321TIP3   OH267377   4.894   4.545   3.664 -0.1661  0.0108  0.1463
15321TIP3    H167378   4.806   4.531   3.628 -0.1711 -0.6473  0.3965
15321TIP3    H267379   4.880   4.557   3.758 -0.1533  1.7474 -0.0450
15322TIP3   OH267380   2.249   6.706  11.188  0.0830 -0.5654  0.2089
15322TIP3    H167381   2.249   6.637  11.121 -0.1262  1.6199 -2.2034
15322TIP3    H267382   2.340   6.736  11.192  0.1314 -0.7873  1.0956
15323TIP3   OH267383   3.261   2.738  14.955  0.3623 -0.2163  0.7451
15323TIP3    H167384   3.317   2.664  14.976  0.9783 -0.0528 -0.2375
15323TIP3    H267385   3.217   2.713  14.874  2.1299  1.2325 -0.7867
15324TIP3   OH267386   1.740   6.757  10.693 -0.5809 -0.3612 -0.1566
15324TIP3    H167387   1.680   6.682  10.690 -0.6318 -0.4167  1.3412
15324TIP3    H267388   1.822   6.723  10.656  1.0186 -2.8481  4.6885
15325TIP3   OH267389   1.019   0.268  11.307 -0.1963 -0.5351  0.0347
15325TIP3    H167390   1.004   0.362  11.297 -1.6971 -0.7805 -0.2610
15325TIP3    H267391   1.018   0.234  11.217  0.2530 -0.8446  0.1440
15326TIP3   OH267392   6.277   1.730  17.089 -0.0098 -0.3863 -0.7841
15326TIP3    H167393   6.296   1.638  17.070  2.6638 -0.3256  0.9106
15326TIP3    H267394   6.213   1.726  17.160  3.1294 -1.3077  2.3399
15327TIP3   OH267395   4.759   1.546  17.030  0.4520  0.0112 -0.1197
15327TIP3    H167396   4.665   1.547  17.049  0.1051 -0.6482 -1.6434
15327TIP3    H267397   4.768   1.483  16.958  1.8595  1.1824 -1.0196
15328TIP3   OH267398   6.278   4.043   6.378 -0.3810  0.0389  0.0847
15328TIP3    H167399   6.347   4.100   6.343 -0.2396  0.1167  0.4831
15328TIP3    H267400   6.196   4.089   6.358 -0.3300 -0.1047 -0.4861
15329TIP3   OH267401   2.293   3.739   1.831 -0.3787 -0.6845  0.0425
15329TIP3    H167402   2.244   3.658   1.850 -1.7404  0.2056  0.4509
15329TIP3    H267403   2.376   3.729   1.878 -1.5323 -0.8059  2.1284
15330TIP3   OH267404   0.388   3.973  15.459  0.4966 -0.7781 -0.0262
15330TIP3    H167405   0.295   3.963  15.437  0.4497  0.0134 -0.2065
15330TIP3    H267406   0.395   3.943  15.549 -0.5683  2.2112  1.1505
15331TIP3   OH267407   2.086   5.224   3.730 -0.5266  0.0448  0.2999
15331TIP3    H167408   2.109   5.279   3.805  0.8681 -0.9512  0.6596
15331TIP3    H267409   2.001   5.256   3.702 -0.1185  1.8686  0.9617
15332TIP3   OH267410   1.873   4.222   1.279 -0.1419  0.2658  0.4065
15332TIP3    H167411   1.863   4.127   1.274  1.2234  0.0234  1.6094
15332TIP3    H267412   1.956   4.235   1.325 -1.5917  2.0261  2.7717
15333TIP3   OH267413   5.450   0.932   2.381 -0.1892 -0.5280  0.2373
15333TIP3    H167414   5.518   0.991   2.413 -0.2861 -0.1432 -0.2614
15333TIP3    H267415   5.398   0.910   2.459 -1.5709  1.8883  0.0786
15334TIP3   OH267416   4.820   5.480   5.199  0.7501 -0.5519 -0.5746
15334TIP3    H167417   4.856   5.503   5.113  0.1452 -0.1097 -0.7190
15334TIP3    H267418   4.775   5.396   5.184 -0.1379 -0.0215 -0.9124
15335TIP3   OH267419   5.299   1.901   1.680  0.1703  0.6081  0.4429
15335TIP3    H167420   5.254   1.913   1.597  1.1279 -0.2775 -0.2284
15335TIP3    H267421   5.233   1.919   1.747 -0.4471  1.9316 -0.4955
15336TIP3   OH267422   5.440   6.500   3.624 -0.2598 -0.2658  0.2841
15336TIP3    H167423   5.443   6.428   3.687 -3.1490 -0.8024 -0.0454
15336TIP3    H267424   5.457   6.578   3.676 -2.6830 -0.6790  1.8820
15337TIP3   OH267425   3.233   3.689  16.345 -0.1191  0.1176  0.1129
15337TIP3    H167426   3.209   3.652  16.430 -0.9690  1.0709  0.3124
15337TIP3    H267427   3.319   3.728  16.359 -0.1215  0.0045  0.4522
15338TIP3   OH267428   4.751   1.417  15.271  0.2498  0.5918  0.2978
15338TIP3    H167429   4.721   1.484  15.334 -1.2002  0.4007 -0.1533
15338TIP3    H267430   4.758   1.337  15.323 -1.6139  0.2716  0.1505
15339TIP3   OH267431   4.020   2.202   6.106 -0.3401  0.3989  0.4004
15339TIP3    H167432   4.067   2.197   6.023 -0.8825 -1.6687  0.1578
15339TIP3    H267433   3.936   2.159   6.088 -0.0445 -1.0850  2.2737
15340TIP3   OH267434   3.275   6.308  10.927  0.2796  0.5279  0.1253
15340TIP3    H167435   3.343   6.351  10.978 -1.4142  1.0637  2.0761
15340TIP3    H267436   3.243   6.376  10.868  2.9585 -0.3750 -2.5957
15341TIP3   OH267437   5.627   5.110  14.490  0.3166 -0.4734 -0.3467
15341TIP3    H167438   5.637   5.157  14.407  2.9019  0.0528  0.1788
15341TIP3    H267439   5.670   5.166  14.554  1.4434 -2.4662  0.7103
15342TIP3   OH267440   6.605   5.537   5.010 -0.2780 -0.3148 -0.1718
15342TIP3    H167441   6.645   5.562   5.094 -0.3505  2.9615 -0.9772
15342TIP3    H267442   6.677   5.498   4.960 -0.0273 -1.5078  1.0654
15343TIP3   OH267443   4.690   6.636  14.605 -0.3052  0.0082  0.4161
15343TIP3    H167444   4.600   6.627  14.575 -0.4180 -0.1865  0.8000
15343TIP3    H267445   4.702   6.730  14.615 -0.9878 -0.0183  1.8572
15344TIP3   OH267446   2.182   5.299   1.307  0.3969 -0.1600  0.3530
15344TIP3    H167447   2.216   5.358   1.374  1.3881 -0.4111  0.0867
15344TIP3    H267448   2.151   5.222   1.356  0.0152  0.1596  0.6170
15345TIP3   OH267449   5.333   3.579  10.445 -0.2220 -0.4983 -0.2590
15345TIP3    H167450   5.329   3.492  10.483 -1.5009  0.4603  2.0517
15345TIP3    H267451   5.414   3.617  10.479 -1.2773  0.2961  1.5323
15346TIP3   OH267452   5.400   6.408  10.815 -0.2733  0.0604  0.2323
15346TIP3    H167453   5.463   6.363  10.871  0.2092 -0.1322 -0.4539
15346TIP3    H267454   5.328   6.344  10.804  0.2077 -0.3946 -0.3777
15347TIP3   OH267455   2.361   5.651  11.868 -0.1013 -0.1214  0.0543
15347TIP3    H167456   2.412   5.576  11.899 -0.4779 -0.0689  0.8239
15347TIP3    H267457   2.367   5.646  11.773 -0.0003 -1.0488  0.0983
15348TIP3   OH267458   4.453   3.026   1.274 -0.1559 -0.2807  0.2472
15348TIP3    H167459   4.466   3.119   1.294 -0.1121  0.0453 -1.1940
15348TIP3    H267460   4.367   3.006   1.310  0.4702 -0.1148  1.9480
15349TIP3   OH267461   3.358   3.207  14.983  0.5269  0.6452 -0.0548
15349TIP3    H167462   3.367   3.126  15.033 -1.7432  1.1952  1.3687
15349TIP3    H267463   3.448   3.237  14.972  1.2804 -0.8308  1.4903
15350TIP3   OH267464   3.685   0.737  12.626  0.3490 -0.8815  0.4133
15350TIP3    H167465   3.727   0.677  12.565  2.7903 -0.0878  1.2117
15350TIP3    H267466   3.756   0.769  12.681 -1.4010  0.2487  2.1315
15351TIP3   OH267467   0.144   3.929  15.333 -0.2699  0.6055 -0.3345
15351TIP3    H167468   0.062   3.965  15.367  0.1530 -0.1780  1.5888
15351TIP3    H267469   0.123   3.839  15.310 -0.2492  0.7891 -1.1323
15352TIP3   OH267470   4.837   2.586   0.011  0.6104 -0.1447 -0.0005
15352TIP3    H167471   4.754   2.635   0.011  1.1742  0.8975  1.2488
15352TIP3    H267472   4.903   2.651  -0.012  1.1760 -0.7968 -0.2582
15353TIP3   OH267473   3.324   3.853  12.089 -0.1028  0.0591 -0.8167
15353TIP3    H167474   3.355   3.793  12.020 -0.4451  0.6374 -1.4912
15353TIP3    H267475   3.231   3.866  12.069 -0.6038 -0.9918  0.6917
15354TIP3   OH267476   3.372   2.623   5.616 -0.0479 -0.0687  0.1591
15354TIP3    H167477   3.360   2.558   5.547 -0.8970 -1.1801  1.3225
15354TIP3    H267478   3.449   2.594   5.664 -0.7919 -0.6032  1.0658
15355TIP3   OH267479   1.402   4.402  12.674  0.2272 -0.6199  0.2148
15355TIP3    H167480   1.449   4.454  12.739  0.1225 -0.5456  0.2317
15355TIP3    H267481   1.461   4.330  12.653  0.6856 -0.0857 -0.3587
15356TIP3   OH267482   6.714   5.133   4.896  0.1749 -0.2054  0.3852
15356TIP3    H167483   6.639   5.186   4.922 -0.5230 -0.7728 -0.4202
15356TIP3    H267484   6.782   5.155   4.960 -0.6860  0.2765  1.1614
15357TIP3   OH267485   4.923   2.594  16.551 -0.0438  0.0499 -0.5035
15357TIP3    H167486   4.846   2.597  16.607  0.8217  0.8705  0.6896
15357TIP3    H267487   4.935   2.685  16.521 -0.6070 -0.4035 -2.2083
15358TIP3   OH267488   0.550   4.493   0.008 -0.3090 -0.2538 -0.3810
15358TIP3    H167489   0.466   4.530  -0.018 -0.5979  0.5271  1.4898
15358TIP3    H267490   0.615   4.542  -0.043 -0.9544 -0.7739 -1.7319
15359TIP3   OH267491   1.838   4.075  10.663  0.4961  0.6038 -0.2692
15359TIP3    H167492   1.866   4.115  10.745 -0.2869  0.0904  0.2608
15359TIP3    H267493   1.884   4.125  10.595  0.9707  1.1848  0.4596
15360TIP3   OH267494   0.101   0.236   3.739 -0.3136 -0.3481 -0.3872
15360TIP3    H167495   0.152   0.163   3.704  0.3046  0.3873 -1.0457
15360TIP3    H267496   0.023   0.239   3.684 -0.1363 -0.2444 -0.6346
15361TIP3   OH267497   3.816   2.538  16.066  0.3541 -0.2044 -0.1427
15361TIP3    H167498   3.839   2.519  16.157  1.0427 -2.5953 -0.7559
15361TIP3    H267499   3.851   2.626  16.050  1.2368 -0.2072  1.5497
15362TIP3   OH267500   4.702   3.034   1.501 -0.1378 -0.2230  0.0505
15362TIP3    H167501   4.668   2.945   1.499 -0.5269 -0.0729 -0.1067
15362TIP3    H267502   4.627   3.088   1.527  0.0667  0.0724  0.0405
15363TIP3   OH267503   4.829   0.088  15.460 -0.3263 -0.0391  0.0507
15363TIP3    H167504   4.812   0.027  15.531  0.9361  0.1261  0.5277
15363TIP3    H267505   4.869   0.164  15.503 -0.9243  0.6916 -0.6579
15364TIP3   OH267506   6.550   6.538  13.928  0.1491 -0.3149 -0.1134
15364TIP3    H167507   6.462   6.528  13.894  0.0484  0.3474 -0.0494
15364TIP3    H267508   6.590   6.452  13.916 -0.0941 -0.2808 -1.2934
15365TIP3   OH267509   1.568   2.443   0.664  0.2259  0.4661 -0.1018
15365TIP3    H167510   1.477   2.444   0.635 -0.0786 -0.3923  0.7685
15365TIP3    H267511   1.608   2.371   0.613  0.4258  0.8322 -0.4730
15366TIP3   OH267512   1.461   4.517  16.903  0.3972  0.0821 -0.0111
15366TIP3    H167513   1.381   4.512  16.956 -0.2929  1.1310 -0.9002
15366TIP3    H267514   1.465   4.434  16.856 -1.2311  0.7095 -1.3663
15367TIP3   OH267515   6.185   3.407  16.240 -0.0225 -0.1472  0.3691
15367TIP3    H167516   6.275   3.376  16.231  0.6476  2.1724 -2.1064
15367TIP3    H267517   6.136   3.354  16.176 -0.3458 -0.9724  1.2715
15368TIP3   OH267518   2.423   4.814   0.593  0.0152  0.3530  0.1485
15368TIP3    H167519   2.462   4.844   0.511  0.5073 -1.9092 -0.5164
15368TIP3    H267520   2.435   4.887   0.654  1.5630  1.2797 -1.1962
15369TIP3   OH267521   0.367   4.149  12.306  0.0200 -0.6268  0.4207
15369TIP3    H167522   0.347   4.222  12.365  1.2907 -1.8978  2.5041
15369TIP3    H267523   0.371   4.190  12.219 -3.4736  1.0504  0.8700
15370TIP3   OH267524   3.210   0.344  14.139  0.8016 -0.3265 -0.0421
15370TIP3    H167525   3.182   0.387  14.059  2.5007 -0.2443 -0.6331
15370TIP3    H267526   3.136   0.288  14.164 -0.7488  1.5339 -0.2452
15371TIP3   OH267527   0.266   0.031   5.058  0.6526 -0.1238  0.0697
15371TIP3    H167528   0.345  -0.013   5.026 -0.0942 -1.3130 -0.2099
15371TIP3    H267529   0.277   0.035   5.153  1.0839 -0.1959  0.0246
15372TIP3   OH267530   6.301   0.983   2.126  0.4885 -0.2034 -0.1202
15372TIP3    H167531   6.323   1.001   2.217  2.7621  0.1275 -0.6509
15372TIP3    H267532   6.254   0.900   2.128  1.4848 -0.7724  1.2707
15373TIP3   OH267533   5.504   3.658   5.491 -0.3496  0.1753  0.0795
15373TIP3    H167534   5.590   3.650   5.531 -1.0675 -0.9654  1.5106
15373TIP3    H267535   5.516   3.629   5.400  0.6001 -0.8374  0.5062
15374TIP3   OH267536   5.528   6.567   2.657  0.2179 -0.3701  0.3729
15374TIP3    H167537   5.547   6.660   2.647  1.3177 -0.6465 -0.2525
15374TIP3    H267538   5.591   6.537   2.723  1.5023 -1.1322 -1.1287
15375TIP3   OH267539   0.016   1.731  16.891 -0.4051 -0.0212 -0.0657
15375TIP3    H167540   0.082   1.799  16.905  0.2369 -0.6218 -0.1087
15375TIP3    H267541   0.011   1.685  16.974  1.5467 -1.9687 -0.9321
15376TIP3   OH267542   5.123   1.185  16.389  0.3645 -0.4573  0.0798
15376TIP3    H167543   5.185   1.208  16.458  0.8097  1.1916 -0.8220
15376TIP3    H267544   5.112   1.091  16.398  2.7288 -0.7593  0.5044
15377TIP3   OH267545   6.160   0.726   0.111 -0.1225 -0.1971 -0.0115
15377TIP3    H167546   6.109   0.771   0.179  0.2444 -0.2078  0.2729
15377TIP3    H267547   6.191   0.797   0.054  2.1289  0.1838  1.5416
15378TIP3   OH267548   6.178   6.718   0.111  0.1911  0.1156  0.0759
15378TIP3    H167549   6.251   6.757   0.063 -0.5872  0.8372 -0.5528
15378TIP3    H267550   6.127   6.793   0.142 -0.7708 -0.3752 -0.2658
15379TIP3   OH267551   5.961   0.406   3.213  0.3324  0.1934 -0.4505
15379TIP3    H167552   6.047   0.365   3.211  0.2764  0.0852 -0.7108
15379TIP3    H267553   5.959   0.461   3.134 -0.1193 -0.3884 -0.8523
15380TIP3   OH267554   5.969   5.121   6.452  0.0405 -0.4952 -0.1338
15380TIP3    H167555   6.051   5.072   6.464 -0.3420 -1.3358 -0.7864
15380TIP3    H267556   5.997   5.210   6.432  0.7783 -0.5987  0.3913
15381TIP3   OH267557   0.510   5.169  16.290  0.0312  0.0928 -0.4514
15381TIP3    H167558   0.498   5.255  16.249 -1.5585 -0.5202 -1.3697
15381TIP3    H267559   0.596   5.173  16.330  0.1751  1.9617 -0.8646
15382TIP3   OH267560   6.639   0.143  17.101  0.0165 -0.7832  0.2461
15382TIP3    H167561   6.703   0.185  17.158 -0.0685 -0.8369  0.3827
15382TIP3    H267562   6.691   0.093  17.039  0.3301  2.3315 -2.2781
15383TIP3   OH267563   4.349   5.982   5.966  0.3804  0.4768  0.5097
15383TIP3    H167564   4.435   5.954   5.936  0.0111  0.6386 -0.7661
15383TIP3    H267565   4.288   5.917   5.931 -0.2711  1.7286 -0.8168
15384TIP3   OH267566   1.020   1.959   3.882 -0.3224  0.4291  0.0780
15384TIP3    H167567   1.000   1.918   3.965 -2.0483  1.7847  0.3918
15384TIP3    H267568   0.959   1.920   3.820  0.8736 -0.4881 -0.5789
15385TIP3   OH267569   2.628   1.566  13.365  0.1265  0.6146 -0.6745
15385TIP3    H167570   2.625   1.596  13.456 -0.4421  2.2517 -1.2070
15385TIP3    H267571   2.720   1.570  13.341  0.1208  1.4259 -0.5635
15386TIP3   OH267572   5.455   1.443   4.811  0.5156 -0.6640 -0.2881
15386TIP3    H167573   5.385   1.407   4.757  1.6431 -0.7670 -1.7460
15386TIP3    H267574   5.493   1.367   4.855  1.0506 -0.9001 -1.1377
15387TIP3   OH267575   2.830   0.150   0.262 -0.6963 -0.6479 -0.2388
15387TIP3    H167576   2.801   0.094   0.333 -0.8568 -1.7241 -1.1283
15387TIP3    H267577   2.755   0.154   0.202 -1.0606  1.3378  0.2616
15388TIP3   OH267578   5.731   6.776  13.366  0.0538  0.1737  0.0851
15388TIP3    H167579   5.740   6.719  13.442 -2.2978 -0.1624  0.1940
15388TIP3    H267580   5.802   6.840  13.374 -0.1952  0.2105  2.6225
15389TIP3   OH267581   5.646   4.352  12.735 -0.6911 -0.2823  0.1219
15389TIP3    H167582   5.643   4.439  12.696 -0.7760 -0.7730 -1.0029
15389TIP3    H267583   5.560   4.340  12.776 -1.4413 -0.6046 -1.4763
15390TIP3   OH267584   3.455   2.080   3.669 -0.2288  0.1378 -0.3327
15390TIP3    H167585   3.527   2.124   3.715  0.1743 -0.0494 -0.7707
15390TIP3    H267586   3.398   2.048   3.738 -0.3458  1.0411  0.0070
15391TIP3   OH267587   0.944   2.359   4.651  0.0750 -0.3447 -0.0107
15391TIP3    H167588   0.926   2.449   4.625  0.0227 -0.1867  0.5531
15391TIP3    H267589   0.897   2.305   4.587  0.4763  0.0215 -0.6142
15392TIP3   OH267590   0.055   0.753  16.879 -0.0074  0.8683 -0.4671
15392TIP3    H167591   0.012   0.714  16.803 -2.1931 -0.2232  1.2152
15392TIP3    H267592  -0.012   0.808  16.919  0.6137  0.3084  1.4529
15393TIP3   OH267593   2.797   2.745   0.382  1.1488  0.1617 -0.1157
15393TIP3    H167594   2.778   2.804   0.309 -1.5950 -0.6427 -0.1509
15393TIP3    H267595   2.818   2.661   0.341 -2.0821 -0.7752 -0.1222
15394TIP3   OH267596   2.488   2.469  14.352  0.3143 -0.1351  0.2732
15394TIP3    H167597   2.528   2.391  14.314  1.0101  0.1211  0.4726
15394TIP3    H267598   2.558   2.509  14.404 -0.7376 -0.7976  2.3122
15395TIP3   OH267599   0.458   5.372   1.961  0.3056  0.6160  0.6491
15395TIP3    H167600   0.482   5.280   1.944  0.6988  0.9836 -0.9529
15395TIP3    H267601   0.420   5.371   2.049 -0.7872 -1.2837  0.2053
15396TIP3   OH267602   4.237   2.348   5.233  0.1626  0.5940  0.3155
15396TIP3    H167603   4.219   2.356   5.139 -1.0501  0.7498  0.5489
15396TIP3    H267604   4.229   2.254   5.251 -1.4084  0.7541  0.5865
15397TIP3   OH267605   4.826   4.432   5.807 -0.1867  0.3354 -0.1335
15397TIP3    H167606   4.885   4.363   5.839 -0.8243 -0.1746 -0.0515
15397TIP3    H267607   4.800   4.402   5.720 -1.4755 -0.1698  0.4050
15398TIP3   OH267608   4.937   3.356   1.250  0.1872 -0.3317  0.1314
15398TIP3    H167609   4.921   3.364   1.156  2.0263  1.8527 -0.0913
15398TIP3    H267610   4.998   3.282   1.257  1.0413  0.2768 -0.5800
15399TIP3   OH267611   6.200   1.810   6.495 -1.0000 -0.1874  0.2007
15399TIP3    H167612   6.105   1.809   6.510 -1.2419  1.9310 -0.8117
15399TIP3    H267613   6.233   1.874   6.557 -0.9005  2.3794 -2.3058
15400TIP3   OH267614   0.967   6.008  16.957  0.4754 -0.1756 -0.2728
15400TIP3    H167615   1.016   6.090  16.963  1.1230 -0.5435 -0.4082
15400TIP3    H267616   0.910   6.008  17.034  0.9451  0.0975  0.0797
15401TIP3   OH267617   2.820   5.393   6.232  0.0672 -1.4656 -0.4939
15401TIP3    H167618   2.915   5.396   6.247  0.1126 -0.7682 -0.8854
15401TIP3    H267619   2.797   5.481   6.202 -0.9054 -1.2936  0.6878
15402TIP3   OH267620   6.221   1.170   4.987 -0.1686 -0.6259  0.4945
15402TIP3    H167621   6.207   1.255   5.028 -1.2631 -1.1284  1.2050
15402TIP3    H267622   6.177   1.177   4.902 -2.4493 -1.2295  1.5337
15403TIP3   OH267623   6.344   5.115  16.265  0.2813  0.2971  0.1757
15403TIP3    H167624   6.382   5.048  16.208 -1.3418  0.6551 -1.3894
15403TIP3    H267625   6.413   5.180  16.274  0.8860 -0.2066 -0.6359
15404TIP3   OH267626   3.984   0.474   2.862 -1.0554  0.0498 -0.5970
15404TIP3    H167627   3.922   0.468   2.934 -1.2298  0.0611 -0.7466
15404TIP3    H267628   4.069   0.455   2.902 -1.3187 -1.3790 -0.6595
15405TIP3   OH267629   3.438   4.945  12.007  0.0484 -0.1800  0.4979
15405TIP3    H167630   3.399   4.982  12.087 -2.9837 -0.3678 -0.7406
15405TIP3    H267631   3.474   4.861  12.035 -1.2896 -0.4244  1.6645
15406TIP3   OH267632   3.688   1.126  14.347  0.2953  0.1215  0.1720
15406TIP3    H167633   3.702   1.049  14.403 -1.9636  0.9340  2.0437
15406TIP3    H267634   3.707   1.200  14.403 -1.8261  0.9685 -0.1077
15407TIP3   OH267635   2.488   6.818   0.690 -0.1237  0.6034  0.1762
15407TIP3    H167636   2.438   6.762   0.631  0.3676  0.3861 -0.0353
15407TIP3    H267637   2.422   6.866   0.739 -0.5395  0.3828 -0.1659
15408TIP3   OH267638   2.127   3.018  11.745 -0.3235 -0.1476 -0.2854
15408TIP3    H167639   2.118   2.959  11.671  3.1617  0.6025 -1.4791
15408TIP3    H267640   2.209   2.992  11.787 -0.5140  1.5822  1.2877
15409TIP3   OH267641   4.388   3.937   0.410 -0.0021 -0.2884 -0.2956
15409TIP3    H167642   4.397   3.965   0.501  0.7478 -0.6224 -0.2623
15409TIP3    H267643   4.438   4.002   0.360 -1.6257  0.7698 -0.6509
15410TIP3   OH267644   4.058   0.797  13.189  0.1472  0.3196  0.2376
15410TIP3    H167645   4.140   0.756  13.161  0.1743  1.1052 -0.9003
15410TIP3    H267646   4.069   0.810  13.284  0.2442 -1.9808  0.5990
15411TIP3   OH267647   0.651   6.518  15.208  0.1934 -0.2172  0.4962
15411TIP3    H167648   0.649   6.499  15.301 -1.5481  1.2074  0.8218
15411TIP3    H267649   0.743   6.529  15.187  0.9401 -3.8709  1.2492
15412TIP3   OH267650   1.262   2.874  10.340  0.0023  0.1732 -0.0094
15412TIP3    H167651   1.251   2.958  10.384 -1.0218 -0.2575  0.5931
15412TIP3    H267652   1.180   2.862  10.291  0.0159 -0.6047  0.1483
15413TIP3   OH267653   6.358   3.710  10.838 -0.4197  0.0357  0.7887
15413TIP3    H167654   6.375   3.617  10.823 -0.7812 -0.2237  1.8733
15413TIP3    H267655   6.287   3.711  10.903  1.2888  1.0337  2.7667
15414TIP3   OH267656   1.514   5.553   5.064 -0.1538 -0.2460 -0.6922
15414TIP3    H167657   1.441   5.492   5.074 -0.2795  0.1700  1.5669
15414TIP3    H267658   1.479   5.637   5.096  1.6795 -0.3838  2.0521
15415TIP3   OH267659   5.492   3.401  13.071 -0.3829  0.6811 -0.3845
15415TIP3    H167660   5.525   3.312  13.061 -1.5856  0.2815 -0.9455
15415TIP3    H267661   5.524   3.429  13.157 -0.5903 -0.5589  0.1070
15416TIP3   OH267662   0.486   1.399  10.293  0.3907  0.1955  0.0952
15416TIP3    H167663   0.559   1.338  10.292  0.5312  0.0977  3.8104
15416TIP3    H267664   0.524   1.481  10.324 -0.9331  0.3247  1.4638
15417TIP3   OH267665   5.599   6.396   5.348  0.0815  0.4597 -0.3051
15417TIP3    H167666   5.609   6.485   5.313  0.8458  1.5550  2.4582
15417TIP3    H267667   5.523   6.361   5.302  0.4683  2.0746 -2.3350
15418TIP3   OH267668   4.419   3.361  14.668  0.1403 -0.3228 -0.4883
15418TIP3    H167669   4.332   3.322  14.658  0.0784 -0.4086  0.2725
15418TIP3    H267670   4.409   3.450  14.633 -0.5605  0.0387  0.5639
15419TIP3   OH267671   2.869   0.420  14.342 -0.3546  0.0883  0.0224
15419TIP3    H167672   2.861   0.511  14.314  3.0589  0.6264  0.3769
15419TIP3    H267673   2.834   0.419  14.431  0.0320  1.2043  0.1998
15420TIP3   OH267674   5.702   0.238  15.594 -0.2380  0.0798 -0.0544
15420TIP3    H167675   5.726   0.330  15.591  1.1120 -0.2688 -0.6119
15420TIP3    H267676   5.752   0.202  15.668 -2.5885  0.2470  1.7326
15421TIP3   OH267677   0.934   1.335  13.398  0.2138  0.2820  0.1814
15421TIP3    H167678   1.015   1.382  13.417 -0.3630  1.0241  0.9009
15421TIP3    H267679   0.955   1.279  13.323  0.8291  1.9887 -0.9754
15422TIP3   OH267680   5.045   5.776   0.936 -0.6804 -0.2560  0.2876
15422TIP3    H167681   5.008   5.797   0.850 -0.0106  3.0922  0.7144
15422TIP3    H267682   5.122   5.833   0.944  1.2768 -2.8725  1.8049
15423TIP3   OH267683   5.187   3.958   3.233 -0.4475 -0.4290  0.1037
15423TIP3    H167684   5.236   3.921   3.160 -0.5470 -0.4311  0.0378
15423TIP3    H267685   5.147   3.883   3.277 -0.9086 -0.3761 -0.2179
15424TIP3   OH267686   5.955   5.101  13.854  0.3993 -0.4095  0.6271
15424TIP3    H167687   5.941   5.031  13.791  2.1924 -1.0215  0.8573
15424TIP3    H267688   5.991   5.173  13.802  2.2591 -1.0521  0.9531
15425TIP3   OH267689   6.418   4.161   2.803  0.1686 -0.0564  0.3897
15425TIP3    H167690   6.412   4.071   2.772 -1.3136  0.6082 -1.4330
15425TIP3    H267691   6.338   4.203   2.772  1.8836  2.5116 -0.9751
15426TIP3   OH267692   0.166   3.610   0.946 -0.1521 -0.3306  0.9050
15426TIP3    H167693   0.139   3.630   1.035 -1.1319 -0.3892  0.6325
15426TIP3    H267694   0.088   3.625   0.893  0.8867  1.5702 -0.2227
15427TIP3   OH267695   2.512   5.408   4.607 -0.4997  0.2423  0.3869
15427TIP3    H167696   2.605   5.422   4.627  0.0561 -0.8048 -1.2424
15427TIP3    H267697   2.474   5.378   4.689 -0.0951  3.4011  1.9151
15428TIP3   OH267698   1.308   3.157  15.342 -0.0892  0.3173 -0.2811
15428TIP3    H167699   1.394   3.196  15.324 -0.6206  1.9550  0.4968
15428TIP3    H267700   1.326   3.082  15.397  0.8733  0.3911 -0.4784
15429TIP3   OH267701   3.311   5.678   3.329 -0.3835 -0.2194 -0.0031
15429TIP3    H167702   3.326   5.602   3.385 -0.1682  0.4709  0.9028
15429TIP3    H267703   3.381   5.675   3.264  0.3568 -0.1321  0.7730
15430TIP3   OH267704   5.099   2.580  15.565  0.2669  0.1217 -0.0415
15430TIP3    H167705   5.192   2.569  15.583 -0.1004 -1.1329  1.2726
15430TIP3    H267706   5.064   2.621  15.644 -0.5126 -0.6105  0.0016
15431TIP3   OH267707   6.311   4.725  13.880  0.2688  0.0252 -0.5900
15431TIP3    H167708   6.346   4.665  13.814  1.1672  1.4462 -1.4571
15431TIP3    H267709   6.219   4.700  13.888 -0.1241  0.4007 -3.1073
15432TIP3   OH267710   3.061   6.728  10.586  0.0842  0.2757 -0.6317
15432TIP3    H167711   3.015   6.701  10.506 -0.9171  0.3706 -0.1004
15432TIP3    H267712   3.034   6.819  10.600 -2.0340 -0.5414  1.3247
15433TIP3   OH267713   3.356   3.475   4.984  0.0115  0.3553  0.0967
15433TIP3    H167714   3.350   3.559   5.029 -0.5549  0.8486 -0.8491
15433TIP3    H267715   3.265   3.449   4.970  0.1830 -0.3172  0.1909
15434TIP3   OH267716   3.597   5.509   1.389 -0.3222  0.3320  0.2514
15434TIP3    H167717   3.675   5.543   1.344 -0.2985 -0.9678 -0.7340
15434TIP3    H267718   3.570   5.581   1.446  1.7036  0.7717  0.7628
15435TIP3   OH267719   4.985   4.973   4.551  0.0044  0.1545  0.1737
15435TIP3    H167720   4.903   5.013   4.521  0.6668  1.0264 -0.5691
15435TIP3    H267721   4.985   4.886   4.513 -0.3572  0.3315 -0.2425
15436TIP3   OH267722   5.869   2.202   0.524 -0.1301 -0.4749  0.0997
15436TIP3    H167723   5.786   2.186   0.478 -0.0015 -0.8512 -0.0018
15436TIP3    H267724   5.934   2.153   0.473  0.0765 -0.5734  0.4584
15437TIP3   OH267725   0.100   1.898   0.158  0.5816 -0.7803  0.1584
15437TIP3    H167726   0.022   1.942   0.192 -0.7226 -1.6421 -1.6062
15437TIP3    H267727   0.173   1.950   0.194 -0.7998  0.7801  0.8750
15438TIP3   OH267728   1.641   6.671  12.486  0.1042  1.0439 -0.1796
15438TIP3    H167729   1.714   6.614  12.460 -0.5239  0.1393 -0.0049
15438TIP3    H267730   1.620   6.720  12.408 -1.9141 -1.7928 -1.5754
15439TIP3   OH267731   0.441   2.126   4.193 -0.1200 -0.0780 -0.2196
15439TIP3    H167732   0.408   2.138   4.105 -0.4103 -2.4329 -0.4976
15439TIP3    H267733   0.513   2.063   4.184  1.7247  1.7246  0.9061
15440TIP3   OH267734   0.250   1.339  16.140 -0.0611 -0.3181  0.0649
15440TIP3    H167735   0.260   1.282  16.064  4.1366  0.3944 -0.1895
15440TIP3    H267736   0.288   1.422  16.113 -1.4486  1.0218  1.9884
15441TIP3   OH267737   3.550   5.477  12.277 -0.0630  0.3469  0.6522
15441TIP3    H167738   3.626   5.427  12.307  1.0525  1.1923 -0.6430
15441TIP3    H267739   3.543   5.456  12.184  0.4740  2.6180  0.0521
15442TIP3   OH267740   0.724   1.278   2.099  0.1269  0.3115 -0.6147
15442TIP3    H167741   0.764   1.355   2.140  0.3068 -1.6934  3.4050
15442TIP3    H267742   0.793   1.212   2.098 -0.9563 -0.8499 -0.8594
15443TIP3   OH267743   2.950   6.225  16.755  0.4925  0.0873 -0.2404
15443TIP3    H167744   2.981   6.247  16.843 -0.9317  0.6452  0.1583
15443TIP3    H267745   2.967   6.303  16.703  0.7959 -0.0244 -0.3075
15444TIP3   OH267746   3.078   5.214  13.184 -0.2535 -0.2001 -0.1462
15444TIP3    H167747   3.137   5.202  13.110  0.6444 -0.3362  0.5704
15444TIP3    H267748   3.018   5.139  13.180 -0.8460  0.3101 -1.2815
15445TIP3   OH267749   5.650   0.621   1.255 -0.2586  0.5744 -0.5876
15445TIP3    H167750   5.662   0.569   1.335 -0.2638  0.5978 -0.5718
15445TIP3    H267751   5.605   0.700   1.284 -1.5312 -0.0406 -0.8369
15446TIP3   OH267752   5.950   1.396   0.072  0.2224  0.0159  0.3880
15446TIP3    H167753   5.875   1.345   0.102 -0.9287  1.0482 -0.5956
15446TIP3    H267754   5.951   1.473   0.129 -2.2622  2.2220 -2.2540
15447TIP3   OH267755   4.400   3.443   1.962 -0.2119 -0.0336  0.3611
15447TIP3    H167756   4.427   3.463   1.873  2.8339 -0.0721  1.1866
15447TIP3    H267757   4.456   3.371   1.989 -1.5520 -0.5072  2.1117
15448TIP3   OH267758   2.299   2.370  16.552 -0.1924  0.1924 -0.2706
15448TIP3    H167759   2.349   2.310  16.607 -0.4833  0.3359  0.1497
15448TIP3    H267760   2.365   2.430  16.517  0.4154 -1.4799 -2.2060
15449TIP3   OH267761   3.213   2.654  12.662 -0.2732 -0.1712  0.4818
15449TIP3    H167762   3.122   2.647  12.632  0.0646 -1.6311 -0.3107
15449TIP3    H267763   3.265   2.621  12.589  1.0350  2.0213  0.3550
15450TIP3   OH267764   4.968   5.993  13.969 -0.0222  0.0377  0.0504
15450TIP3    H167765   4.954   6.056  14.040  0.2891 -0.0256  0.1707
15450TIP3    H267766   4.880   5.973  13.937 -0.3137 -1.1757  1.5105
15451TIP3   OH267767   2.967   6.599   2.218  0.0779  0.1616 -0.0422
15451TIP3    H167768   2.941   6.670   2.158  0.9854  0.1043 -0.5204
15451TIP3    H267769   2.952   6.635   2.305 -2.4992 -0.2006 -0.2518
15452TIP3   OH267770   1.130   5.315   3.398  0.4195 -0.4374  0.1767
15452TIP3    H167771   1.081   5.241   3.361 -1.6852  0.9232  0.0302
15452TIP3    H267772   1.114   5.310   3.492  2.1135 -1.3700  0.4567
15453TIP3   OH267773   4.959   4.889  16.125 -0.0776  0.6252 -0.1844
15453TIP3    H167774   4.929   4.908  16.036 -1.6135 -0.9101 -0.0523
15453TIP3    H267775   4.887   4.917  16.181  0.6454  1.0698  0.5435
15454TIP3   OH267776   5.530   4.664  13.957 -0.2019 -0.3915 -0.5619
15454TIP3    H167777   5.468   4.697  14.022  1.2356 -1.4084  1.4029
15454TIP3    H267778   5.588   4.605  14.005  2.1784  0.3210 -2.3460
15455TIP3   OH267779   6.173   6.071  12.005 -0.7606 -0.0547  0.1620
15455TIP3    H167780   6.222   6.056  12.086 -1.6198 -1.0846  0.5253
15455TIP3    H267781   6.216   6.146  11.964  0.8633 -0.6842  0.6428
15456TIP3   OH267782   4.902   5.962   6.962 -0.0527  0.0322 -1.2915
15456TIP3    H167783   4.828   5.981   6.905  0.1659  1.6951 -1.0787
15456TIP3    H267784   4.979   5.989   6.912  0.1239  1.7483 -0.1973
15457TIP3   OH267785   1.958   5.009   4.256 -0.1699 -0.4729 -0.5673
15457TIP3    H167786   1.951   5.104   4.268 -1.1215 -0.5812 -0.2069
15457TIP3    H267787   1.936   4.995   4.164  0.3796 -0.3111 -0.7283
15458TIP3   OH267788   2.301   4.804   3.731 -0.4147  0.2816 -0.4775
15458TIP3    H167789   2.328   4.876   3.788  1.6464 -1.6206  1.1236
15458TIP3    H267790   2.345   4.823   3.647 -0.3312  1.1335 -0.2568
15459TIP3   OH267791   5.651   1.673   2.072  0.2314 -0.4197 -0.6172
15459TIP3    H167792   5.573   1.620   2.059 -0.9065  0.9902  0.1431
15459TIP3    H267793   5.671   1.708   1.986 -0.8893  0.3787 -0.5775
15460TIP3   OH267794   5.546   4.623   2.481 -0.4489  0.3290 -0.3690
15460TIP3    H167795   5.630   4.578   2.474 -0.2380  0.4299  1.1964
15460TIP3    H267796   5.521   4.613   2.573 -1.8904  0.7653 -0.6933
15461TIP3   OH267797   6.803   4.615  15.188 -0.1353 -0.1321 -0.0045
15461TIP3    H167798   6.781   4.688  15.129  0.5749 -1.0736 -1.4682
15461TIP3    H267799   6.888   4.638  15.224 -1.0161  0.9458  1.5422
15462TIP3   OH267800   2.686   6.195   5.552 -0.6927  0.3220  0.1805
15462TIP3    H167801   2.633   6.272   5.531  1.3236  1.6842 -0.2323
15462TIP3    H267802   2.770   6.232   5.581  0.6943 -1.7175 -1.0072
15463TIP3   OH267803   5.882   3.047  12.709  0.3628 -0.2842 -0.0432
15463TIP3    H167804   5.899   3.130  12.666 -0.0254  0.5603  1.3694
15463TIP3    H267805   5.790   3.027  12.689  0.5370 -0.5354 -0.6183
15464TIP3   OH267806   4.805   6.281   1.669 -0.3393  0.1676  0.4540
15464TIP3    H167807   4.796   6.227   1.747  1.5793 -0.7479  0.1157
15464TIP3    H267808   4.847   6.361   1.701 -0.6483  0.2999  0.5326
15465TIP3   OH267809   0.321   1.642   2.287  0.2393  0.1778  0.3325
15465TIP3    H167810   0.237   1.627   2.243  0.0881  1.2709  0.2149
15465TIP3    H267811   0.366   1.707   2.231  0.5859  0.6185  1.1088
15466TIP3   OH267812   6.405   0.100   2.875  0.1851  0.2079  0.2384
15466TIP3    H167813   6.474   0.166   2.879 -0.6574  1.1358  0.0366
15466TIP3    H267814   6.397   0.079   2.782  0.2890  0.0081  0.2760
15467TIP3   OH267815   5.983   0.823  13.463  0.1561 -0.5355  0.3123
15467TIP3    H167816   5.928   0.772  13.522  0.8538 -1.0775  0.5177
15467TIP3    H267817   6.010   0.898  13.515  1.2763 -1.3261  0.9302
15468TIP3   OH267818   1.722   3.286   5.933 -0.6526  0.2243  0.6023
15468TIP3    H167819   1.663   3.270   5.859 -1.2564  0.9261  0.9215
15468TIP3    H267820   1.719   3.380   5.946 -0.5118  0.1083  1.5026
15469TIP3   OH267821   0.659   2.993  15.891 -0.0851  0.0609 -0.2360
15469TIP3    H167822   0.652   3.025  15.801  2.3715 -0.8824 -0.8433
15469TIP3    H267823   0.582   2.937  15.902  0.9371 -2.0668 -2.7898
15470TIP3   OH267824   0.539   4.390  16.506  0.1493 -0.3848  0.1585
15470TIP3    H167825   0.528   4.296  16.521 -0.5844 -0.6507 -1.7062
15470TIP3    H267826   0.532   4.399  16.411 -1.1298  1.7235  0.3998
15471TIP3   OH267827   4.277   1.461  16.552 -0.3763 -0.4604  0.4715
15471TIP3    H167828   4.204   1.447  16.492 -0.6595 -0.4873  0.8176
15471TIP3    H267829   4.273   1.554  16.573  1.1081  0.0601 -1.3200
15472TIP3   OH267830   6.245   2.051   5.210 -0.1869  0.2781  0.3455
15472TIP3    H167831   6.226   2.113   5.139  0.6843  0.8504  0.5912
15472TIP3    H267832   6.299   1.984   5.169  1.7536  1.4802  0.7654
15473TIP3   OH267833   2.813   5.650   1.858  0.6667 -0.0194  0.0499
15473TIP3    H167834   2.863   5.655   1.777  0.7610  1.7815  0.1846
15473TIP3    H267835   2.738   5.707   1.843  0.2478 -0.3229  0.9378
15474TIP3   OH267836   5.354   2.223  14.772  0.2357 -0.2559  0.2322
15474TIP3    H167837   5.368   2.314  14.799  0.5678 -0.8189  2.0733
15474TIP3    H267838   5.308   2.183  14.845 -0.9870 -1.3028 -1.0468
15475TIP3   OH267839   1.758   0.161  11.536  0.1233  0.1133  0.4604
15475TIP3    H167840   1.778   0.183  11.445  1.4043  0.2227  0.7438
15475TIP3    H267841   1.805   0.079  11.552  1.4011  1.0023  1.5124
15476TIP3   OH267842   5.383   0.934  16.932 -0.3918  0.2891 -0.0676
15476TIP3    H167843   5.433   1.002  16.977 -0.1721 -0.5693  1.0341
15476TIP3    H267844   5.339   0.980  16.860 -1.0158  1.7753  1.2132
15477TIP3   OH267845   1.120   4.286   5.182  0.2499  0.3721  0.2391
15477TIP3    H167846   1.213   4.268   5.167 -0.2627 -0.5718 -2.1909
15477TIP3    H267847   1.090   4.211   5.233  0.6522  0.3148  0.3993
15478TIP3   OH267848   1.406   6.589  12.609  0.3829 -0.2459  0.5973
15478TIP3    H167849   1.354   6.669  12.601 -0.9095 -1.0511  0.6579
15478TIP3    H267850   1.492   6.614  12.576  0.1403  1.2782  1.0011
15479TIP3   OH267851   1.374   2.097   3.922 -0.0547  0.3195  0.0407
15479TIP3    H167852   1.429   2.073   3.848  0.4116  0.1815  0.4247
15479TIP3    H267853   1.384   2.191   3.930  0.1073  0.2988  0.0908
15480TIP3   OH267854   3.625   0.677   2.542  0.0320 -0.1769 -0.1803
15480TIP3    H167855   3.654   0.621   2.470  1.9913  2.2516 -1.4469
15480TIP3    H267856   3.673   0.645   2.618 -3.1186 -3.6931  0.6167
15481TIP3   OH267857   0.397   4.868   1.940  0.1129  0.1039 -0.2425
15481TIP3    H167858   0.320   4.865   1.884  0.4960  1.7266 -0.9069
15481TIP3    H267859   0.416   4.776   1.960 -1.7730 -0.3377 -0.3309
15482TIP3   OH267860   3.071   0.855   2.410 -0.7406  0.2069 -0.4097
15482TIP3    H167861   3.068   0.841   2.316  0.2999  0.6599 -0.5241
15482TIP3    H267862   3.093   0.770   2.447 -0.7424  0.1239 -0.6000
15483TIP3   OH267863   1.328   0.744   2.473  0.0888  0.5435  0.1992
15483TIP3    H167864   1.365   0.829   2.451  1.3692 -0.1801 -0.5676
15483TIP3    H267865   1.379   0.681   2.422 -0.5602 -0.7285  1.0499
15484TIP3   OH267866   1.244   2.477  14.523 -0.3233 -0.9775  0.6246
15484TIP3    H167867   1.266   2.515  14.438 -0.4693 -0.7310  0.6944
15484TIP3    H267868   1.311   2.511  14.583 -1.5696  0.8056  1.1004
15485TIP3   OH267869   3.210   6.812  10.877 -0.3234 -0.0649  0.8114
15485TIP3    H167870   3.230   6.892  10.926  0.2693 -0.8908  1.9672
15485TIP3    H267871   3.288   6.798  10.822 -0.8507  0.6810 -0.1597
15486TIP3   OH267872   1.771   4.360  16.770  0.4708 -0.2277  0.3176
15486TIP3    H167873   1.758   4.324  16.857 -0.1713  2.2044  1.3154
15486TIP3    H267874   1.843   4.423  16.781  1.5499 -1.1096 -1.3246
15487TIP3   OH267875   3.173   4.754   2.723 -0.3301 -0.2803  0.1126
15487TIP3    H167876   3.191   4.688   2.656  1.4396 -2.4650  2.5407
15487TIP3    H267877   3.140   4.704   2.797  0.8597  1.5775  1.9825
15488TIP3   OH267878   2.295   1.550  10.937 -0.2652  0.4629 -0.2329
15488TIP3    H167879   2.273   1.458  10.949 -1.5891  0.6294 -1.1853
15488TIP3    H267880   2.375   1.563  10.989 -0.9004 -0.8433  1.1388
15489TIP3   OH267881   1.226   2.235  14.123  0.0896 -0.0081 -0.0842
15489TIP3    H167882   1.222   2.193  14.037 -0.6982  0.5910 -0.3481
15489TIP3    H267883   1.320   2.242  14.142  0.3456  1.5663 -1.7493
15490TIP3   OH267884   4.381   6.573  16.096  0.0497  0.4146 -0.3552
15490TIP3    H167885   4.314   6.607  16.036 -0.1560  0.5561 -0.0490
15490TIP3    H267886   4.444   6.645  16.104 -0.9722  1.2089  1.1941
15491TIP3   OH267887   1.772   2.072   2.434  0.2908 -0.5827 -0.5802
15491TIP3    H167888   1.848   2.019   2.456 -0.4559 -1.1531  0.7330
15491TIP3    H267889   1.700   2.034   2.485 -0.0321  2.4551  1.5312
15492TIP3   OH267890   6.119   0.662   5.621 -0.0429  0.5234  0.5571
15492TIP3    H167891   6.077   0.610   5.689 -0.1186 -0.9817 -0.5779
15492TIP3    H267892   6.052   0.727   5.597 -0.0588  0.9909  1.7894
15493TIP3   OH267893   5.964   1.635   0.958 -0.2457 -0.7899  0.4645
15493TIP3    H167894   6.005   1.722   0.953  0.5517 -0.9782  2.7048
15493TIP3    H267895   5.873   1.650   0.932  0.2188  0.4164 -0.6065
15494TIP3   OH267896   0.172   5.187   1.296 -0.1271  0.1233 -0.0364
15494TIP3    H167897   0.243   5.164   1.356  0.0777  1.1443  0.1176
15494TIP3    H267898   0.161   5.281   1.305 -2.0235 -0.1063  0.5253
15495TIP3   OH267899   5.706   1.987   3.751  0.2088  0.4478  0.2049
15495TIP3    H167900   5.752   2.060   3.793  1.7641  0.1673 -0.8934
15495TIP3    H267901   5.757   1.970   3.672 -0.5565 -1.3363  0.0480
15496TIP3   OH267902   3.793   2.649   5.276 -0.2119 -0.4730  0.2584
15496TIP3    H167903   3.763   2.560   5.260  0.9053 -0.6491 -0.9856
15496TIP3    H267904   3.884   2.639   5.303  1.2273  0.4123 -3.6363
15497TIP3   OH267905   3.601   5.633  16.528  0.1570  0.2502 -0.2173
15497TIP3    H167906   3.527   5.586  16.490  1.0370 -0.5803 -0.9455
15497TIP3    H267907   3.577   5.725  16.520 -0.5507  0.0151 -0.9608
15498TIP3   OH267908   1.241   3.518   3.434  0.0943  0.5262 -0.0223
15498TIP3    H167909   1.261   3.517   3.341  1.6845  0.8792  0.2916
15498TIP3    H267910   1.192   3.437   3.449 -1.4221  1.1366 -1.3931
15499TIP3   OH267911   2.563   3.076  10.206 -0.0446  0.0709  0.3189
15499TIP3    H167912   2.534   3.012  10.141 -0.9448  0.2963  0.4860
15499TIP3    H267913   2.602   3.147  10.154  1.9002 -1.0279  0.1683
15500TIP3   OH267914   5.749   0.540  16.546 -0.3161  0.2054  0.1651
15500TIP3    H167915   5.691   0.517  16.619 -1.6386 -1.5998 -1.3567
15500TIP3    H267916   5.725   0.479  16.476  0.6144  2.0859 -1.9299
15501TIP3   OH267917   2.259   1.381   0.495  0.2676 -0.3321 -0.6474
15501TIP3    H167918   2.177   1.407   0.454  1.1867  1.4059 -1.4863
15501TIP3    H267919   2.247   1.289   0.517 -1.6082 -0.3158 -1.4698
15502TIP3   OH267920   0.264   0.946   3.176  0.1851 -0.0967 -0.2145
15502TIP3    H167921   0.219   0.986   3.250 -1.6307  0.0133 -1.3261
15502TIP3    H267922   0.221   0.862   3.163  1.7155 -0.9600 -0.0395
15503TIP3   OH267923   1.363   4.080  16.222 -0.9210  0.0335  0.5825
15503TIP3    H167924   1.377   4.136  16.298  2.9891 -2.3424  1.8811
15503TIP3    H267925   1.306   4.009  16.254  0.3025 -0.6884  1.2284
15504TIP3   OH267926   2.511   3.135  11.853 -0.8311  0.2670 -0.0405
15504TIP3    H167927   2.454   3.059  11.842  0.6090 -0.8425 -0.1541
15504TIP3    H267928   2.486   3.194  11.781  0.0499 -1.4372 -1.8266
15505TIP3   OH267929   5.200   0.166  11.795 -0.3483  0.4269  0.0374
15505TIP3    H167930   5.284   0.180  11.839  0.3822 -1.7863 -0.5136
15505TIP3    H267931   5.142   0.131  11.863 -0.6685  1.3728  0.2712
15506TIP3   OH267932   2.637   2.052   3.258  0.7372  0.6254 -0.0490
15506TIP3    H167933   2.648   2.059   3.353  0.2314 -0.6054  0.1139
15506TIP3    H267934   2.567   2.115   3.239  2.5645  2.8098 -0.0226
15507TIP3   OH267935   5.696   4.064  15.243  0.3155 -0.1127  0.2110
15507TIP3    H167936   5.780   4.025  15.217  0.3531  0.7665 -1.0761
15507TIP3    H267937   5.718   4.151  15.274 -0.0728 -0.0607  0.3465
15508TIP3   OH267938   0.158   4.703   4.299  0.7994 -0.0907 -0.1729
15508TIP3    H167939   0.145   4.693   4.205 -0.6338  1.1328 -0.1399
15508TIP3    H267940   0.218   4.632   4.322  0.5121 -0.9456 -1.8570
15509TIP3   OH267941   3.102   5.803  14.028  0.0414  0.1616  0.4878
15509TIP3    H167942   3.074   5.720  13.991  0.9926 -0.0248  0.1465
15509TIP3    H267943   3.144   5.779  14.111 -0.7792  0.4327  0.9923
15510TIP3   OH267944   1.924   2.083  12.160 -0.2454 -0.3097 -0.3489
15510TIP3    H167945   1.974   2.007  12.130  0.3171 -0.8683  1.8858
15510TIP3    H267946   1.836   2.069  12.127 -0.1830 -2.0127  0.1568
15511TIP3   OH267947   2.239   4.838   3.244 -0.5672 -0.5582  0.1383
15511TIP3    H167948   2.234   4.743   3.258  2.3496 -0.8910 -0.4849
15511TIP3    H267949   2.289   4.871   3.319  2.6242 -0.3014 -1.9342
15512TIP3   OH267950   5.759   3.228   0.461 -0.0489 -0.3629  0.0087
15512TIP3    H167951   5.754   3.134   0.443 -0.7182 -0.4117  0.3992
15512TIP3    H267952   5.728   3.270   0.381  1.0243 -0.4415 -0.4633
15513TIP3   OH267953   1.976   3.801   5.598 -0.6701 -0.2755 -0.3341
15513TIP3    H167954   2.015   3.764   5.519 -0.3646 -1.2611  0.2623
15513TIP3    H267955   2.050   3.844   5.643 -0.8510  0.3199 -0.5902
15514TIP3   OH267956   0.869   6.630   2.929 -0.1571 -0.3114 -0.0762
15514TIP3    H167957   0.943   6.681   2.961 -1.2323 -0.5939  3.2677
15514TIP3    H267958   0.826   6.687   2.865  1.5713  0.7948 -0.3222
15515TIP3   OH267959   0.585   6.463  14.698  0.3799 -0.4093  0.3818
15515TIP3    H167960   0.584   6.527  14.768 -3.2464  0.8704 -0.6462
15515TIP3    H267961   0.568   6.379  14.741 -0.7487  0.2017  1.1459
15516TIP3   OH267962   6.663   6.815  13.342 -0.8037  0.4830  0.3258
15516TIP3    H167963   6.724   6.784  13.275 -1.2717 -0.7665  0.4548
15516TIP3    H267964   6.705   6.892  13.379 -1.1909  2.1572 -2.4204
15517TIP3   OH267965   3.669   2.740  10.784 -0.0737 -0.7126 -0.0196
15517TIP3    H167966   3.713   2.715  10.865  0.8013 -0.8196 -0.5125
15517TIP3    H267967   3.739   2.741  10.718 -0.2638  1.9035 -0.2706
15518TIP3   OH267968   3.337   3.754   5.064  0.2559 -0.0450  0.2643
15518TIP3    H167969   3.274   3.813   5.105 -0.0592 -0.3973  0.2993
15518TIP3    H267970   3.401   3.811   5.021 -0.9282  0.3129 -1.0727
15519TIP3   OH267971   4.655   1.735  13.104  0.2792  0.1037 -0.1931
15519TIP3    H167972   4.750   1.729  13.092  0.1924  0.5078 -1.1855
15519TIP3    H267973   4.623   1.776  13.023 -0.6211  1.0260  0.5999
15520TIP3   OH267974   2.458   0.889  11.046 -0.2910 -0.1637  0.2143
15520TIP3    H167975   2.378   0.880  11.099 -0.4664 -1.1966 -0.1844
15520TIP3    H267976   2.432   0.944  10.973 -1.0695 -1.6184 -0.6582
15521TIP3   OH267977   4.907   5.809  12.597 -0.0364 -0.0288 -0.1559
15521TIP3    H167978   4.830   5.853  12.633  1.3406  2.0126  0.4765
15521TIP3    H267979   4.874   5.764  12.519 -2.2291 -0.9266  1.1780
15522TIP3   OH267980   2.390   2.064   4.824 -0.4374 -0.0458 -0.2400
15522TIP3    H167981   2.442   2.138   4.792 -0.1898 -1.3195 -3.0442
15522TIP3    H267982   2.456   2.000   4.853 -0.5124 -0.5378 -1.1314
15523TIP3   OH267983   2.963   3.825   1.036  0.1049  0.3849  0.0946
15523TIP3    H167984   2.986   3.734   1.021  1.2427  0.7759 -0.7523
15523TIP3    H267985   2.975   3.839   1.129 -0.0314 -0.3155  0.2195
15524TIP3   OH267986   5.335   1.833  11.986  0.8017 -0.1470  0.0270
15524TIP3    H167987   5.251   1.872  11.960  0.4878 -0.4234  0.6014
15524TIP3    H267988   5.317   1.794  12.072  1.8873  1.0033  0.8062
15525TIP3   OH267989   2.700   4.120   0.596  0.7580 -0.1052 -0.0215
15525TIP3    H167990   2.678   4.037   0.552 -1.1688  0.6808 -0.6270
15525TIP3    H267991   2.702   4.184   0.525  1.7575  0.4698  0.5136
15526TIP3   OH267992   6.199   5.490   2.264  0.1476 -0.1569 -0.2921
15526TIP3    H167993   6.137   5.437   2.314  1.2724 -0.6362  0.6525
15526TIP3    H267994   6.145   5.557   2.222 -0.6787  1.7601  3.4095
15527TIP3   OH267995   6.397   6.747   3.553  0.1416  0.7269  0.2361
15527TIP3    H167996   6.370   6.734   3.463 -1.2645  2.1387  0.4181
15527TIP3    H267997   6.468   6.812   3.548 -0.1706  1.0664  0.1604
15528TIP3   OH267998   4.766   0.579  12.468  0.2177 -0.3428  0.3561
15528TIP3    H167999   4.725   0.499  12.502  0.0339 -0.6036 -0.4557
15528TIP3    H268000   4.772   0.564  12.374 -1.6024  1.4090 -0.0915
15529TIP3   OH268001   4.833   4.697  12.082  0.4674  0.5863 -0.7026
15529TIP3    H168002   4.819   4.732  11.994 -2.1224 -0.3408 -0.7453
15529TIP3    H268003   4.902   4.632  12.071  1.9115  2.1677 -1.5269
15530TIP3   OH268004   5.928   1.390   3.604 -0.0924 -0.1385 -0.0447
15530TIP3    H168005   5.862   1.441   3.652  2.6894  1.1360  2.7223
15530TIP3    H268006   5.920   1.422   3.514 -3.2968 -0.1841  0.1038
15531TIP3   OH268007   5.873   1.172   3.406 -0.1101 -0.0376 -0.2215
15531TIP3    H168008   5.807   1.172   3.476  1.2599  0.4803  1.1176
15531TIP3    H268009   5.854   1.250   3.354 -1.6896 -0.8956 -1.0239
15532TIP3   OH268010   1.257   5.949   4.491 -0.5429 -1.0065 -0.3465
15532TIP3    H168011   1.327   5.920   4.432  0.9989  1.6630  0.0020
15532TIP3    H268012   1.272   5.900   4.572  0.7658 -0.7051 -0.3817
15533TIP3   OH268013   0.836   6.687  13.811  0.2308 -0.0456 -0.4272
15533TIP3    H168014   0.787   6.763  13.841 -1.0344 -0.6647 -0.8119
15533TIP3    H268015   0.881   6.655  13.889 -1.1986 -0.3157  0.3286
15534TIP3   OH268016   4.196   2.886  13.878 -0.7360  0.5234 -0.6267
15534TIP3    H168017   4.240   2.846  13.803  0.9609  2.3940 -0.7106
15534TIP3    H268018   4.173   2.974  13.848 -3.5210  0.0384 -0.1592
15535TIP3   OH268019   2.074   3.023  11.138  0.0800 -0.2470  0.0195
15535TIP3    H168020   2.069   2.999  11.045 -0.2329  0.3017 -0.1115
15535TIP3    H268021   2.134   3.099  11.139 -0.5117  0.2226  0.1669
15536TIP3   OH268022   5.264   2.928  15.845 -0.3573 -0.2735  0.3296
15536TIP3    H168023   5.214   2.990  15.793 -0.1774 -1.0128 -0.7641
15536TIP3    H268024   5.345   2.914  15.795 -0.1422 -0.9375  0.8408
15537TIP3   OH268025   5.627   6.786   2.358 -0.4128  0.2772 -0.4812
15537TIP3    H168026   5.635   6.790   2.454 -0.0370  0.2168 -0.5072
15537TIP3    H268027   5.535   6.806   2.341 -0.4665  0.3639 -0.1113
15538TIP3   OH268028   4.882   2.151  15.763 -0.4531  0.8183  0.1441
15538TIP3    H168029   4.891   2.097  15.841 -0.5554 -1.1720 -1.1389
15538TIP3    H268030   4.796   2.128  15.728  0.5883 -0.3207 -1.8849
15539TIP3   OH268031   3.036   3.645   4.773  0.1237 -0.0377 -0.3168
15539TIP3    H168032   3.085   3.572   4.735 -0.8606 -0.1357 -1.4652
15539TIP3    H268033   3.102   3.709   4.796  0.8668 -0.5668 -0.9258
15540TIP3   OH268034   5.356   5.607  12.833 -0.3083 -0.5756  0.2496
15540TIP3    H168035   5.412   5.640  12.903 -0.0796 -0.0453 -0.1761
15540TIP3    H268036   5.267   5.624  12.863 -0.2040 -0.0463  0.2627
15541TIP3   OH268037   3.409   3.156  11.677 -0.0092 -0.1296 -0.2188
15541TIP3    H168038   3.370   3.124  11.596 -1.1201  2.9340 -1.0078
15541TIP3    H268039   3.426   3.076  11.728 -3.8453 -1.9020 -1.3812
15542TIP3   OH268040   1.405   2.998  16.496  0.0776  0.1620  0.2142
15542TIP3    H168041   1.385   2.961  16.582  1.6242 -0.5001  0.3232
15542TIP3    H268042   1.400   3.092  16.508 -0.6003  0.0529  0.8038
15543TIP3   OH268043   3.095   6.129   0.984 -0.3264  0.0943  0.2334
15543TIP3    H168044   3.140   6.129   0.900  0.4400  1.3777  0.6093
15543TIP3    H268045   3.012   6.175   0.967 -0.5579 -0.4016  0.0045
15544TIP3   OH268046   2.248   0.421  17.108 -0.0254 -0.2147 -0.7305
15544TIP3    H168047   2.260   0.326  17.116 -0.7365 -0.2630 -0.1342
15544TIP3    H268048   2.336   0.457  17.113  0.1502 -0.7596  0.2949
15545TIP3   OH268049   1.237   2.189   1.789 -0.0054 -0.2583 -0.4707
15545TIP3    H168050   1.203   2.245   1.720  0.3529  0.3496 -0.1632
15545TIP3    H268051   1.318   2.232   1.817 -0.2751 -0.3576  0.4933
15546TIP3   OH268052   0.128   3.280  10.877 -0.1729 -0.5362 -0.5030
15546TIP3    H168053   0.133   3.293  10.783 -1.1616 -1.4121 -0.6906
15546TIP3    H268054   0.202   3.330  10.912  0.2729 -0.2958 -1.7409
15547TIP3   OH268055   6.786   3.081   0.645  0.8821  0.0596 -0.1643
15547TIP3    H168056   6.849   3.148   0.672  0.5277 -0.1333  1.1713
15547TIP3    H268057   6.817   3.001   0.687 -0.3786  0.0102  0.7085
15548TIP3   OH268058   5.367   0.379   2.159 -0.2508 -0.2351 -0.3784
15548TIP3    H168059   5.336   0.467   2.139  0.2842 -0.0281 -0.3075
15548TIP3    H268060   5.448   0.392   2.207 -2.7306 -0.5994  4.5916
15549TIP3   OH268061   3.457   3.032  16.425 -0.0228 -0.0413  0.5769
15549TIP3    H168062   3.419   3.119  16.439 -0.8816 -0.2615 -0.2146
15549TIP3    H268063   3.549   3.041  16.447  0.4220  1.6829 -1.6904
15550TIP3   OH268064   4.141   4.409   0.283 -0.6717 -0.0394  0.5399
15550TIP3    H168065   4.138   4.407   0.378  0.1206 -1.3105  0.5666
15550TIP3    H268066   4.187   4.329   0.259  0.9988  1.2405 -0.8226
15551TIP3   OH268067   3.797   0.662   4.685  0.8340 -0.2179 -0.0236
15551TIP3    H168068   3.737   0.670   4.611  1.7207 -0.9865 -0.8422
15551TIP3    H268069   3.800   0.749   4.723 -1.9419 -0.4327  0.9562
15552TIP3   OH268070   3.131   4.837  13.697 -0.2096 -0.0419 -0.1032
15552TIP3    H168071   3.051   4.878  13.728 -1.6999 -1.2689 -2.1044
15552TIP3    H268072   3.164   4.895  13.629  1.4498  1.1690  1.6331
15553TIP3   OH268073   1.268   2.902  14.741 -0.1200 -0.5698 -0.0455
15553TIP3    H168074   1.196   2.960  14.765  0.7394  0.1877  0.7842
15553TIP3    H268075   1.310   2.945  14.667  1.0204  0.3420  1.0841
15554TIP3   OH268076   5.481   4.547  16.529 -0.5356  0.0534 -0.7886
15554TIP3    H168077   5.551   4.482  16.533 -1.0952 -0.4899  1.1087
15554TIP3    H268078   5.493   4.590  16.444  1.7929 -0.3359 -0.7182
15555TIP3   OH268079   6.505   0.191  10.478  0.0272  0.0369  0.3874
15555TIP3    H168080   6.560   0.115  10.496  0.6963  0.2618 -0.6422
15555TIP3    H268081   6.416   0.159  10.491  0.3358 -0.7302  0.6676
15556TIP3   OH268082   5.051   3.023  12.555  0.2066  0.1618  0.4455
15556TIP3    H168083   5.048   3.103  12.609  1.3559  0.5088  0.0262
15556TIP3    H268084   5.096   2.959  12.609 -2.0313 -0.7343  1.3885
15557TIP3   OH268085   3.062   2.502   3.491  0.3543 -0.1277  0.4152
15557TIP3    H168086   3.119   2.426   3.478  2.0441  0.3958  3.6161
15557TIP3    H268087   2.974   2.465   3.494  0.6018 -1.2244 -2.7290
15558TIP3   OH268088   4.719   1.515   4.812  0.3050  0.4407 -0.1258
15558TIP3    H168089   4.657   1.559   4.753  0.6755  1.1789  0.0279
15558TIP3    H268090   4.722   1.425   4.780 -1.8622  0.0148  0.6546
15559TIP3   OH268091   6.744   5.206  14.900  0.4172  0.1291  0.0451
15559TIP3    H168092   6.682   5.202  14.827 -2.7656  1.3777  2.4596
15559TIP3    H268093   6.812   5.266  14.869 -0.2901 -0.1254 -2.2077
15560TIP3   OH268094   6.194   4.630  14.763 -0.2993 -0.1131  0.1061
15560TIP3    H168095   6.135   4.560  14.736 -0.4935  0.6710 -1.6491
15560TIP3    H268096   6.268   4.584  14.803 -0.3044 -1.3595 -1.2170
15561TIP3   OH268097   2.415   4.399   0.426 -0.2141  0.0410  0.5244
15561TIP3    H168098   2.416   4.390   0.522  3.4142  1.3251  0.7536
15561TIP3    H268099   2.505   4.381   0.400 -0.7834  1.1267 -2.5168
15562TIP3   OH268100   3.268   1.528  12.123 -0.3523  0.0051  0.6561
15562TIP3    H168101   3.214   1.450  12.134 -0.9156  0.4765  1.3001
15562TIP3    H268102   3.327   1.527  12.198  1.0391 -0.8720 -0.3894
15563TIP3   OH268103   0.563   4.680  14.091  0.5198  0.3758  0.1277
15563TIP3    H168104   0.631   4.612  14.095 -0.2883 -0.4129  0.6729
15563TIP3    H268105   0.557   4.702  13.998 -0.8108 -1.9653 -0.4172
15564TIP3   OH268106   1.236   0.662  12.326 -0.1641  0.4022  0.0182
15564TIP3    H168107   1.240   0.691  12.417  1.1859 -1.7414  0.7311
15564TIP3    H268108   1.158   0.703  12.291  0.0125  2.3657  1.7387
15565TIP3   OH268109   3.365   1.703  15.425  0.6820  0.3698 -0.3741
15565TIP3    H168110   3.412   1.754  15.359  1.8813 -1.5680 -1.1036
15565TIP3    H268111   3.364   1.759  15.502  0.0416  2.3280 -1.7248
15566TIP3   OH268112   1.616   4.736  16.039  0.1547  0.0460 -0.1969
15566TIP3    H168113   1.594   4.807  15.979  2.1289 -1.5757 -3.0734
15566TIP3    H268114   1.711   4.740  16.048  0.0904 -0.9204  1.3925
15567TIP3   OH268115   3.358   5.194  14.468  0.3857  0.2734  0.3163
15567TIP3    H168116   3.385   5.267  14.413  0.1936  0.1322  0.0327
15567TIP3    H268117   3.389   5.217  14.555 -0.0861  0.9199  0.3218
15568TIP3   OH268118   1.426   2.651  11.573 -0.7518  0.1202 -0.3285
15568TIP3    H168119   1.512   2.677  11.606 -1.1187 -0.4093  1.0941
15568TIP3    H268120   1.401   2.721  11.513  1.7042 -0.8414 -2.6784
15569TIP3   OH268121   3.526   0.754   4.074 -0.0813  0.5917  0.1712
15569TIP3    H168122   3.463   0.738   4.004 -0.5797 -0.6932  0.8821
15569TIP3    H268123   3.606   0.710   4.045 -0.4108 -0.2931  0.5727
15570TIP3   OH268124   5.592   4.592  14.220 -0.0689 -0.2713  0.2331
15570TIP3    H168125   5.659   4.658  14.239  1.5071 -1.8458  0.3499
15570TIP3    H268126   5.529   4.601  14.292 -0.1255  1.3668  0.0145
15571TIP3   OH268127   6.693   2.025  14.905  0.1395  0.0950  0.6952
15571TIP3    H168128   6.757   1.954  14.918  0.2064  0.5058  2.8599
15571TIP3    H268129   6.642   2.027  14.986  1.3497  3.7043  1.5190
15572TIP3   OH268130   2.607   6.049   4.563  0.8459  0.0886 -0.4774
15572TIP3    H168131   2.534   6.001   4.602  0.7096  0.7579  0.1035
15572TIP3    H268132   2.595   6.038   4.469  1.4768 -1.9962 -0.3680
15573TIP3   OH268133   0.393   1.673   3.270  0.3889 -0.4629 -0.7420
15573TIP3    H168134   0.382   1.703   3.180  1.5150 -2.3376 -1.5679
15573TIP3    H268135   0.307   1.640   3.296 -0.0285  0.4072 -0.9878
15574TIP3   OH268136   2.907   2.417  12.874  0.2919 -0.8892 -0.4217
15574TIP3    H168137   2.999   2.441  12.884 -0.4313  1.9389  0.1860
15574TIP3    H268138   2.875   2.470  12.802 -1.3587 -0.1501  0.7837
15575TIP3   OH268139   5.405   5.368  13.196  0.0853 -0.2959  0.2288
15575TIP3    H168140   5.393   5.454  13.235  0.5473  0.9214 -2.1145
15575TIP3    H268141   5.390   5.382  13.102  2.1528 -2.3394 -0.5059
15576TIP3   OH268142   2.884   4.033   3.856 -0.5182 -0.1892  0.3348
15576TIP3    H168143   2.795   4.001   3.865 -0.3281 -1.0450 -0.6780
15576TIP3    H268144   2.909   4.012   3.766 -0.3224  2.6809 -0.3951
15577TIP3   OH268145   3.117   1.053  16.543 -0.2546 -0.1029  0.4315
15577TIP3    H168146   3.052   1.054  16.613 -0.4793 -0.8948  0.2473
15577TIP3    H268147   3.172   0.976  16.563  0.6330  0.5517  0.5865
15578TIP3   OH268148   1.585   2.739  13.714  0.1527  0.6188 -0.4111
15578TIP3    H168149   1.571   2.749  13.808  2.1073  0.8180 -0.1056
15578TIP3    H268150   1.569   2.826  13.678  1.7612  1.1379  0.0873
15579TIP3   OH268151   0.439   1.822  11.346  0.1499 -0.1627 -1.0421
15579TIP3    H168152   0.506   1.770  11.301  2.2908  0.4733  1.1615
15579TIP3    H268153   0.454   1.806  11.439 -3.1190 -0.2813 -0.4213
15580TIP3   OH268154   2.235   1.191  11.853  0.8575 -0.1579 -0.0872
15580TIP3    H168155   2.151   1.150  11.873 -0.6852  2.8450 -0.0214
15580TIP3    H268156   2.279   1.127  11.796 -0.5613 -2.6734  1.4373
15581TIP3   OH268157   2.194   2.602   5.735 -0.3377 -0.2009 -0.9892
15581TIP3    H168158   2.108   2.645   5.730 -1.3344 -2.1279 -1.6300
15581TIP3    H268159   2.187   2.544   5.811  1.3293  1.3887  0.4612
15582TIP3   OH268160   0.088   1.297   4.539  0.0005 -0.4524  0.2839
15582TIP3    H168161   0.121   1.209   4.560  2.6423 -0.2258 -2.3410
15582TIP3    H268162   0.126   1.354   4.606  1.9409 -0.7496 -0.5106
15583TIP3   OH268163   6.170   4.895  14.685  0.2605 -0.1553  0.1709
15583TIP3    H168164   6.198   4.807  14.709  1.2953  0.3477  0.8685
15583TIP3    H268165   6.153   4.890  14.590  1.4733 -0.8047 -0.0218
15584TIP3   OH268166   5.221   3.493  16.261 -0.0169  0.1686  0.4418
15584TIP3    H168167   5.271   3.538  16.329 -1.0708  1.0524  0.6525
15584TIP3    H268168   5.202   3.560  16.196  0.3250 -0.4993 -0.3738
15585TIP3   OH268169   1.358   5.947  14.610 -0.0953 -0.9889 -0.2374
15585TIP3    H168170   1.319   5.921  14.526  2.8727  0.2875 -2.1375
15585TIP3    H268171   1.452   5.948  14.594  0.5235  0.4684  2.8132
15586TIP3   OH268172   3.539   0.747   3.533  0.3755 -0.0895 -0.1823
15586TIP3    H168173   3.601   0.812   3.498  0.6322  1.1653  2.3777
15586TIP3    H268174   3.454   0.791   3.529  0.5512  0.4985  1.5635
15587TIP3   OH268175   6.746   0.982   0.163  0.1752  0.0667  0.1586
15587TIP3    H168176   6.796   1.062   0.182 -2.4807  1.9966 -0.2991
15587TIP3    H268177   6.772   0.957   0.075  2.0649 -0.4775  0.8162
15588TIP3   OH268178   0.710   6.676  16.551 -0.2628 -0.4241 -0.3724
15588TIP3    H168179   0.764   6.743  16.592 -2.2323  0.8997  0.2469
15588TIP3    H268180   0.771   6.609  16.522  1.5748  0.5007  1.1615
15589TIP3   OH268181   6.523   3.244  11.767 -0.0539  0.9393  0.1346
15589TIP3    H168182   6.617   3.261  11.776 -0.3821  1.7425  2.5479
15589TIP3    H268183   6.508   3.245  11.672  2.6504 -0.9397 -0.4506
15590TIP3   OH268184   3.962   3.309   2.456 -1.1039 -0.0480 -0.5971
15590TIP3    H168185   3.866   3.317   2.453 -1.2678 -1.2965  0.6578
15590TIP3    H268186   3.989   3.368   2.526 -1.0228 -0.1766 -0.5195
15591TIP3   OH268187   4.053   1.283  12.593  0.7474  0.1707  0.3248
15591TIP3    H168188   4.053   1.377  12.612  0.9394 -0.0746  1.6198
15591TIP3    H268189   3.974   1.270  12.541  1.1779  1.1820 -0.6111
15592TIP3   OH268190   0.612   2.582  16.358  0.6371  0.2867 -0.2505
15592TIP3    H168191   0.633   2.494  16.329 -0.0974  0.1440 -0.3709
15592TIP3    H268192   0.684   2.606  16.417  0.7564 -0.4570 -0.0850
15593TIP3   OH268193   5.733   0.244  15.956 -0.1430  0.3783 -0.0502
15593TIP3    H168194   5.687   0.191  16.021  1.5537  0.3288  1.1931
15593TIP3    H268195   5.774   0.180  15.898  0.7944  0.3357  0.6425
15594TIP3   OH268196   6.259   4.818   4.695 -0.0732 -0.1163  0.3673
15594TIP3    H168197   6.259   4.773   4.610  0.1531  1.6081 -0.5990
15594TIP3    H268198   6.166   4.832   4.714 -0.1052  0.0414  0.1000
15595TIP3   OH268199   1.744   4.886   2.452  0.2856 -0.2860 -0.0116
15595TIP3    H168200   1.731   4.793   2.468  3.0659 -0.7087  0.2880
15595TIP3    H268201   1.800   4.890   2.374  0.5128  1.1217  0.1895
15596TIP3   OH268202   5.984   6.766   0.869  0.2642 -0.5186  0.3424
15596TIP3    H168203   5.976   6.859   0.889  0.7731 -0.7518  1.7495
15596TIP3    H268204   5.988   6.723   0.955 -1.2975 -1.9767 -0.2496
15597TIP3   OH268205   4.247   3.109  16.722  0.1381  0.4403  0.0135
15597TIP3    H168206   4.171   3.075  16.768 -1.3444  2.2188 -1.0083
15597TIP3    H268207   4.295   3.159  16.788  0.1232 -0.1677  0.5020
15598TIP3   OH268208   6.344   6.737  16.751  0.2007  0.8516  0.3448
15598TIP3    H168209   6.316   6.765  16.664  1.5907 -1.2547 -0.8890
15598TIP3    H268210   6.424   6.788  16.768 -0.6305  2.0124  0.8899
15599TIP3   OH268211   2.133   2.289  10.992 -0.0377 -0.3016  0.3537
15599TIP3    H168212   2.195   2.355  10.958 -1.3770  0.1620 -1.3227
15599TIP3    H268213   2.188   2.214  11.013  1.4456  1.0276  1.5772
15600TIP3   OH268214   5.254   3.748   5.592  0.0485  0.0867  0.1666
15600TIP3    H168215   5.264   3.842   5.576  0.3780  0.1066  0.4655
15600TIP3    H268216   5.343   3.714   5.591  0.1860  0.1868  2.4802
15601TIP3   OH268217   1.357   3.523  16.876 -0.6230 -0.5944  0.3973
15601TIP3    H168218   1.416   3.598  16.887  0.9451 -1.7190 -0.0582
15601TIP3    H268219   1.286   3.557  16.821  1.1163  0.0725 -1.5768
15602TIP3   OH268220   5.775   0.223  10.596  0.0146  0.5619 -0.8309
15602TIP3    H168221   5.721   0.150  10.568  0.5498 -0.5806  0.9242
15602TIP3    H268222   5.735   0.300  10.556 -0.5643 -0.6687 -2.7123
15603TIP3   OH268223   5.837   4.595  14.541  0.0664 -0.3611  0.1682
15603TIP3    H168224   5.904   4.527  14.546  0.2926 -0.2489 -0.9002
15603TIP3    H268225   5.843   4.642  14.624  2.1302  0.3871 -0.3388
15604TIP3   OH268226   1.631   5.957  14.460  0.1085  0.4538 -0.0373
15604TIP3    H168227   1.663   6.028  14.515  1.6228  2.2324 -2.9498
15604TIP3    H268228   1.705   5.896  14.454  0.4431  0.9258 -1.0286
15605TIP3   OH268229   4.490   5.598   6.093  0.0684 -0.4141 -0.1454
15605TIP3    H168230   4.477   5.512   6.133 -3.5818 -0.1490 -0.4068
15605TIP3    H268231   4.544   5.646   6.156  0.9826 -2.4049  0.6715
15606TIP3   OH268232   0.224   5.656  15.126  0.5626 -0.2912  0.4315
15606TIP3    H168233   0.317   5.667  15.107  0.9232 -1.1878  1.6004
15606TIP3    H268234   0.217   5.571  15.168 -0.8454 -0.3812  0.0885
15607TIP3   OH268235   1.244   2.079  11.591  0.4054 -0.2198 -0.2540
15607TIP3    H168236   1.320   2.028  11.620  0.4199  0.0953  0.2801
15607TIP3    H268237   1.269   2.115  11.506  0.1117 -1.7132 -0.9972
15608TIP3   OH268238   1.259   6.496   5.204 -0.1473 -0.0562  0.3557
15608TIP3    H168239   1.352   6.491   5.185 -0.2540 -0.8112  0.0136
15608TIP3    H268240   1.219   6.524   5.122 -0.0892  1.8183  0.9007
15609TIP3   OH268241   3.370   5.846  14.737  0.2594  0.7240 -0.5121
15609TIP3    H168242   3.316   5.875  14.811 -0.4392  1.9178 -1.4618
15609TIP3    H268243   3.409   5.764  14.767  0.5580  1.5279  1.4611
15610TIP3   OH268244   4.074   1.621  16.307 -0.3401 -0.5080 -0.2604
15610TIP3    H168245   4.134   1.659  16.243  0.7823 -1.8230 -0.0347
15610TIP3    H268246   3.993   1.606  16.258 -0.2045  0.4359 -0.8072
15611TIP3   OH268247   4.875   5.190  13.372  0.4531  0.3719  0.3525
15611TIP3    H168248   4.886   5.099  13.401  0.6618 -0.1119 -1.1664
15611TIP3    H268249   4.956   5.234  13.399  0.1290  0.2692  1.5740
15612TIP3   OH268250   5.915   2.842   2.684 -0.3322 -0.4191 -0.3094
15612TIP3    H168251   5.938   2.934   2.695 -0.1711 -0.4984  0.0246
15612TIP3    H268252   5.886   2.835   2.593  2.2356 -0.5787 -1.2039
15613TIP3   OH268253   5.375   2.116  11.633 -0.6797 -0.1541 -0.4053
15613TIP3    H168254   5.341   2.028  11.643  0.1205 -0.5428 -1.0110
15613TIP3    H268255   5.310   2.172  11.676  0.6254 -1.3313  3.5952
15614TIP3   OH268256   0.113   6.147   0.233 -0.8518  0.3613 -0.1133
15614TIP3    H168257   0.035   6.098   0.207 -0.7810 -0.5432  1.2895
15614TIP3    H268258   0.144   6.103   0.312 -0.4996  2.3839  0.9509
15615TIP3   OH268259   5.304   3.390   5.254  0.1581 -0.4175  0.2840
15615TIP3    H168260   5.289   3.383   5.160 -0.6148 -1.4595  0.4647
15615TIP3    H268261   5.252   3.467   5.280  1.9405  1.0909 -0.4144
15616TIP3   OH268262   5.513   4.475  10.361 -0.2727  0.3841  0.3365
15616TIP3    H168263   5.524   4.547  10.299  0.7876  0.4831  0.6126
15616TIP3    H268264   5.470   4.514  10.437 -1.4394  0.2952 -0.2630
15617TIP3   OH268265   2.433   6.679   0.298  0.7548  0.3028 -0.3149
15617TIP3    H168266   2.490   6.666   0.222 -1.5023 -1.7711 -1.8330
15617TIP3    H268267   2.451   6.768   0.327  2.8957  0.5960 -2.2535
15618TIP3   OH268268   5.124   1.895   5.653 -0.5392  0.5094 -0.2936
15618TIP3    H168269   5.056   1.844   5.610  0.1158 -2.5484  1.9537
15618TIP3    H268270   5.077   1.950   5.716 -1.0467 -1.8300  1.4930
15619TIP3   OH268271   1.256   6.079   1.356  0.1834 -0.0325 -0.6239
15619TIP3    H168272   1.321   6.026   1.310  0.3722  0.6736 -1.1914
15619TIP3    H268273   1.182   6.084   1.295 -0.6922 -1.3639  0.2716
15620TIP3   OH268274   1.318   2.492   2.525  0.1205  0.8904  0.9092
15620TIP3    H168275   1.334   2.540   2.606  0.9202  0.6509  0.9031
15620TIP3    H268276   1.291   2.559   2.463 -1.7290  0.9146  1.6820
15621TIP3   OH268277   2.688   5.103  13.232  0.0096  0.3196 -0.9509
15621TIP3    H168278   2.712   5.171  13.169 -0.4174  0.4898 -0.9383
15621TIP3    H268279   2.605   5.134  13.270  0.2235  0.1880 -0.3589
15622TIP3   OH268280   5.582   3.863   5.723 -0.1165  0.3080 -0.3124
15622TIP3    H168281   5.666   3.861   5.679 -0.1584  0.9426 -0.4303
15622TIP3    H268282   5.521   3.899   5.658 -0.5200 -0.3325 -0.2973
15623TIP3   OH268283   6.123   0.817  11.226  0.0929 -0.0685  0.2384
15623TIP3    H168284   6.217   0.816  11.248 -0.1207 -0.5383  1.1660
15623TIP3    H268285   6.083   0.873  11.293 -0.6222 -1.8273  1.3529
15624TIP3   OH268286   0.003   0.172  14.836  0.1280  0.3264 -0.2802
15624TIP3    H168287  -0.004   0.168  14.931  0.1612 -0.5207 -0.3087
15624TIP3    H268288   0.087   0.130  14.816 -0.7287 -1.1941 -0.8038
15625TIP3   OH268289   1.990   6.079   2.864 -0.3913 -0.0837 -1.0507
15625TIP3    H168290   2.012   5.986   2.866  1.5026  0.3236 -0.6461
15625TIP3    H268291   1.944   6.095   2.947  1.6571 -0.1789  0.1680
15626TIP3   OH268292   3.506   0.344   0.413 -0.5213  0.2403  0.7487
15626TIP3    H168293   3.428   0.328   0.361 -2.0271  0.7055  2.7279
15626TIP3    H268294   3.526   0.437   0.399 -0.8006  0.3163  0.8603
15627TIP3   OH268295   6.146   1.488  12.629 -0.3982  0.5329 -0.5838
15627TIP3    H168296   6.056   1.518  12.618 -0.3253  1.0739  0.1903
15627TIP3    H268297   6.140   1.420  12.697 -0.0646  1.4785  0.4133
15628TIP3   OH268298   3.206   2.227  12.770 -0.2696 -0.0165  0.0229
15628TIP3    H168299   3.197   2.320  12.791 -0.4124  0.2102 -0.9689
15628TIP3    H268300   3.116   2.194  12.770 -0.1331 -0.4427  1.5505
15629TIP3   OH268301   6.466   5.319   4.908 -0.0404  0.5876 -0.2864
15629TIP3    H168302   6.434   5.340   4.821 -1.2379  2.8809  0.6125
15629TIP3    H268303   6.509   5.399   4.938 -0.7341  0.3021  1.6607
15630TIP3   OH268304   5.715   1.069  14.653 -0.2327  0.6446 -0.0919
15630TIP3    H168305   5.783   1.009  14.682 -1.7012 -0.4527  1.1889
15630TIP3    H268306   5.654   1.015  14.604 -0.4143  1.5534 -0.9125
15631TIP3   OH268307   4.862   0.773  13.606  0.0984  0.4581  0.0090
15631TIP3    H168308   4.899   0.862  13.603 -1.9572  1.4382  1.3660
15631TIP3    H268309   4.844   0.758  13.698  0.2055 -1.3305 -0.2298
15632TIP3   OH268310   3.571   2.171  11.143  0.3979 -0.0763  0.0414
15632TIP3    H168311   3.600   2.081  11.131 -0.7944 -0.3173 -1.2116
15632TIP3    H268312   3.634   2.223  11.093 -0.8606 -0.5481 -2.1491
15633TIP3   OH268313   2.654   0.449   5.764  0.1382 -0.2893  0.4534
15633TIP3    H168314   2.608   0.442   5.847  0.2305 -1.0971  0.4435
15633TIP3    H268315   2.640   0.540   5.736  0.3468  0.0695  1.4815
15634TIP3   OH268316   1.918   4.493   2.684 -0.1374 -0.4470  0.5511
15634TIP3    H168317   1.942   4.401   2.670  0.2392 -0.3078  0.2674
15634TIP3    H268318   1.983   4.525   2.747  0.7695  0.0797 -0.6269
15635TIP3   OH268319   0.822   1.460   3.428 -0.1148 -0.1443  0.5846
15635TIP3    H168320   0.853   1.542   3.391  1.3522 -1.5678 -1.6087
15635TIP3    H268321   0.730   1.476   3.450 -0.5947  1.3800 -2.1746
15636TIP3   OH268322   6.513   2.643   1.119 -0.6347 -0.4195  0.0765
15636TIP3    H168323   6.426   2.673   1.146 -0.3378  0.3117  0.2362
15636TIP3    H268324   6.544   2.589   1.192 -0.7284 -0.2272  0.2593
15637TIP3   OH268325   5.695   2.332   0.071 -0.0006  0.1860  0.0676
15637TIP3    H168326   5.639   2.339  -0.007 -2.0204  1.2163  1.5043
15637TIP3    H268327   5.683   2.242   0.101 -1.5358  0.5716  0.7356
15638TIP3   OH268328   4.525   2.722   2.644 -0.4608  0.4030 -0.0536
15638TIP3    H168329   4.541   2.777   2.567 -1.7985  0.6481 -0.1752
15638TIP3    H268330   4.598   2.660   2.645 -0.6816  0.0780 -1.8149
15639TIP3   OH268331   4.165   2.671  12.559  0.9551  0.2323 -0.1255
15639TIP3    H168332   4.140   2.704  12.473  1.0757 -1.2945 -0.7789
15639TIP3    H268333   4.186   2.749  12.610 -2.0490  1.3812 -0.4943
15640TIP3   OH268334   6.443   6.558   5.167 -0.5914  0.0081  0.0549
15640TIP3    H168335   6.442   6.608   5.086 -0.5991 -0.5349 -0.2858
15640TIP3    H268336   6.351   6.537   5.184 -0.4385 -1.6262 -0.9116
15641TIP3   OH268337   2.400   3.104  16.922  0.4045 -0.7220 -0.5827
15641TIP3    H168338   2.426   3.117  17.013  0.1331  0.5078 -0.6619
15641TIP3    H268339   2.482   3.087  16.875  0.7156  0.0280 -0.3266
15642TIP3   OH268340   5.068   3.762  11.501 -0.1866 -0.1947 -0.2016
15642TIP3    H168341   4.974   3.776  11.492  0.0867  0.8131 -2.0955
15642TIP3    H268342   5.099   3.745  11.411  1.3907 -0.8361  0.4184
15643TIP3   OH268343   6.751   3.387   4.293 -0.6171 -0.1017 -0.3198
15643TIP3    H168344   6.778   3.298   4.269  1.2968  0.7059 -1.4199
15643TIP3    H268345   6.742   3.433   4.209 -2.1544  0.6258  0.2041
15644TIP3   OH268346   6.633   2.302   5.223  0.1272 -0.3318  0.3303
15644TIP3    H168347   6.625   2.368   5.291 -0.6104  0.2321 -0.2893
15644TIP3    H268348   6.728   2.292   5.210  0.2511  0.2198  0.7943
15645TIP3   OH268349   4.481   6.107   4.533 -0.4129  0.2716  0.2133
15645TIP3    H168350   4.389   6.126   4.549 -0.4796  1.8303 -1.6902
15645TIP3    H268351   4.516   6.187   4.495  1.7761 -0.2490  0.9935
15646TIP3   OH268352   4.985   1.777   0.709  0.3114  0.0591  0.7576
15646TIP3    H168353   4.986   1.817   0.622 -0.7009 -0.9179  0.2612
15646TIP3    H268354   4.905   1.811   0.750 -0.6616 -1.4956  0.2629
15647TIP3   OH268355   6.479   2.011   2.199  0.2630  0.0598 -0.4660
15647TIP3    H168356   6.508   1.998   2.108  0.8681  0.2860 -0.3118
15647TIP3    H268357   6.560   2.026   2.248 -0.0857  0.2754  0.0554
15648TIP3   OH268358   2.300   1.535   5.015 -0.4236 -0.3826 -0.2809
15648TIP3    H168359   2.239   1.585   4.961  1.7510  0.4768 -2.1113
15648TIP3    H268360   2.340   1.473   4.955  3.1760  1.6003 -0.1731
15649TIP3   OH268361   3.885   0.304  15.434 -0.2653  0.2538  0.7217
15649TIP3    H168362   3.937   0.380  15.409 -1.1867  1.1201  1.3893
15649TIP3    H268363   3.811   0.303  15.374  0.4117 -0.8951 -0.1349
15650TIP3   OH268364   6.391   5.288  15.802 -0.0459 -0.0169  0.1409
15650TIP3    H168365   6.352   5.201  15.798  1.9490 -1.0347  1.3607
15650TIP3    H268366   6.394   5.309  15.896 -0.4918  1.3805 -0.1344
15651TIP3   OH268367   2.787   0.403  13.306 -0.5820  0.0981  1.0024
15651TIP3    H168368   2.869   0.357  13.318 -0.2597  0.9764  2.5391
15651TIP3    H268369   2.722   0.334  13.290  0.5300 -0.5518 -0.9507
15652TIP3   OH268370   2.773   1.748   5.078 -0.0727  0.4243 -0.4061
15652TIP3    H168371   2.687   1.707   5.068 -0.3952  0.9245  0.3188
15652TIP3    H268372   2.780   1.808   5.003 -0.4685  0.5823 -0.3166
15653TIP3   OH268373   3.346   0.423   6.423 -0.2851 -0.0864  0.4212
15653TIP3    H168374   3.431   0.425   6.379  0.0277 -0.7529  0.9762
15653TIP3    H268375   3.354   0.486   6.494  0.0600 -0.7770  1.0111
15654TIP3   OH268376   0.952   1.066  13.711 -0.1394 -0.3872  0.5486
15654TIP3    H168377   0.918   1.154  13.724 -1.4977 -0.9447  1.0028
15654TIP3    H268378   0.913   1.015  13.782  0.6330 -1.3535  0.2990
15655TIP3   OH268379   2.837   2.197   2.180  0.3029  0.2314  0.0264
15655TIP3    H168380   2.852   2.113   2.136  0.9801 -0.5690  1.6843
15655TIP3    H268381   2.850   2.262   2.112  2.0374 -0.9178 -0.8340
15656TIP3   OH268382   6.739   0.202  10.952 -0.5187  0.2124  0.5971
15656TIP3    H168383   6.824   0.177  10.989 -1.1928  0.8660  2.6801
15656TIP3    H268384   6.749   0.295  10.930 -1.2341  0.7833  2.5676
15657TIP3   OH268385   1.907   0.011   1.912  0.0119 -0.1160  0.2410
15657TIP3    H168386   1.855  -0.068   1.928  0.4434 -0.4109  0.2228
15657TIP3    H268387   1.991  -0.007   1.954  0.1531  0.2929  0.1424
15658TIP3   OH268388   6.025   5.504   3.455 -0.2184  0.1020  0.0840
15658TIP3    H168389   6.079   5.501   3.535 -0.7294 -0.0088  0.4312
15658TIP3    H268390   5.936   5.489   3.487 -0.5523  1.0461 -0.3953
15659TIP3   OH268391   6.376   4.387   5.799  0.2687 -0.0331  0.2462
15659TIP3    H168392   6.385   4.482   5.810 -1.6361  0.3583 -1.1213
15659TIP3    H268393   6.365   4.353   5.888 -1.3855  1.3430  0.6127
15660TIP3   OH268394   3.396   1.387   2.835 -0.2036  0.2725 -0.2915
15660TIP3    H168395   3.395   1.340   2.752  2.5872  0.7695 -0.6775
15660TIP3    H268396   3.400   1.479   2.811 -0.6021  0.4962  0.4413
15661TIP3   OH268397   5.111   3.838   6.253 -0.4711  0.2719 -0.3858
15661TIP3    H168398   5.149   3.922   6.227  0.5138 -0.6383 -2.0126
15661TIP3    H268399   5.133   3.830   6.346  3.0546 -0.0196 -1.1130
15662TIP3   OH268400   3.950   4.257   1.198  0.1414 -0.1894 -0.0217
15662TIP3    H168401   3.968   4.164   1.211 -1.4545 -0.5933 -0.4327
15662TIP3    H268402   3.965   4.296   1.284 -0.6380 -1.1060  0.5624
15663TIP3   OH268403   4.657   1.194  14.363  0.1545  0.3420 -0.4668
15663TIP3    H168404   4.713   1.269  14.382 -0.8948  1.4113 -1.4195
15663TIP3    H268405   4.636   1.203  14.270 -1.9139  0.2204 -0.0584
15664TIP3   OH268406   5.238   1.281   4.037 -0.7731 -0.5362  0.6434
15664TIP3    H168407   5.313   1.232   4.004 -0.3119 -0.7260  1.9227
15664TIP3    H268408   5.258   1.372   4.015 -0.5638 -0.6787  0.2349
15665TIP3   OH268409   0.657   1.938   1.609 -0.5290  0.3065  0.1966
15665TIP3    H168410   0.703   1.974   1.684  0.4847  0.9703 -0.7069
15665TIP3    H268411   0.653   1.844   1.626  2.3999 -0.0056 -0.2569
15666TIP3   OH268412   6.734   3.145  10.915  0.3749 -0.2112 -0.2068
15666TIP3    H168413   6.726   3.093  10.835  1.0447 -0.3676 -0.1754
15666TIP3    H268414   6.826   3.168  10.920  0.2227  0.3329  0.1905
15667TIP3   OH268415   4.380   4.199  16.698  0.3970  0.1629 -0.3081
15667TIP3    H168416   4.311   4.148  16.739  0.5203  0.8654  0.8077
15667TIP3    H268417   4.415   4.142  16.630 -1.2602 -0.2055 -0.8954
15668TIP3   OH268418   6.767   4.121  13.338  0.6214  0.0657 -0.1418
15668TIP3    H168419   6.775   4.097  13.430 -1.5021 -2.4014 -0.4919
15668TIP3    H268420   6.673   4.130  13.324  0.9243  0.7164 -2.0249
15669TIP3   OH268421   3.686   0.288  12.336  0.5919  0.1254  0.0222
15669TIP3    H168422   3.623   0.282  12.265  1.9051 -0.2811 -1.1651
15669TIP3    H268423   3.763   0.329  12.296  0.9823  0.8893  1.4935
15670TIP3   OH268424   2.382   1.716   6.443 -0.4240  0.5504  0.3040
15670TIP3    H168425   2.330   1.636   6.451 -0.0695  0.4301  1.6919
15670TIP3    H268426   2.472   1.685   6.435 -0.1478  0.7923  2.0912
15671TIP3   OH268427   2.708   0.241  14.207  0.0871  0.4968 -0.1331
15671TIP3    H168428   2.739   0.257  14.118 -1.1612  3.0282 -0.2170
15671TIP3    H268429   2.754   0.307  14.260 -0.8105  0.4747  0.7061
15672TIP3   OH268430   0.016   6.716   1.510  0.2256 -0.2033 -0.2725
15672TIP3    H168431  -0.062   6.758   1.474  0.5228 -0.5166 -1.3081
15672TIP3    H268432   0.086   6.780   1.497  0.3533 -0.3545 -0.3321
15673TIP3   OH268433   3.288   6.380  13.543  0.0739  0.1389 -0.1959
15673TIP3    H168434   3.341   6.424  13.477  2.6870 -1.1524  0.8886
15673TIP3    H268435   3.272   6.447  13.610 -0.2756  0.7280 -0.8592
15674TIP3   OH268436   2.176   2.474   1.420  0.2662  0.1643 -0.2747
15674TIP3    H168437   2.192   2.527   1.343  0.6310 -1.2381 -1.2046
15674TIP3    H268438   2.224   2.392   1.404  0.1216 -0.2715  1.3039
15675TIP3   OH268439   3.689   4.270   0.282  0.1161 -0.0521 -0.1423
15675TIP3    H168440   3.620   4.251   0.218  0.0743 -0.3219 -0.0186
15675TIP3    H268441   3.655   4.236   0.365  1.1420 -1.8222 -0.3976
15676TIP3   OH268442   5.401   4.584   4.437  0.2811  0.0437 -0.2963
15676TIP3    H168443   5.384   4.646   4.508 -0.9422 -0.4916 -0.1071
15676TIP3    H268444   5.449   4.513   4.479 -0.9577 -0.5560  0.1520
15677TIP3   OH268445   3.580   0.072   6.267  0.1470  0.2491 -0.0510
15677TIP3    H168446   3.571  -0.019   6.239  0.3490  0.5101 -0.9768
15677TIP3    H268447   3.492   0.096   6.299  0.1699 -0.3556  0.4948
15678TIP3   OH268448   6.523   0.480  16.531 -0.0951 -0.1316  0.3616
15678TIP3    H168449   6.615   0.483  16.504 -0.3517 -1.4499 -0.8053
15678TIP3    H268450   6.482   0.551  16.481  0.2932  0.5102  0.9429
15679TIP3   OH268451   5.728   3.990   5.921  0.2405 -0.1666 -0.1976
15679TIP3    H168452   5.654   3.939   5.888  0.1071  1.2624 -2.2453
15679TIP3    H268453   5.785   3.925   5.962 -2.5628 -1.2145  2.4456
15680TIP3   OH268454   5.213   5.752  16.164 -0.6743 -0.2476  0.2023
15680TIP3    H168455   5.172   5.788  16.243 -0.1562  1.5737 -0.2979
15680TIP3    H268456   5.170   5.799  16.092  0.2539 -0.4186 -0.4798
15681TIP3   OH268457   5.153   0.364   3.990 -0.0305 -0.1781 -0.2330
15681TIP3    H168458   5.109   0.441   3.955  3.4368  2.3540  0.5057
15681TIP3    H268459   5.195   0.324   3.913 -0.1303 -0.1289 -0.3131
15682TIP3   OH268460   4.056   4.900  16.963  0.0346  0.0446 -0.2690
15682TIP3    H168461   3.985   4.873  17.021  0.8627  1.7360  1.6911
15682TIP3    H268462   4.129   4.841  16.984  0.4863  0.9518  0.8653
15683TIP3   OH268463   0.687   2.861  12.130  0.0226 -0.2138  0.4500
15683TIP3    H168464   0.780   2.885  12.134 -0.0286  0.4177 -1.3147
15683TIP3    H268465   0.641   2.945  12.125 -0.3846 -0.4974 -2.1514
15684TIP3   OH268466   6.720   4.559   4.742  0.1436  0.9540 -0.2517
15684TIP3    H168467   6.720   4.638   4.796  0.4881  0.8062 -0.0306
15684TIP3    H268468   6.631   4.525   4.749  0.5791  0.0250  1.5830
15685TIP3   OH268469   1.681   2.445   4.938 -0.0423  0.0761 -0.5059
15685TIP3    H168470   1.768   2.485   4.930 -0.6672  1.1430 -3.1533
15685TIP3    H268471   1.622   2.519   4.956 -0.8044 -0.0637 -2.2315
15686TIP3   OH268472   1.785   1.227  10.626  0.2906 -0.2319  0.1835
15686TIP3    H168473   1.878   1.245  10.613  0.4610 -0.3006  1.1679
15686TIP3    H268474   1.742   1.263  10.549  1.0954  0.1518 -0.0983
15687TIP3   OH268475   2.177   6.547  13.341 -0.0310  0.1716  0.8896
15687TIP3    H168476   2.218   6.524  13.425  1.1717 -1.9918 -0.1945
15687TIP3    H268477   2.223   6.625  13.312  1.9233 -0.9854  0.7233
15688TIP3   OH268478   1.271   1.046   2.536  0.0241  0.2291 -0.0470
15688TIP3    H168479   1.242   1.033   2.626  1.5084  0.7433  0.5335
15688TIP3    H268480   1.351   1.097   2.544 -0.7167  1.7630 -1.7556
15689TIP3   OH268481   4.786   4.162   5.005  0.1183  0.1761 -0.3275
15689TIP3    H168482   4.787   4.118   5.090 -0.3832  2.2247  0.7968
15689TIP3    H268483   4.874   4.149   4.970  1.2646  1.6033  1.8048
15690TIP3   OH268484   2.454   4.666   5.736 -0.2261 -0.3126 -0.0271
15690TIP3    H168485   2.479   4.753   5.705 -0.3988  0.0347  0.7701
15690TIP3    H268486   2.537   4.619   5.746  0.3649  1.1413  3.5237
15691TIP3   OH268487   5.560   1.190  14.273 -0.1112  0.6441  0.2636
15691TIP3    H168488   5.478   1.173  14.320  0.3131  1.0719  1.1890
15691TIP3    H268489   5.533   1.235  14.193 -0.7932  0.6197  0.4695
15692TIP3   OH268490   3.857   2.416   2.870  0.1891 -0.3116  0.3434
15692TIP3    H168491   3.903   2.394   2.789 -1.3017 -0.0152 -0.6097
15692TIP3    H268492   3.801   2.489   2.847 -0.2495 -0.2076  1.6561
15693TIP3   OH268493   2.511   4.010  14.067 -0.2330 -0.3138  0.2542
15693TIP3    H168494   2.543   3.945  14.005 -0.8621  0.4183 -0.8921
15693TIP3    H268495   2.587   4.066  14.085 -0.3096  0.1610 -0.8025
15694TIP3   OH268496   6.352   1.002  10.671  0.0526 -0.3716 -0.6163
15694TIP3    H168497   6.326   1.093  10.682  0.1165 -0.3196 -0.8987
15694TIP3    H268498   6.405   0.983  10.749  0.7537  0.0924 -0.9645
15695TIP3   OH268499   5.733   1.642   4.041 -0.0213  0.6893  0.2450
15695TIP3    H168500   5.755   1.646   3.948  1.1065 -0.2194  0.4527
15695TIP3    H268501   5.678   1.718   4.055 -2.0069 -0.2983 -1.6195
15696TIP3   OH268502   1.468   4.912   4.045 -0.6916  0.7796 -0.5467
15696TIP3    H168503   1.396   4.850   4.060 -2.7133  3.1440  0.3302
15696TIP3    H268504   1.471   4.923   3.950 -0.0614 -0.8715 -0.7396
15697TIP3   OH268505   5.862   6.642   1.718 -0.2304 -0.1451  0.0599
15697TIP3    H168506   5.853   6.700   1.793 -2.5312 -2.0404  1.3858
15697TIP3    H268507   5.846   6.697   1.642 -0.5100  1.2882  1.1281
15698TIP3   OH268508   1.135   5.321   2.305 -0.0094 -0.0424 -0.5474
15698TIP3    H168509   1.219   5.334   2.348 -0.4137  1.7217 -0.2087
15698TIP3    H268510   1.132   5.227   2.287  2.0292 -0.1555 -0.5957
15699TIP3   OH268511   0.962   2.851  12.340 -0.0876  0.4132  0.3424
15699TIP3    H168512   0.932   2.857  12.431  0.2220  0.8331  0.4207
15699TIP3    H268513   1.058   2.855  12.346  0.0410 -1.5355  0.1493
15700TIP3   OH268514   6.763   5.719   5.533  0.5353  0.5055  0.4902
15700TIP3    H168515   6.768   5.769   5.615 -1.6592 -1.3609  1.9054
15700TIP3    H268516   6.813   5.640   5.550  1.9311  1.0397 -0.8568
15701TIP3   OH268517   6.610   6.716  16.031 -0.5252  0.1577  0.0991
15701TIP3    H168518   6.526   6.672  16.020 -1.1516  1.3340  0.0877
15701TIP3    H268519   6.620   6.769  15.952  0.0285  0.3656  0.3038
15702TIP3   OH268520   1.177   1.187   1.046 -0.7197 -0.0058 -0.0033
15702TIP3    H168521   1.096   1.157   1.004 -1.6252  1.9839  0.1974
15702TIP3    H268522   1.161   1.177   1.139 -0.0857 -1.0992  0.0017
15703TIP3   OH268523   3.067   1.163  14.356 -0.2778 -0.4563 -0.5623
15703TIP3    H168524   3.025   1.137  14.274 -1.9759 -2.1449  0.7624
15703TIP3    H268525   3.028   1.106  14.422  0.9105  0.9718  1.4712
15704TIP3   OH268526   3.517   6.036   5.341  0.1843 -0.2882 -0.8428
15704TIP3    H168527   3.433   6.068   5.309 -0.9440 -2.5650 -0.4019
15704TIP3    H268528   3.524   6.071   5.430  0.3488  0.9533 -1.3296
15705TIP3   OH268529   2.146   2.489  16.312  0.1910 -0.0806 -0.3143
15705TIP3    H168530   2.226   2.541  16.306  0.1711  0.5257  2.9021
15705TIP3    H268531   2.177   2.399  16.327  0.5785  0.6068  4.5321
15706TIP3   OH268532   1.196   5.016   3.300 -0.4037 -0.5194  0.8013
15706TIP3    H168533   1.279   4.986   3.263 -1.0703 -1.0905 -0.3042
15706TIP3    H268534   1.220   5.085   3.362  0.7692  0.4468 -0.6793
15707TIP3   OH268535   2.390   2.680   0.783 -0.5296  0.2032  0.3660
15707TIP3    H168536   2.458   2.664   0.847 -0.8602  0.9325  0.9166
15707TIP3    H268537   2.393   2.605   0.724  0.7363  0.2279  0.3884
15708TIP3   OH268538   6.410   2.458   2.301  0.0443 -0.2100  0.3049
15708TIP3    H168539   6.343   2.525   2.288  0.2418  0.3022  1.7982
15708TIP3    H268540   6.444   2.441   2.213 -2.0408 -0.4924 -0.4982
15709TIP3   OH268541   2.568   5.881   5.562 -0.2090 -0.2831 -0.0110
15709TIP3    H168542   2.540   5.836   5.483 -0.8062  0.0516  0.0082
15709TIP3    H268543   2.531   5.969   5.555 -0.9117 -0.4792  0.9823
15710TIP3   OH268544   5.385   2.894   3.435 -0.0531  0.1798  0.3005
15710TIP3    H168545   5.421   2.968   3.386  1.1392 -0.6237 -0.0748
15710TIP3    H268546   5.390   2.820   3.375 -1.5957 -0.1410  0.5381
15711TIP3   OH268547   0.207   5.713   2.333  0.6422 -0.1327 -0.1246
15711TIP3    H168548   0.118   5.692   2.359  0.2838 -0.7742 -1.7387
15711TIP3    H268549   0.199   5.748   2.244  1.9055  0.7258  0.0621
15712TIP3   OH268550   3.121   3.372   5.552 -0.0335 -0.3719  0.3873
15712TIP3    H168551   3.097   3.449   5.500  2.4784  1.4158  1.6341
15712TIP3    H268552   3.043   3.353   5.605 -0.6262  1.5611  0.2913
15713TIP3   OH268553   6.753   6.686  12.162  0.3320  0.0631 -0.4162
15713TIP3    H168554   6.720   6.758  12.215 -0.7721 -0.2067 -0.7189
15713TIP3    H268555   6.739   6.608  12.216  2.9946  0.1849  0.5962
15714TIP3   OH268556   6.223   5.449  12.850  0.1124  0.0131  1.0083
15714TIP3    H168557   6.166   5.402  12.910 -0.0525 -1.4354 -0.2145
15714TIP3    H268558   6.302   5.395  12.844  0.8007  0.9658  1.1432
15715TIP3   OH268559   4.753   5.454  15.022  0.0138 -0.1001 -0.1640
15715TIP3    H168560   4.788   5.366  15.010 -0.5570 -0.2537 -0.7782
15715TIP3    H268561   4.780   5.502  14.943  1.3881  0.6540  0.7249
15716TIP3   OH268562   4.573   4.060  10.253  0.4024  0.0525  0.0710
15716TIP3    H168563   4.480   4.084  10.253  0.1783 -0.7507 -0.8697
15716TIP3    H268564   4.584   4.005  10.330 -0.0814 -0.4893 -0.2430
15717TIP3   OH268565   3.887   6.206   2.324  0.2454  0.1044  0.1106
15717TIP3    H168566   3.880   6.262   2.401 -1.6035  2.2276 -1.4760
15717TIP3    H268567   3.981   6.186   2.318  0.8030  1.9532  1.4979
15718TIP3   OH268568   1.870   0.470  12.653  0.3448  0.0869 -1.0066
15718TIP3    H168569   1.850   0.387  12.610 -0.2381 -0.4214  0.1942
15718TIP3    H268570   1.962   0.486  12.633  0.3964 -0.7227 -1.4560
15719TIP3   OH268571   2.667   3.500   3.311  0.7219 -0.1947 -0.2249
15719TIP3    H168572   2.731   3.570   3.326 -1.4253  2.3830 -2.0231
15719TIP3    H268573   2.593   3.524   3.368 -0.1586 -0.8399 -1.0771
15720TIP3   OH268574   2.361   0.146   0.397  0.1837  0.0330  0.7197
15720TIP3    H168575   2.428   0.213   0.411 -0.3101  0.5336  0.7142
15720TIP3    H268576   2.285   0.177   0.446  0.5494 -1.4930  2.3466
15721TIP3   OH268577   4.750   1.695   3.010  1.1813 -0.2880 -0.5197
15721TIP3    H168578   4.808   1.626   3.039 -0.3835 -1.3416  0.2470
15721TIP3    H268579   4.787   1.725   2.927  3.2597 -0.3033  0.3562
15722TIP3   OH268580   2.187   0.383  12.388  0.5845 -0.3256  0.0156
15722TIP3    H168581   2.187   0.420  12.476 -2.0209 -3.3952  1.5283
15722TIP3    H268582   2.280   0.371  12.368  1.3119  2.1357  1.5115
15723TIP3   OH268583   6.191   0.644   3.557  0.0813 -0.2458 -0.1542
15723TIP3    H168584   6.102   0.612   3.573 -0.3265 -0.1929 -2.0268
15723TIP3    H268585   6.247   0.580   3.599 -0.8106 -1.6037 -0.9301
15724TIP3   OH268586   0.344   0.861   5.030 -0.3728  0.4376 -0.1301
15724TIP3    H168587   0.430   0.893   5.058 -1.3928  3.0791  0.2932
15724TIP3    H268588   0.319   0.798   5.098  0.9655  0.0439  0.0323
15725TIP3   OH268589   1.542   6.450   0.465 -0.5245 -0.0978 -0.3994
15725TIP3    H168590   1.517   6.381   0.526 -0.2632  0.8128  0.7893
15725TIP3    H268591   1.603   6.408   0.404 -0.0229 -0.8272  0.5718
15726TIP3   OH268592   4.802   6.408   2.661 -0.2638  0.0266 -0.0937
15726TIP3    H168593   4.739   6.435   2.594 -0.6952  1.4070  0.8156
15726TIP3    H268594   4.748   6.377   2.734  0.1847 -0.8493 -0.1152
15727TIP3   OH268595   1.654   1.266   5.236 -0.4423 -0.0049  0.1761
15727TIP3    H168596   1.678   1.202   5.169  0.3614  0.4483  0.0248
15727TIP3    H268597   1.629   1.344   5.186  3.0235  1.3974  0.3450
15728TIP3   OH268598   1.586   2.733   3.925  0.2759 -0.2432 -0.1132
15728TIP3    H168599   1.611   2.666   3.988  1.1368  0.3482  0.2058
15728TIP3    H268600   1.623   2.814   3.961  0.7164  0.1184 -1.3329
15729TIP3   OH268601   0.386   4.887  14.109 -0.2347 -0.3318  0.2851
15729TIP3    H168602   0.453   4.823  14.134  0.0057 -0.0922  0.2574
15729TIP3    H268603   0.350   4.853  14.027 -0.3586 -0.6184  0.4564
15730TIP3   OH268604   5.954   4.676   0.504  0.4892  0.1777  0.1418
15730TIP3    H168605   5.977   4.705   0.593 -0.4511 -1.5271  0.9756
15730TIP3    H268606   5.904   4.596   0.516  0.6722 -0.3237 -1.9701
15731TIP3   OH268607   2.032   6.716  11.376 -0.2111  0.2380  0.1200
15731TIP3    H168608   2.117   6.674  11.365  0.4960  1.4583  0.6378
15731TIP3    H268609   2.026   6.736  11.469 -0.0504  2.1393 -0.2272
15732TIP3   OH268610   6.202   4.939  15.136  0.2079 -0.0044  0.1247
15732TIP3    H168611   6.247   4.960  15.054  1.4503  0.5195  0.9092
15732TIP3    H268612   6.220   4.846  15.150 -1.9015 -0.7152 -1.2901
15733TIP3   OH268613   3.240   0.618  12.687 -0.0086 -0.5437  0.0103
15733TIP3    H168614   3.148   0.602  12.707 -0.4027 -0.7778 -1.8268
15733TIP3    H268615   3.285   0.610  12.771 -1.7681  0.4656  1.0946
15734TIP3   OH268616   5.082   2.713  16.912  0.6063 -0.0545  0.5341
15734TIP3    H168617   5.038   2.771  16.850  1.6339  0.6554  0.4383
15734TIP3    H268618   5.085   2.764  16.993  0.9259 -0.2443  0.6420
15735TIP3   OH268619   0.386   2.770  12.409  0.5063  0.9148  1.0424
15735TIP3    H168620   0.476   2.771  12.442  1.2475 -0.3298 -0.7886
15735TIP3    H268621   0.352   2.684  12.434  1.2297 -0.2439 -1.5689
15736TIP3   OH268622   4.387   2.328   0.717 -0.3262 -0.2918 -0.6360
15736TIP3    H168623   4.348   2.242   0.705 -3.6322  0.9642 -0.1005
15736TIP3    H268624   4.312   2.387   0.727  1.6947  2.0299  3.4356
15737TIP3   OH268625   0.891   1.519   0.281  0.3302  0.5596 -0.2812
15737TIP3    H168626   0.936   1.435   0.291 -0.1593  0.2438 -0.6615
15737TIP3    H268627   0.898   1.561   0.367  1.1364  0.4140 -0.2736
15738TIP3   OH268628   1.152   2.117   4.082  0.0622  0.4172  0.1123
15738TIP3    H168629   1.242   2.103   4.053 -0.0950 -0.0158 -0.1817
15738TIP3    H268630   1.098   2.084   4.009 -0.3326  0.2650  0.4698
15739TIP3   OH268631   4.131   4.237  16.381 -0.0946  0.4200 -0.5514
15739TIP3    H168632   4.062   4.171  16.391  1.2571 -0.9416  0.1679
15739TIP3    H268633   4.090   4.319  16.409 -0.9496 -0.6410  1.5062
15740TIP3   OH268634   4.103   2.893  13.125  0.4378 -0.0560 -0.0975
15740TIP3    H168635   4.177   2.896  13.186  0.7041 -0.0259 -0.4182
15740TIP3    H268636   4.052   2.817  13.153  1.5096 -1.1157 -0.9264
15741TIP3   OH268637   4.776   3.406  15.930 -0.0522  0.0352 -0.0003
15741TIP3    H168638   4.842   3.439  15.869 -0.7353  0.7882 -0.3612
15741TIP3    H268639   4.788   3.457  16.010  0.0018 -0.0430  0.0409
15742TIP3   OH268640   2.052   4.165  12.157  0.1427  0.2701  0.2691
15742TIP3    H168641   2.139   4.187  12.191 -0.4132  0.4421  1.6484
15742TIP3    H268642   2.004   4.132  12.233 -0.8366 -0.3520 -0.5827
15743TIP3   OH268643   2.125   4.456  15.218  0.0097  0.0881 -0.4533
15743TIP3    H168644   2.168   4.452  15.133  0.8354  0.8282 -0.0837
15743TIP3    H268645   2.101   4.548  15.228 -1.1015 -0.1964 -0.3672
15744TIP3   OH268646   6.595   0.035  14.227  0.0439 -0.6143 -0.3823
15744TIP3    H168647   6.617   0.074  14.142 -1.6806 -2.0451 -1.5447
15744TIP3    H268648   6.581  -0.058  14.209 -4.1686 -0.3766  0.6053
15745TIP3   OH268649   4.474   0.957  13.938 -0.2829  0.0508  0.0371
15745TIP3    H168650   4.462   0.865  13.914 -0.5637  0.2026 -0.4215
15745TIP3    H268651   4.386   0.993  13.942 -0.1232  0.7157 -1.5198
15746TIP3   OH268652   5.054   1.106  14.196 -0.4339  0.0377 -0.2880
15746TIP3    H168653   5.005   1.048  14.138 -0.5152 -1.4247  1.1633
15746TIP3    H268654   5.032   1.194  14.166 -2.5149 -0.6104 -0.8449
15747TIP3   OH268655   4.512   5.149   2.909  0.3854  0.0785 -0.2712
15747TIP3    H168656   4.581   5.201   2.951 -0.2691  1.2257 -0.5567
15747TIP3    H268657   4.514   5.065   2.954  1.2229  0.4876  0.4873
15748TIP3   OH268658   4.556   5.237   1.746 -0.3692  0.3947  0.3878
15748TIP3    H168659   4.637   5.268   1.706 -0.2428  0.2370  0.5258
15748TIP3    H268660   4.548   5.287   1.827 -1.5664  2.0830 -0.6877
15749TIP3   OH268661   5.543   1.178  10.541  0.2563 -0.0281 -0.4751
15749TIP3    H168662   5.595   1.103  10.569 -0.6613 -0.1800  0.9110
15749TIP3    H268663   5.471   1.182  10.603 -0.6614  0.9813 -1.5580
15750TIP3   OH268664   6.452   4.077   2.465 -0.4182  0.1190  0.0676
15750TIP3    H168665   6.538   4.057   2.502  1.6861 -0.3588 -4.3773
15750TIP3    H268666   6.402   3.996   2.474  0.4716 -0.3865  0.5669
15751TIP3   OH268667   3.872   2.399   1.992 -0.8093  0.7294  0.3158
15751TIP3    H168668   3.942   2.352   2.038 -0.0601  1.0513 -0.4688
15751TIP3    H268669   3.909   2.486   1.973 -2.2292  1.7415  1.8964
15752TIP3   OH268670   0.005   4.336   1.874 -0.5559  0.2345 -0.5675
15752TIP3    H168671  -0.065   4.364   1.933 -0.5576  0.5010 -0.6968
15752TIP3    H268672   0.016   4.242   1.893  1.7711  0.9294  2.3092
15753TIP3   OH268673   5.691   0.404   2.898 -0.6690  0.1522 -0.2034
15753TIP3    H168674   5.751   0.474   2.872 -0.7159  0.3557  0.2300
15753TIP3    H268675   5.606   0.432   2.865 -0.7803  0.5461  0.3930
15754TIP3   OH268676   0.863   2.690   3.274 -0.4998 -0.3503  0.0554
15754TIP3    H168677   0.915   2.683   3.194 -2.2124 -1.5430 -1.0102
15754TIP3    H268678   0.882   2.610   3.322 -2.4798 -1.5927 -1.1070
15755TIP3   OH268679   5.595   2.704   1.180 -0.1750  0.1682  0.1812
15755TIP3    H168680   5.611   2.784   1.131  1.0264  0.4850  1.0394
15755TIP3    H268681   5.627   2.634   1.123  0.7195  0.4871  0.2728
15756TIP3   OH268682   2.823   2.530  13.498  0.1578  0.5789 -0.3454
15756TIP3    H168683   2.749   2.470  13.507  0.0483  0.2756 -2.6358
15756TIP3    H268684   2.806   2.599  13.561  0.0647 -1.5213  2.0812
15757TIP3   OH268685   5.318   6.757  13.223  0.6768 -0.8172 -0.1306
15757TIP3    H168686   5.251   6.732  13.160  0.6265  1.7675 -1.2437
15757TIP3    H268687   5.281   6.833  13.268  1.4915 -1.4662  1.7231
15758TIP3   OH268688   0.787   3.411  13.430 -0.0316  0.4984  0.5485
15758TIP3    H168689   0.696   3.441  13.430 -0.1784  0.0577  1.0230
15758TIP3    H268690   0.804   3.384  13.520 -0.1668 -1.6514 -0.0144
15759TIP3   OH268691   5.040   3.069   0.926  0.0974 -0.2340 -0.0304
15759TIP3    H168692   5.130   3.047   0.906  0.4643 -0.9748  2.1008
15759TIP3    H268693   5.028   3.158   0.892  1.5569 -0.1912 -0.5031
15760TIP3   OH268694   4.367   3.914   0.713 -0.2982 -0.1124  0.5650
15760TIP3    H168695   4.359   3.823   0.683 -1.1431  0.0517  0.2405
15760TIP3    H268696   4.460   3.926   0.731  0.0318 -0.6532 -0.6592
15761TIP3   OH268697   5.781   3.488   2.166  0.3013  0.4288 -0.3701
15761TIP3    H168698   5.821   3.402   2.183 -0.0260  0.5331  1.0490
15761TIP3    H268699   5.847   3.551   2.194  0.3802  0.6472 -1.0326
15762TIP3   OH268700   0.611   1.580   2.870  0.0989 -0.5818  0.9483
15762TIP3    H168701   0.603   1.675   2.882  0.6148 -0.5490  1.0558
15762TIP3    H268702   0.525   1.546   2.895 -0.8335  0.0382 -1.1874
15763TIP3   OH268703   1.875   3.881  11.860  0.4620 -0.3468  0.5223
15763TIP3    H168704   1.909   3.895  11.949 -1.0857  0.7237  0.9817
15763TIP3    H268705   1.783   3.860  11.873 -0.3924  2.1377 -0.9170
15764TIP3   OH268706   2.417   3.079  12.994 -0.5347  0.2045 -0.5140
15764TIP3    H168707   2.328   3.046  13.008 -0.4683 -0.1792 -0.9759
15764TIP3    H268708   2.474   3.004  13.009 -0.3447  0.2346 -1.0385
15765TIP3   OH268709   1.273   5.797  14.276  0.6910  0.0233  0.1210
15765TIP3    H168710   1.193   5.748  14.254 -0.0076  1.8541 -1.6901
15765TIP3    H268711   1.243   5.886  14.292  2.2903  0.5341  0.4200
15766TIP3   OH268712   6.481   6.020   0.683 -0.2816  0.2752 -0.0862
15766TIP3    H168713   6.506   6.091   0.743 -2.1563 -1.5483  3.1750
15766TIP3    H268714   6.395   6.045   0.649 -1.0843 -0.4518  1.3060
15767TIP3   OH268715   2.393   6.567   0.561  0.7733  0.4919 -0.3292
15767TIP3    H168716   2.406   6.593   0.470  1.4049 -2.8863 -1.3311
15767TIP3    H268717   2.334   6.492   0.557  1.0418  0.0774  1.9977
15768TIP3   OH268718   1.596   4.508  13.440 -0.3282  0.0658  0.4982
15768TIP3    H168719   1.555   4.590  13.412 -1.9130 -1.0238 -0.5794
15768TIP3    H268720   1.591   4.451  13.363  0.3769 -1.1687  1.3252
15769TIP3   OH268721   5.919   4.289   4.823  0.0382  0.0471  0.3557
15769TIP3    H168722   5.945   4.216   4.767 -0.0546  0.9042 -0.8561
15769TIP3    H268723   5.962   4.273   4.906  1.2576 -0.5967 -0.3704
15770TIP3   OH268724   0.796   2.880  12.579  0.5250  0.3348 -0.8966
15770TIP3    H168725   0.728   2.880  12.646 -1.7472 -1.0359 -3.0037
15770TIP3    H268726   0.775   2.956  12.524 -0.4361 -1.0111 -2.5002
15771TIP3   OH268727   1.568   5.234   5.106  0.0404  0.3970  0.4753
15771TIP3    H168728   1.620   5.314   5.096  1.8982 -0.5509  1.8307
15771TIP3    H268729   1.601   5.194   5.187  0.8166 -2.8690 -1.2536
15772TIP3   OH268730   1.984   2.118  13.506  0.6257  0.2775 -0.1331
15772TIP3    H168731   1.902   2.119  13.456  0.6195  1.6006 -0.1174
15772TIP3    H268732   1.956   2.102  13.596  0.6127 -1.8016 -0.4483
15773TIP3   OH268733   6.316   0.466   4.643  0.1263 -0.3195  0.1941
15773TIP3    H168734   6.227   0.441   4.621  0.0208 -0.4013  0.7025
15773TIP3    H268735   6.371   0.396   4.606 -0.0875 -0.7467  0.6704
15774TIP3   OH268736   6.662   4.554  11.939 -0.2794 -0.0222  0.5667
15774TIP3    H168737   6.634   4.558  11.847  1.1635 -0.2242  0.0878
15774TIP3    H268738   6.755   4.575  11.936 -0.0900 -0.5749  1.9346
15775TIP3   OH268739   3.103   0.126   6.133  0.8866  0.2080  0.1564
15775TIP3    H168740   3.119   0.049   6.188  0.5449 -0.8389 -1.1526
15775TIP3    H268741   3.008   0.135   6.131  0.9271  0.7784  0.4189
15776TIP3   OH268742   5.609   5.774   2.882  1.0894  0.1259  0.6004
15776TIP3    H168743   5.539   5.726   2.927  1.4719 -2.6160 -1.4133
15776TIP3    H268744   5.681   5.777   2.944  0.1489  0.4131  1.6996
15777TIP3   OH268745   1.367   3.293   0.661 -0.2363  0.2555 -0.3581
15777TIP3    H168746   1.280   3.307   0.698  0.0057 -0.8787  0.7252
15777TIP3    H268747   1.374   3.198   0.652  0.2529  0.4138 -2.0786
15778TIP3   OH268748   1.177   0.690   3.576  0.4075  0.4243 -0.6482
15778TIP3    H168749   1.143   0.777   3.557  1.2958  0.6553 -1.2261
15778TIP3    H268750   1.202   0.654   3.490 -0.4698 -0.6293 -0.4876
15779TIP3   OH268751   4.173   2.990   4.366 -0.8997 -0.7192  0.3904
15779TIP3    H168752   4.236   2.941   4.419 -0.6296 -0.9499 -0.1385
15779TIP3    H268753   4.219   3.071   4.343 -0.1025 -1.6476 -1.4817
15780TIP3   OH268754   1.868   2.004  15.886 -0.6230 -0.1454 -0.5938
15780TIP3    H168755   1.848   1.957  15.966 -0.9007  0.4259 -0.3162
15780TIP3    H268756   1.948   1.964  15.853 -0.2591 -0.0951  0.2102
15781TIP3   OH268757   1.727   4.044  12.280  1.0195  0.3404 -0.0614
15781TIP3    H168758   1.713   3.986  12.355  0.5567 -0.7785 -0.9751
15781TIP3    H268759   1.751   4.128  12.318 -2.8102  0.9122  1.5251
15782TIP3   OH268760   6.632   4.673  15.451 -0.4063 -0.3787 -0.1007
15782TIP3    H168761   6.651   4.693  15.359  0.3108  0.3794  0.1984
15782TIP3    H268762   6.566   4.738  15.475  0.5438  0.4532  0.3420
15783TIP3   OH268763   6.274   4.651   4.424 -0.3525  0.0720 -0.3658
15783TIP3    H168764   6.251   4.566   4.387  0.9702  0.3943 -2.0314
15783TIP3    H268765   6.366   4.663   4.403 -0.1903  1.4028  0.9168
15784TIP3   OH268766   1.170   4.918  16.669  0.4498 -0.4090  0.0071
15784TIP3    H168767   1.203   4.859  16.736  2.3463  0.1777 -0.3698
15784TIP3    H268768   1.248   4.951  16.624 -0.7480 -0.8286 -2.5654
15785TIP3   OH268769   4.172   2.302  14.805 -0.1443  0.7145 -1.0747
15785TIP3    H168770   4.182   2.250  14.885 -0.8752  0.9571 -0.8145
15785TIP3    H268771   4.139   2.240  14.740 -1.6008  0.9628 -0.5998
15786TIP3   OH268772   4.776   5.905   1.475 -0.0799 -0.2496 -0.6887
15786TIP3    H168773   4.853   5.853   1.497 -1.0318 -0.5755  2.4497
15786TIP3    H268774   4.702   5.845   1.489 -1.0088  0.5912 -1.7821
15787TIP3   OH268775   5.815   4.733  12.112  0.3830  0.1572 -0.5003
15787TIP3    H168776   5.825   4.821  12.147 -1.0249  1.0263 -2.0970
15787TIP3    H268777   5.864   4.734  12.029 -0.1744 -0.3274 -0.8494
15788TIP3   OH268778   2.222   3.557  11.685 -0.2352 -0.2570 -0.2955
15788TIP3    H168779   2.192   3.474  11.648  0.6067 -1.8019  2.2765
15788TIP3    H268780   2.295   3.534  11.742 -0.2783  2.2037  0.8975
15789TIP3   OH268781   1.309   1.745  10.773  0.3347  0.0643  0.5003
15789TIP3    H168782   1.249   1.695  10.717  0.6480 -1.3471  1.3611
15789TIP3    H268783   1.253   1.809  10.817 -0.7612 -1.6824  1.8290
15790TIP3   OH268784   5.883   2.907  13.162  0.6612  0.2165 -0.0200
15790TIP3    H168785   5.910   2.875  13.249 -0.8713  0.3474  0.5375
15790TIP3    H268786   5.888   3.002  13.169 -0.4854  0.2733  0.3116
15791TIP3   OH268787   1.565   0.853  15.527  0.5858 -0.0124  0.2021
15791TIP3    H168788   1.582   0.765  15.560 -0.0406 -0.8509 -1.5721
15791TIP3    H268789   1.473   0.869  15.549  0.7656  0.3287  0.7430
15792TIP3   OH268790   1.405   1.084  11.849  0.6187  0.2235  0.4425
15792TIP3    H168791   1.353   1.141  11.792 -0.6982 -2.1109 -0.8548
15792TIP3    H268792   1.493   1.087  11.812  0.1956  0.1708 -0.5940
15793TIP3   OH268793   2.844   1.682  11.283  0.3632 -0.0595 -0.1245
15793TIP3    H168794   2.859   1.645  11.196  0.7724 -0.4599  0.1159
15793TIP3    H268795   2.928   1.676  11.328  0.4083  1.0398 -0.0277
15794TIP3   OH268796   1.867   5.377  13.024  0.2862  0.2401  0.3535
15794TIP3    H168797   1.784   5.405  12.985 -0.0206 -0.6853  0.3301
15794TIP3    H268798   1.920   5.457  13.026  0.9088  0.0929 -3.4059
15795TIP3   OH268799   2.672   3.798  16.371 -0.2790 -0.6684 -0.2311
15795TIP3    H168800   2.695   3.844  16.290 -0.2592  1.0081  0.6793
15795TIP3    H268801   2.688   3.705  16.351  1.5405 -0.1460 -1.5449
15796TIP3   OH268802   0.580   3.628  16.678 -0.0443  0.1104 -0.0987
15796TIP3    H168803   0.639   3.553  16.675 -0.3294 -0.1405  0.4327
15796TIP3    H268804   0.595   3.666  16.765 -0.4144  0.2494 -0.0951
15797TIP3   OH268805   0.913   1.975   3.450  0.2643  0.8247 -0.2218
15797TIP3    H168806   1.008   1.984   3.447  0.3885 -0.1495  0.3131
15797TIP3    H268807   0.879   2.063   3.435  1.2578  1.2755  0.1381
15798TIP3   OH268808   2.204   4.752   1.614  0.2289 -0.8938  0.0326
15798TIP3    H168809   2.285   4.796   1.638  0.4550 -1.1425 -0.2767
15798TIP3    H268810   2.136   4.819   1.625  0.3880 -0.8575  0.8845
15799TIP3   OH268811   0.746   0.004   2.814 -0.2998 -0.0672 -0.4228
15799TIP3    H168812   0.795   0.048   2.744  0.9934  1.6303  1.4326
15799TIP3    H268813   0.763   0.057   2.892 -1.1835 -2.2025  1.3289
15800TIP3   OH268814   0.494   6.092  16.149 -0.4289  0.2023 -0.4432
15800TIP3    H168815   0.519   6.162  16.209  1.6459 -0.9962  0.1992
15800TIP3    H268816   0.467   6.019  16.206 -0.7214 -0.1624 -1.0354
15801TIP3   OH268817   0.523   6.167  11.968 -0.0289 -0.0549  0.0239
15801TIP3    H168818   0.501   6.116  11.889  0.7123 -0.1752 -0.1165
15801TIP3    H268819   0.590   6.115  12.011  1.0783  1.0090 -0.3568
15802TIP3   OH268820   2.182   6.610  13.021  0.7597  0.4882 -0.0539
15802TIP3    H168821   2.216   6.592  12.933 -0.2627 -0.0362 -0.3629
15802TIP3    H268822   2.210   6.535  13.074  1.0331  0.6048 -0.0357
15803TIP3   OH268823   6.264   2.015  10.852 -0.4034  0.3364  0.2249
15803TIP3    H168824   6.258   2.093  10.797 -1.2487 -0.2231 -0.5350
15803TIP3    H268825   6.290   2.047  10.938 -0.0676  1.3670 -0.2425
15804TIP3   OH268826   3.832   5.995   4.701  0.4741  0.0118 -0.2201
15804TIP3    H168827   3.842   6.088   4.723  0.5119 -0.4187  1.7736
15804TIP3    H268828   3.911   5.953   4.737  0.0304 -0.9119 -0.2957
15805TIP3   OH268829   1.860   6.161  11.429  0.9076  0.2463  0.3591
15805TIP3    H168830   1.869   6.069  11.403 -2.2132 -0.1856  0.3481
15805TIP3    H268831   1.801   6.198  11.362  0.6309  1.7530  1.3953
15806TIP3   OH268832   2.374   4.888  13.189  0.1135  0.1116  0.0947
15806TIP3    H168833   2.324   4.969  13.179  0.2964  0.2241  0.0987
15806TIP3    H268834   2.321   4.834  13.248 -0.1866  0.0828 -0.1996
15807TIP3   OH268835   0.078   3.075   3.992 -0.0865  0.0807 -0.2426
15807TIP3    H168836   0.082   3.100   4.085  1.3230 -4.1219  1.0837
15807TIP3    H268837  -0.014   3.058   3.976 -0.4957  1.8829 -0.0067
15808TIP3   OH268838   1.892   2.077  13.799 -0.6445 -0.7107  0.0911
15808TIP3    H168839   1.859   2.122  13.878 -0.5932 -0.7977  0.1609
15808TIP3    H268840   1.984   2.060  13.818 -0.4797 -0.1990 -0.2261
15809TIP3   OH268841   4.602   6.177  13.700  0.3827 -0.3966  0.5268
15809TIP3    H168842   4.645   6.148  13.620  0.9552 -0.6156  0.9090
15809TIP3    H268843   4.508   6.176  13.679  0.4196 -1.8124  0.2862
15810TIP3   OH268844   2.990   6.333  13.811  0.3622 -0.4522  0.0909
15810TIP3    H168845   2.967   6.258  13.756 -0.5246 -1.0337  1.2018
15810TIP3    H268846   3.069   6.370  13.770  0.2598 -1.3984 -1.0239
15811TIP3   OH268847   6.694   5.430   4.502 -0.3466  0.2355  0.0763
15811TIP3    H168848   6.598   5.429   4.498 -0.4361 -1.4994  1.2014
15811TIP3    H268849   6.715   5.496   4.568 -0.9904 -1.5487  2.1795
15812TIP3   OH268850   1.234   3.221  16.022 -0.1042 -0.0824  0.5206
15812TIP3    H168851   1.257   3.314  16.027 -1.9735  0.3669  1.8692
15812TIP3    H268852   1.153   3.218  15.972  0.1540 -1.0486  0.1312
15813TIP3   OH268853   6.484   4.940  12.879 -0.0467 -0.1884 -0.4722
15813TIP3    H168854   6.462   5.014  12.936 -0.0851 -0.1450 -0.5435
15813TIP3    H268855   6.510   4.870  12.939 -0.5851 -0.3111 -0.3821
15814TIP3   OH268856   6.804   2.981   3.516 -0.5567 -0.4550  0.4584
15814TIP3    H168857   6.749   2.920   3.467  0.8095  0.2431 -2.0779
15814TIP3    H268858   6.743   3.027   3.573 -2.1458 -1.6526 -0.1860
15815TIP3   OH268859   1.905   5.930   1.058 -0.0791 -0.1128 -0.4285
15815TIP3    H168860   1.977   5.938   0.996 -0.3337 -0.8421 -0.8260
15815TIP3    H268861   1.908   5.839   1.086 -0.1238  0.1419  0.4459
15816TIP3   OH268862   2.393   2.357  11.234 -0.2147  0.6049  0.3845
15816TIP3    H168863   2.422   2.305  11.159  1.5628  0.6486  1.0062
15816TIP3    H268864   2.416   2.304  11.311  1.7018  2.2532  1.0395
15817TIP3   OH268865   4.325   1.160  16.414 -0.2860  0.0868  0.3559
15817TIP3    H168866   4.254   1.220  16.390 -0.5383 -0.8729 -1.4450
15817TIP3    H268867   4.347   1.115  16.333  0.7115 -1.4245  1.4143
15818TIP3   OH268868   5.655   0.272   4.226  0.3454  0.2210 -0.2128
15818TIP3    H168869   5.619   0.338   4.286 -0.2659 -0.2040 -0.1018
15818TIP3    H268870   5.734   0.240   4.270  0.2875  0.4156  0.0381
15819TIP3   OH268871   6.732   5.575   1.998  0.4257  0.1180 -0.0940
15819TIP3    H168872   6.702   5.486   1.978  2.4551  0.0040 -3.3736
15819TIP3    H268873   6.824   5.564   2.021  0.7430  1.3660 -0.6930
15820TIP3   OH268874   1.316   6.771  14.068  0.3238 -0.3030  0.1010
15820TIP3    H168875   1.316   6.758  14.163 -0.5063  0.7997  0.2900
15820TIP3    H268876   1.405   6.797  14.047  0.5651 -0.7584  0.5512
15821TIP3   OH268877   0.260   0.093   1.815 -0.0812  0.2878 -0.1355
15821TIP3    H168878   0.202   0.054   1.880  0.8402  0.8104  1.0340
15821TIP3    H268879   0.288   0.020   1.760 -0.4310 -0.2529  0.3993
15822TIP3   OH268880   3.245   4.090  13.484  0.0326 -0.0600 -0.7374
15822TIP3    H168881   3.286   4.011  13.521  1.5138  0.4881 -1.1578
15822TIP3    H268882   3.223   4.144  13.560  4.7873  1.9306 -0.4832
15823TIP3   OH268883   2.209   3.157  16.701  0.0958  0.0806  0.1247
15823TIP3    H168884   2.273   3.101  16.745  2.4256  0.7718 -2.1300
15823TIP3    H268885   2.184   3.222  16.767  2.8251  0.6261  0.7631
15824TIP3   OH268886   2.347   3.706  12.230  0.5680 -0.6219 -0.0164
15824TIP3    H168887   2.303   3.699  12.145  1.0403  0.3431 -0.3562
15824TIP3    H268888   2.276   3.705  12.293 -0.0850  1.6649 -0.5935
15825TIP3   OH268889   6.458   3.086   3.032 -0.3944  0.0080 -0.1990
15825TIP3    H168890   6.553   3.078   3.027 -0.3636  0.3456 -0.1847
15825TIP3    H268891   6.443   3.154   3.098 -0.6628 -0.4715  0.2491
15826TIP3   OH268892   0.687   0.762   6.179  1.0871 -0.2567  0.1552
15826TIP3    H168893   0.755   0.828   6.182  1.2809 -0.4117 -0.5799
15826TIP3    H268894   0.606   0.811   6.170  1.1662 -0.0978  0.3090
15827TIP3   OH268895   3.555   1.485  15.684  0.0168  0.4410  0.5001
15827TIP3    H168896   3.506   1.538  15.746  3.2994  1.4016  2.5492
15827TIP3    H268897   3.633   1.537  15.663  1.0751 -1.6230 -1.1362
15828TIP3   OH268898   0.440   6.118  12.620  0.1103  0.5181 -0.7320
15828TIP3    H168899   0.374   6.188  12.628 -0.5854 -0.0551 -1.3261
15828TIP3    H268900   0.389   6.039  12.605  0.9543  0.2449 -2.4531
15829TIP3   OH268901   2.646   3.985   5.445  0.1991  0.4317  0.3722
15829TIP3    H168902   2.686   3.906   5.484  0.9754  1.4272  1.6828
15829TIP3    H268903   2.719   4.031   5.405 -0.3195  0.3085 -0.7460
15830TIP3   OH268904   5.044   2.784  13.590  0.7288 -0.0234  0.1925
15830TIP3    H168905   5.098   2.790  13.511  0.5356 -0.5813  0.0126
15830TIP3    H268906   4.959   2.752  13.558  0.3163  0.7344  0.4836
15831TIP3   OH268907   2.944   6.681   4.781 -0.3997 -0.0900  0.3803
15831TIP3    H168908   2.928   6.588   4.763 -1.9432 -0.1720  1.9184
15831TIP3    H268909   2.949   6.721   4.695  1.2895 -1.7238 -0.3488
15832TIP3   OH268910   2.928   1.183  16.177 -0.3872 -0.2868  0.1770
15832TIP3    H168911   2.856   1.204  16.118  0.8258  0.7906 -0.9689
15832TIP3    H268912   2.981   1.262  16.180  1.3409 -1.3984  0.1455
15833TIP3   OH268913   0.167   6.728  15.395  0.2133  0.4064  0.1769
15833TIP3    H168914   0.137   6.816  15.371 -0.4079  0.7758  2.1387
15833TIP3    H268915   0.215   6.741  15.477 -0.0832 -1.1198  0.6185
15834TIP3   OH268916   3.863   5.024   0.949 -0.2573  0.4240 -0.5966
15834TIP3    H168917   3.802   5.018   1.023 -0.2102  1.7034 -0.4239
15834TIP3    H268918   3.845   4.946   0.897 -0.3426 -0.4820  0.7180
15835TIP3   OH268919   1.914   1.945   1.772  0.2131 -0.1118 -0.9841
15835TIP3    H168920   1.873   1.930   1.857  1.3156  2.2555  0.0624
15835TIP3    H268921   1.841   1.949   1.710 -0.9735  1.6176  0.4309
15836TIP3   OH268922   3.310   3.677   3.335 -0.3904  0.2259  0.6608
15836TIP3    H168923   3.366   3.602   3.358  1.2789  1.8381  2.1442
15836TIP3    H268924   3.222   3.650   3.363  0.1582 -1.2124  1.1117
15837TIP3   OH268925   4.023   6.604   2.669 -0.3620  0.0168 -0.7731
15837TIP3    H168926   4.075   6.658   2.610  0.7749 -0.2563 -0.0501
15837TIP3    H268927   4.077   6.595   2.748 -1.1432 -0.9721 -0.3228
15838TIP3   OH268928   0.387   4.883   0.694  0.3068 -0.8971 -0.2303
15838TIP3    H168929   0.292   4.893   0.696  0.4509  0.7968  2.0004
15838TIP3    H268930   0.419   4.959   0.645  0.6185  1.0243  2.7033
15839TIP3   OH268931   0.276   5.347   4.901  0.0177  0.6073 -0.1105
15839TIP3    H168932   0.264   5.265   4.852 -2.3015  0.4612  0.5511
15839TIP3    H268933   0.357   5.384   4.867 -0.1958 -0.7146 -2.2561
15840TIP3   OH268934   3.985   0.729   0.140 -0.0044 -0.5762 -0.0379
15840TIP3    H168935   4.059   0.748   0.198 -0.2466 -0.0914  0.1158
15840TIP3    H268936   4.025   0.723   0.053 -0.2078  3.4306 -0.5858
15841TIP3   OH268937   6.415   3.547   4.164  0.0525  0.1076  0.0148
15841TIP3    H168938   6.406   3.463   4.118 -1.0926  0.8616 -1.2280
15841TIP3    H268939   6.406   3.524   4.256 -0.5599 -1.1132 -0.3196
15842TIP3   OH268940   4.595   6.386  16.220  0.1147  0.7308  0.4237
15842TIP3    H168941   4.544   6.320  16.266  0.3856 -0.0025 -0.3172
15842TIP3    H268942   4.532   6.432  16.165  0.0543  0.6216  0.4034
15843TIP3   OH268943   4.017   6.599   0.317 -0.1582 -0.0145  0.2610
15843TIP3    H168944   4.010   6.518   0.367  1.5729  0.7642  1.8824
15843TIP3    H268945   4.038   6.666   0.381 -0.3502  1.5218 -1.2012
15844TIP3   OH268946   4.309   6.354  11.668  0.0539 -0.3065 -0.1377
15844TIP3    H168947   4.279   6.301  11.742 -1.1762  3.5056  2.3774
15844TIP3    H268948   4.403   6.365  11.683  0.6860 -2.8126 -1.5871
15845TIP3   OH268949   5.987   3.106  17.064  0.4310 -0.3712 -0.2221
15845TIP3    H168950   6.018   3.062  17.143 -1.6913  0.2073  0.9997
15845TIP3    H268951   5.999   3.199  17.081 -1.2195 -0.1685  0.0073
15846TIP3   OH268952   2.157   1.127   0.611  0.1036  0.1604  0.1226
15846TIP3    H168953   2.064   1.135   0.590  0.0591 -0.5836  0.0329
15846TIP3    H268954   2.161   1.137   0.706 -0.1063 -0.1772  0.1661
15847TIP3   OH268955   5.083   2.174   5.012 -0.3083 -0.1631  0.1162
15847TIP3    H168956   5.157   2.220   4.973 -0.9508 -0.1118 -1.0577
15847TIP3    H268957   5.093   2.189   5.106  1.2216 -0.2301 -0.0112
15848TIP3   OH268958   4.686   2.398   1.973  0.0804  0.5981 -0.3641
15848TIP3    H168959   4.693   2.493   1.981 -0.2370  0.5818  0.1956
15848TIP3    H268960   4.676   2.367   2.063  0.1316  0.0383 -0.5464
15849TIP3   OH268961   5.468   1.961  14.094 -0.2491 -0.1584  0.2072
15849TIP3    H168962   5.374   1.949  14.100 -0.1108 -1.2403  0.3757
15849TIP3    H268963   5.484   2.046  14.137 -1.2693  0.6682 -0.9892
15850TIP3   OH268964   5.366   1.834  16.733 -0.3432  0.0712  0.9342
15850TIP3    H168965   5.399   1.746  16.753  0.6390  0.6444  1.9352
15850TIP3    H268966   5.369   1.880  16.816 -2.7849  0.4822  0.8645
15851TIP3   OH268967   0.879   2.552  16.544  0.4245 -0.0611  0.2293
15851TIP3    H168968   0.830   2.622  16.587  1.0088  0.9018 -0.6352
15851TIP3    H268969   0.936   2.597  16.482  0.6411 -1.3224 -0.5218
15852TIP3   OH268970   4.332   6.389   1.831 -0.1069  0.4053 -0.7432
15852TIP3    H168971   4.404   6.407   1.771  0.4596 -1.1951 -0.5924
15852TIP3    H268972   4.338   6.295   1.848 -0.5214  0.7100  1.4554
15853TIP3   OH268973   6.307   6.812   5.672  0.4900 -0.2974 -0.1898
15853TIP3    H168974   6.344   6.753   5.607  1.5920 -0.4383  0.5359
15853TIP3    H268975   6.364   6.889   5.670  0.0246  0.0551  0.0043
15854TIP3   OH268976   4.135   6.715  13.405 -0.2344  1.0665 -0.3158
15854TIP3    H168977   4.161   6.677  13.489 -1.1065 -1.5873 -1.1333
15854TIP3    H268978   4.217   6.738  13.362  0.3388  0.1520  0.2636
15855TIP3   OH268979   1.905   3.708  15.307  0.2943  0.3973 -0.3097
15855TIP3    H168980   1.877   3.646  15.241 -1.5832  0.8408  0.0144
15855TIP3    H268981   1.985   3.748  15.271 -0.2411  0.0608 -1.9278
15856TIP3   OH268982   4.922   2.663  16.231 -0.3241  0.0366 -0.3113
15856TIP3    H168983   4.997   2.609  16.257 -2.0171 -1.5641  1.5923
15856TIP3    H268984   4.921   2.735  16.295 -1.3086 -0.8616  0.7273
15857TIP3   OH268985   1.613   0.606  15.733  0.2549  0.7607  0.0633
15857TIP3    H168986   1.691   0.562  15.699  0.0964  0.5209  0.0067
15857TIP3    H268987   1.542   0.579  15.673  0.2663  1.5562 -0.3161
15858TIP3   OH268988   0.309   5.181   4.665  0.3318 -0.3866 -0.3758
15858TIP3    H168989   0.402   5.180   4.641  0.3207  1.0330 -0.5801
15858TIP3    H268990   0.268   5.236   4.598 -0.6334 -0.8476 -0.1810
15859TIP3   OH268991   5.195   0.837   5.339  0.4558  0.1590 -0.3830
15859TIP3    H168992   5.207   0.928   5.363  1.5049  0.0662 -0.5185
15859TIP3    H268993   5.231   0.830   5.251 -1.0870 -0.0428 -1.0187
15860TIP3   OH268994   5.576   3.740  16.895  0.2993 -0.0871 -0.0809
15860TIP3    H168995   5.517   3.789  16.953  0.0668 -0.2767 -0.1519
15860TIP3    H268996   5.593   3.659  16.943  1.2936  0.3790  0.3751
15861TIP3   OH268997   4.153   3.300   4.432 -0.0093 -0.7552  0.4043
15861TIP3    H168998   4.121   3.252   4.355  0.5562  2.3788 -1.9874
15861TIP3    H268999   4.075   3.342   4.467  0.0884 -0.3136  0.0965
15862TIP3   OH269000   6.453   5.529   4.030 -0.2885  0.2976 -0.2884
15862TIP3    H169001   6.470   5.441   4.064 -1.8547  0.5576  1.3553
15862TIP3    H269002   6.361   5.528   4.005 -0.3382  1.4724 -0.2221
15863TIP3   OH269003   4.143   1.175  13.846 -0.6875  0.2121 -0.0060
15863TIP3    H169004   4.076   1.231  13.808  0.1040 -0.1540 -2.0447
15863TIP3    H269005   4.222   1.229  13.849 -0.4840 -0.0890  0.1785
15864TIP3   OH269006   0.922   2.377  13.340  0.6085 -0.1409  0.2687
15864TIP3    H169007   1.000   2.430  13.329  0.8875 -0.1995  1.7337
15864TIP3    H269008   0.870   2.423  13.406  0.7258 -1.5138  1.3673
15865TIP3   OH269009   4.525   1.078   1.860 -0.7452  0.0082  0.0407
15865TIP3    H169010   4.461   1.055   1.928  0.3238 -5.5961 -0.3903
15865TIP3    H269011   4.601   1.111   1.909 -0.7803 -1.8486  1.4463
15866TIP3   OH269012   1.304   1.346   1.343 -0.4263  0.2228 -0.2447
15866TIP3    H169013   1.216   1.309   1.334 -1.0088  1.3349  0.5328
15866TIP3    H269014   1.339   1.346   1.254 -1.8277  1.1847 -0.8445
15867TIP3   OH269015   3.382   3.831   5.744  0.1570  0.0233  0.3074
15867TIP3    H169016   3.459   3.852   5.797  1.1567  0.1948 -1.1328
15867TIP3    H269017   3.314   3.890   5.775  1.0991  1.0192  0.5375
15868TIP3   OH269018   3.380   1.922  12.052 -0.0673  0.1428 -0.2696
15868TIP3    H169019   3.315   1.858  12.022 -0.3512  0.7740 -1.0203
15868TIP3    H269020   3.453   1.913  11.991  0.1201  0.1596 -0.0499
15869TIP3   OH269021   1.569   1.739  10.703 -0.4023  0.0870 -0.3346
15869TIP3    H169022   1.482   1.756  10.740 -0.1706 -0.2597  0.3829
15869TIP3    H269023   1.568   1.784  10.619 -1.2937  0.0581 -0.3512
15870TIP3   OH269024   2.281   6.615   1.356  0.2760 -0.8635 -0.5842
15870TIP3    H169025   2.265   6.582   1.268 -0.5746  0.2427 -0.8651
15870TIP3    H269026   2.285   6.536   1.411 -0.5609 -1.4935 -1.4005
15871TIP3   OH269027   3.233   2.117  12.155  0.1583 -0.0484 -0.1804
15871TIP3    H169028   3.302   2.150  12.213 -0.8451 -0.2942  1.2126
15871TIP3    H269029   3.277   2.051  12.101  1.0186 -0.2275  0.7128
15872TIP3   OH269030   2.160   5.725   4.455 -0.6429 -0.3403 -0.2015
15872TIP3    H169031   2.220   5.715   4.529  1.3782 -2.0861 -1.9316
15872TIP3    H269032   2.187   5.806   4.412 -0.2362 -0.5509 -0.3477
15873TIP3   OH269033   6.173   2.681  16.083 -0.2235  0.5559  0.1690
15873TIP3    H169034   6.243   2.664  16.020  0.1567 -0.6143  0.8598
15873TIP3    H269035   6.153   2.774  16.072  0.0644  0.4594 -1.4098
15874TIP3   OH269036   6.253   2.208   1.136  0.3481 -0.2391 -0.2495
15874TIP3    H169037   6.213   2.209   1.223  0.5969  0.3707 -0.1360
15874TIP3    H269038   6.285   2.298   1.123 -0.2234 -0.1618 -1.2171
15875TIP3   OH269039   4.600   0.017   2.522 -0.2002  0.6162 -0.4192
15875TIP3    H169040   4.522   0.045   2.473  0.3061 -0.1328 -1.7170
15875TIP3    H269041   4.657   0.094   2.521 -0.2063  0.6221 -1.0213
15876TIP3   OH269042   5.217   3.122  11.512 -0.2903  0.0998 -0.6161
15876TIP3    H169043   5.293   3.145  11.458 -0.3516 -0.7249 -1.0853
15876TIP3    H269044   5.249   3.127  11.602 -0.0134  0.8988 -0.7521
15877TIP3   OH269045   2.428   3.335   4.736  0.3125  0.3770  0.8163
15877TIP3    H169046   2.395   3.385   4.811 -1.7140  1.3034 -0.6024
15877TIP3    H269047   2.414   3.393   4.661  4.5219  0.5129 -0.1288
15878TIP3   OH269048   2.333   3.203   5.780  0.2877 -0.0661 -0.3611
15878TIP3    H169049   2.404   3.142   5.762  1.3528  0.4628  1.7544
15878TIP3    H269050   2.254   3.149   5.775  0.7875 -0.6960 -2.5709
15879TIP3   OH269051   3.693   2.221   5.721 -0.2273 -0.0215  0.2489
15879TIP3    H169052   3.737   2.165   5.785 -2.1391 -0.1528  1.5127
15879TIP3    H269053   3.702   2.174   5.638  0.0031 -1.1650  0.8992
15880TIP3   OH269054   1.609   5.459   3.747  0.1429 -0.2623  0.4443
15880TIP3    H169055   1.514   5.445   3.740 -0.1971  2.2764 -1.8635
15880TIP3    H269056   1.624   5.480   3.839 -2.1283  2.3503  0.3384
15881TIP3   OH269057   5.640   6.735  15.512  0.0614  0.2609  0.4528
15881TIP3    H169058   5.604   6.822  15.499 -0.2350 -0.0657 -1.0834
15881TIP3    H269059   5.728   6.739  15.474 -0.2989 -0.3481 -0.4735
15882TIP3   OH269060   4.229   5.771  15.305  0.1181 -0.2411  0.1229
15882TIP3    H169061   4.234   5.687  15.349 -0.5818 -0.2859  0.1328
15882TIP3    H269062   4.292   5.766  15.234  0.4210 -0.5952  0.4194
15883TIP3   OH269063   3.514   2.832  11.446  0.3983  0.4621 -0.1825
15883TIP3    H169064   3.590   2.799  11.397 -0.9044 -0.7275 -1.4905
15883TIP3    H269065   3.438   2.802  11.396 -1.0033 -0.0733  2.1090
15884TIP3   OH269066   3.938   4.400   3.733  0.1585  0.0100  0.1096
15884TIP3    H169067   3.988   4.480   3.750 -0.5952  1.0499 -2.1314
15884TIP3    H269068   3.967   4.339   3.801  1.3906  1.8893  1.3846
15885TIP3   OH269069   6.488   1.698  14.369 -0.0382 -0.0173  0.0459
15885TIP3    H169070   6.449   1.785  14.378 -2.4716 -0.7893 -2.0468
15885TIP3    H269071   6.442   1.644  14.433 -0.3816 -0.3213 -0.4548
15886TIP3   OH269072   4.914   1.769   5.539 -0.2599  0.0511  0.3054
15886TIP3    H169073   4.849   1.840   5.540 -1.8757 -1.3446 -0.0716
15886TIP3    H269074   4.898   1.723   5.457  0.4177 -1.0394  0.7608
15887TIP3   OH269075   2.008   0.421   0.781  0.0465  0.2756  0.0929
15887TIP3    H169076   2.014   0.395   0.873 -0.4761 -1.1465 -0.2458
15887TIP3    H269077   1.973   0.510   0.783 -0.2712  0.1350  1.2571
15888TIP3   OH269078   3.156   5.199   3.556  0.1741 -0.1935  0.5059
15888TIP3    H169079   3.176   5.255   3.481  0.7323  1.4370  1.7991
15888TIP3    H269080   3.242   5.177   3.592  0.1051 -3.5844 -1.0593
15889TIP3   OH269081   5.426   1.264  12.879 -0.2904 -0.2042  0.0901
15889TIP3    H169082   5.499   1.228  12.829 -0.5094  1.3591 -1.4420
15889TIP3    H269083   5.466   1.331  12.934 -0.4756  0.2267 -0.2952
15890TIP3   OH269084   3.177   6.131  11.359 -0.6439  0.9995  0.8996
15890TIP3    H169085   3.239   6.087  11.417  0.7147 -2.0645 -2.4411
15890TIP3    H269086   3.221   6.211  11.332  0.5912  0.3440  0.8990
15891TIP3   OH269087   3.886   4.182   3.970 -0.9688  0.2488  0.1750
15891TIP3    H169088   3.957   4.191   4.033 -1.1685 -0.9179  0.5923
15891TIP3    H269089   3.827   4.255   3.989 -1.2090 -0.2845  1.5894
15892TIP3   OH269090   2.262   2.515  12.453  0.1489  0.0864  0.1725
15892TIP3    H169091   2.321   2.463  12.398  1.6543  1.9548 -0.0723
15892TIP3    H269092   2.319   2.557  12.517 -0.9379  1.7194  0.1407
15893TIP3   OH269093   5.514   4.211  16.679 -0.0070  0.5141  0.2875
15893TIP3    H169094   5.589   4.171  16.723 -0.7784  0.2088  1.3322
15893TIP3    H269095   5.554   4.264  16.610  1.1966  0.6824  1.0785
15894TIP3   OH269096   3.149   6.428   4.646 -0.6988 -0.5975  0.3737
15894TIP3    H169097   3.179   6.417   4.556 -1.1291 -2.0808  0.3757
15894TIP3    H269098   3.054   6.436   4.639 -0.8637 -1.9070  0.7413
15895TIP3   OH269099   2.137   5.816   3.716  0.2247 -0.7290 -0.0027
15895TIP3    H169100   2.206   5.876   3.746  0.6144 -0.4425 -1.3673
15895TIP3    H269101   2.057   5.868   3.720  0.4700 -0.2844 -0.6070
15896TIP3   OH269102   0.133   0.124   0.242  0.2459  0.6725  0.0811
15896TIP3    H169103   0.150   0.031   0.232 -4.5788 -0.4902 -0.0709
15896TIP3    H269104   0.174   0.148   0.325 -0.4925 -2.3341  1.4437
15897TIP3   OH269105   4.577   4.659  13.163 -0.6829  0.1435 -0.3261
15897TIP3    H169106   4.543   4.720  13.228 -0.0255  0.2462 -0.0695
15897TIP3    H269107   4.648   4.614  13.208 -2.0841 -1.8726 -0.0245
15898TIP3   OH269108   1.463   1.631  14.470 -0.6972 -0.0281  0.0205
15898TIP3    H169109   1.428   1.713  14.505 -1.4431 -0.0596 -0.6376
15898TIP3    H269110   1.432   1.628  14.380  0.3883 -0.4297 -0.3537
15899TIP3   OH269111   1.915   2.038   5.385  0.8352  0.0555  0.0306
15899TIP3    H169112   1.869   2.103   5.331 -0.0768 -2.2049 -2.0729
15899TIP3    H269113   1.986   2.006   5.329 -0.7097 -3.0534 -0.3323
15900TIP3   OH269114   3.070   2.780   0.158  0.2244  0.2336  0.2966
15900TIP3    H169115   3.154   2.790   0.112 -0.2855  0.1233 -0.6756
15900TIP3    H269116   3.081   2.831   0.238  2.2189 -1.9538  1.5601
15901TIP3   OH269117   2.265   0.995  14.056  0.2535  0.2195  0.0606
15901TIP3    H169118   2.332   1.003  13.988 -1.7028 -0.7692 -2.1082
15901TIP3    H269119   2.216   1.076  14.050 -0.5995 -0.3216 -0.5263
15902TIP3   OH269120   4.613   2.648   1.708  0.2802 -0.3285 -0.4036
15902TIP3    H169121   4.686   2.668   1.767  0.6117  0.5970 -1.0959
15902TIP3    H269122   4.618   2.554   1.695 -0.1748 -0.6660  1.5107
15903TIP3   OH269123   0.628   3.713   3.972 -0.1162 -0.1478 -0.5357
15903TIP3    H169124   0.683   3.771   4.025  0.4983 -0.1744 -1.1236
15903TIP3    H269125   0.645   3.625   4.007 -1.5149  0.0580  0.7614
15904TIP3   OH269126   1.640   3.555   1.965 -0.5617  0.1377 -0.1214
15904TIP3    H169127   1.709   3.612   1.930  1.4760 -1.6541  0.7450
15904TIP3    H269128   1.563   3.578   1.913  0.7426  1.9801 -1.4214
15905TIP3   OH269129   4.458   5.242  13.686 -0.5596 -0.0643  0.5835
15905TIP3    H169130   4.548   5.268  13.707 -0.3132  0.4654 -0.9830
15905TIP3    H269131   4.404   5.310  13.727 -0.1656  0.3603  0.4138
15906TIP3   OH269132   4.360   6.476   2.685 -0.7758  0.2474  0.1435
15906TIP3    H169133   4.447   6.515   2.674 -1.3036  1.3978 -0.0734
15906TIP3    H269134   4.346   6.475   2.780 -0.4193 -0.2189  0.1983
15907TIP3   OH269135   0.436   5.384  14.712  0.3508 -0.0246  0.3960
15907TIP3    H169136   0.427   5.298  14.673 -1.4790  0.1304  0.3623
15907TIP3    H269137   0.398   5.444  14.647  1.2047  0.7528  0.5959
15908TIP3   OH269138   6.813   2.712   3.816 -0.4096  0.1367  0.1074
15908TIP3    H169139   6.874   2.640   3.801  0.4332  0.3921  2.0515
15908TIP3    H269140   6.727   2.676   3.797 -0.1155 -1.7293  2.0406
15909TIP3   OH269141   6.508   0.034  14.794  0.4598 -0.1980 -0.1232
15909TIP3    H169142   6.599   0.059  14.779  0.7520  0.0450  1.7213
15909TIP3    H269143   6.471   0.019  14.707  1.8316  1.2262 -0.9903
15910TIP3   OH269144   3.067   4.457   2.305 -0.0884  0.1451 -0.3994
15910TIP3    H169145   3.048   4.434   2.214 -1.7089  0.8905 -0.2917
15910TIP3    H269146   3.017   4.538   2.320 -2.1193 -1.3900  1.9130
15911TIP3   OH269147   5.626   6.639   6.079  0.5713 -0.6985  0.3172
15911TIP3    H169148   5.576   6.598   6.150  1.2720 -1.7147  0.2306
15911TIP3    H269149   5.713   6.652   6.115  0.8002 -0.7773 -0.2073
15912TIP3   OH269150   0.028   0.201  14.164  0.4607  0.0797  0.5517
15912TIP3    H169151  -0.004   0.258  14.235 -0.0419  0.8476 -0.2713
15912TIP3    H269152  -0.037   0.211  14.094  1.4897  0.1478 -0.4194
15913TIP3   OH269153   1.022   4.717  15.910  0.0938 -0.1661  1.2890
15913TIP3    H169154   1.088   4.779  15.940 -0.5516  0.8697  0.6398
15913TIP3    H269155   1.020   4.649  15.978  1.1776  0.2452  1.7572
15914TIP3   OH269156   3.303   6.541   5.948 -0.4302 -0.0237  0.0056
15914TIP3    H169157   3.395   6.519   5.935 -0.2146  0.2381  0.9528
15914TIP3    H269158   3.301   6.582   6.035 -1.6121 -1.0305  0.4814
15915TIP3   OH269159   1.560   2.784  14.011 -0.0618 -0.2197  0.0303
15915TIP3    H169160   1.590   2.855  14.068 -0.9673  0.0907  0.1491
15915TIP3    H269161   1.475   2.815  13.979 -0.4089 -1.1978 -0.0126
15916TIP3   OH269162   6.566   3.992  11.679 -0.7591  0.3543 -0.7864
15916TIP3    H169163   6.560   3.980  11.584  0.4482 -0.4042 -0.7806
15916TIP3    H269164   6.479   4.022  11.704 -0.5920  2.4781 -2.3996
15917TIP3   OH269165   5.680   1.101   2.573 -0.0925 -0.0980  0.1047
15917TIP3    H169166   5.711   1.181   2.530  0.5430 -0.0589  0.6178
15917TIP3    H269167   5.648   1.130   2.658 -0.3206 -0.3230  0.0961
15918TIP3   OH269168   3.298   6.559  14.407 -0.1119  0.1024  0.5870
15918TIP3    H169169   3.246   6.580  14.330 -0.4867  0.6785  0.9907
15918TIP3    H269170   3.328   6.644  14.439 -0.0150 -0.1284  1.1151
15919TIP3   OH269171   0.564   6.645  14.040  0.0865  0.5175 -0.4997
15919TIP3    H169172   0.511   6.713  14.082  1.4227  0.7972  0.8034
15919TIP3    H269173   0.642   6.691  14.010  0.8581 -0.3661  0.1067
15920TIP3   OH269174   2.325   0.042   5.196  0.7500 -1.0376  0.1689
15920TIP3    H169175   2.410   0.087   5.193  0.0742  0.3030  0.5288
15920TIP3    H269176   2.282   0.078   5.273 -0.5508 -0.9584 -0.5753
15921TIP3   OH269177   5.098   1.429   0.153  0.0514 -0.4012  0.0445
15921TIP3    H169178   5.021   1.485   0.139 -1.4216 -2.2462  0.2872
15921TIP3    H269179   5.170   1.490   0.169 -1.7990  1.4036  2.1084
15922TIP3   OH269180   2.965   1.062   1.380 -1.0429  0.3255 -0.2808
15922TIP3    H169181   2.984   1.114   1.459  0.3663  0.5658 -0.7515
15922TIP3    H269182   3.048   1.018   1.360 -0.4390  2.5707 -3.3290
15923TIP3   OH269183   2.161   0.541  12.634 -0.6585 -0.0462  0.8569
15923TIP3    H169184   2.189   0.537  12.725 -2.3121  0.4159  1.4085
15923TIP3    H269185   2.140   0.633  12.619  0.6443  0.1038 -0.3526
15924TIP3   OH269186   0.069   1.699  14.234 -0.4108 -0.4157  0.0882
15924TIP3    H169187   0.124   1.766  14.194 -0.3084 -0.4013  0.2533
15924TIP3    H269188   0.130   1.631  14.263 -0.7035 -1.9818 -2.6674
15925TIP3   OH269189   4.183   0.940  16.147 -0.0352  0.0706 -0.0509
15925TIP3    H169190   4.246   1.000  16.106  0.0478  0.9910  1.3417
15925TIP3    H269191   4.115   0.998  16.181 -0.8096 -0.7848 -0.1288
15926TIP3   OH269192   2.492   4.398   3.585  0.4547  0.2400 -0.2200
15926TIP3    H169193   2.528   4.400   3.673 -0.7961 -1.7333  0.3874
15926TIP3    H269194   2.397   4.392   3.597  0.3105 -1.0648 -1.6681
15927TIP3   OH269195   2.528   0.134   3.048  0.0130  0.4870 -0.2786
15927TIP3    H169196   2.442   0.094   3.058 -0.2871  0.7000 -1.7359
15927TIP3    H269197   2.515   0.202   2.982  1.2157  0.7727 -0.2470
15928TIP3   OH269198   5.613   5.956  15.578 -0.5063  0.1440 -0.8163
15928TIP3    H169199   5.652   5.957  15.666  0.1798  0.3112 -1.1204
15928TIP3    H269200   5.661   5.889  15.531 -1.3217 -0.4162 -0.8779
15929TIP3   OH269201   1.058   1.893  10.159  0.1545 -0.2555  0.5217
15929TIP3    H169202   1.102   1.826  10.106  0.0865  0.7373 -0.8326
15929TIP3    H269203   0.971   1.857  10.176 -0.9017  0.5641 -2.5523
15930TIP3   OH269204   0.609   3.350  12.205 -0.4830 -0.2467  0.1326
15930TIP3    H169205   0.557   3.318  12.278  0.6968 -1.0480  0.6468
15930TIP3    H269206   0.693   3.373  12.244 -0.0538 -0.0638 -0.8659
15931TIP3   OH269207   0.663   3.936  14.166  0.0580 -0.3649  0.5844
15931TIP3    H169208   0.747   3.951  14.209  0.2166  0.8711 -0.1050
15931TIP3    H269209   0.671   3.849  14.127  1.9114  0.5728 -1.3820
15932TIP3   OH269210   2.820   2.396  13.135 -0.7410 -0.3860  0.6437
15932TIP3    H169211   2.847   2.379  13.045 -0.3087  0.9962  0.4946
15932TIP3    H269212   2.890   2.358  13.189  1.8152  3.2683  0.2687
15933TIP3   OH269213   3.921   4.378   3.151  0.7079  0.4047  0.6608
15933TIP3    H169214   3.828   4.402   3.154  0.3625 -0.5010 -1.1523
15933TIP3    H269215   3.922   4.284   3.169  1.3318  0.4645  0.9917
15934TIP3   OH269216   0.753   5.244   2.316  0.2658  0.1973  0.0164
15934TIP3    H169217   0.786   5.157   2.335 -0.1048  0.2150  0.7948
15934TIP3    H269218   0.658   5.236   2.325  0.2313  0.6791  0.1200
15935TIP3   OH269219   3.343   4.383   5.260 -0.1411  0.6278  0.1802
15935TIP3    H169220   3.312   4.470   5.233 -1.4886 -0.4558 -2.0737
15935TIP3    H269221   3.270   4.345   5.309 -0.3845  0.0203 -0.6296
15936TIP3   OH269222   5.024   4.924  13.469 -0.7100  0.0962  0.4757
15936TIP3    H169223   5.074   4.969  13.537 -0.7842 -1.3519  1.5330
15936TIP3    H269224   5.085   4.916  13.395 -0.3351  0.8957  0.6936
15937TIP3   OH269225   3.301   5.119   2.326  0.0787  0.2383  0.1496
15937TIP3    H169226   3.223   5.066   2.309  0.3818 -0.4727  0.9471
15937TIP3    H269227   3.352   5.069   2.390  0.8369  1.0422  0.2022
15938TIP3   OH269228   1.327   6.682   3.389 -0.0760  0.0943 -0.6513
15938TIP3    H169229   1.283   6.663   3.472 -0.3216 -0.2527 -0.8593
15938TIP3    H269230   1.401   6.738   3.413  0.0061 -0.2169 -0.1645
15939TIP3   OH269231   3.611   6.781   0.276 -0.0366 -0.7242  0.1640
15939TIP3    H169232   3.662   6.722   0.221  0.3892 -1.2501  1.0989
15939TIP3    H269233   3.536   6.806   0.222  0.5662 -0.9202 -0.7809
15940TIP3   OH269234   1.720   1.404   3.523 -0.6349  0.4236 -0.0127
15940TIP3    H169235   1.729   1.308   3.526 -0.8309  0.4061  0.0566
15940TIP3    H269236   1.626   1.419   3.535 -0.4845  0.6717  0.9238
15941TIP3   OH269237   4.564   6.290  14.953  0.5620 -0.1335 -0.2925
15941TIP3    H169238   4.566   6.310  15.047 -0.2088  0.8090 -0.4576
15941TIP3    H269239   4.490   6.230  14.943  0.6350 -0.2219 -0.3028
15942TIP3   OH269240   0.803   3.671   0.070 -1.0436 -0.2814  0.3389
15942TIP3    H169241   0.727   3.618   0.045 -1.4416  0.0942  0.7374
15942TIP3    H269242   0.810   3.661   0.165  0.3270 -1.5145  0.1554
15943TIP3   OH269243   4.917   3.568   0.560  0.1277  0.1211  0.3242
15943TIP3    H169244   4.826   3.564   0.529  0.5291  1.0441 -1.0739
15943TIP3    H269245   4.941   3.476   0.575 -0.7895 -0.1955 -0.0486
15944TIP3   OH269246   1.401   1.533   0.446 -0.3243  0.1449  0.4747
15944TIP3    H169247   1.319   1.574   0.420  0.1387  0.7494 -0.0496
15944TIP3    H269248   1.442   1.596   0.505 -1.0268 -0.9025  2.1619
15945TIP3   OH269249   1.294   6.373  16.103 -0.1759  0.3958 -0.3287
15945TIP3    H169250   1.250   6.328  16.176 -1.2188  0.4794 -0.8890
15945TIP3    H269251   1.292   6.310  16.031  4.6247 -1.4758  0.7471
15946TIP3   OH269252   5.213   0.787   3.969 -0.0772  0.3068 -0.1376
15946TIP3    H169253   5.189   0.783   4.061  0.7080  1.4713  0.1389
15946TIP3    H269254   5.302   0.823   3.968 -1.1941  3.4503 -1.4211
15947TIP3   OH269255   3.339   5.190  11.411 -1.1341 -0.4485  0.3581
15947TIP3    H169256   3.260   5.239  11.435 -0.2239  0.8786  0.7713
15947TIP3    H269257   3.345   5.121  11.476 -1.5360 -0.0734  0.8033
15948TIP3   OH269258   1.629   1.325  10.397 -0.0189  0.0156  0.4951
15948TIP3    H169259   1.594   1.414  10.406 -0.4709 -0.1849  0.7814
15948TIP3    H269260   1.561   1.277  10.349  1.0925  0.3111 -1.4763
15949TIP3   OH269261   2.843   2.369  15.740 -0.6039  0.2973  0.0355
15949TIP3    H169262   2.816   2.441  15.797  0.0293  1.2906 -0.8780
15949TIP3    H269263   2.771   2.360  15.678 -1.1995 -0.6449  0.8424
15950TIP3   OH269264   2.585   6.323   4.578 -0.4192 -0.5971  0.0199
15950TIP3    H169265   2.600   6.231   4.560 -1.3727 -0.5728 -0.9861
15950TIP3    H269266   2.517   6.350   4.516  1.7247  1.4472 -1.6471
15951TIP3   OH269267   2.025   2.210   0.239  0.8569 -0.4316  0.2923
15951TIP3    H169268   1.994   2.135   0.188  2.4030  0.3575 -1.9423
15951TIP3    H269269   2.010   2.286   0.182  2.1391  0.5643  1.2398
15952TIP3   OH269270   4.872   2.512  14.794  0.2394 -0.0584  0.1674
15952TIP3    H169271   4.928   2.589  14.788 -0.4111  0.6094  1.9748
15952TIP3    H269272   4.915   2.455  14.856 -1.1458  0.5839  1.7988
15953TIP3   OH269273   4.405   6.404  10.879  0.0684 -0.3621  0.5372
15953TIP3    H169274   4.431   6.464  10.948  1.2152  1.6232 -1.4828
15953TIP3    H269275   4.323   6.441  10.845 -0.5344 -1.3669  0.8554
15954TIP3   OH269276   5.685   3.640   4.848 -0.5780  0.6394 -0.0083
15954TIP3    H169277   5.624   3.710   4.823  0.4781  0.6208 -3.0396
15954TIP3    H269278   5.771   3.674   4.825 -0.1792 -2.4691 -4.3517
15955TIP3   OH269279   3.393   1.270   3.957  0.0861 -0.2440 -0.0326
15955TIP3    H169280   3.396   1.175   3.945 -1.5526 -0.1171 -1.9501
15955TIP3    H269281   3.305   1.287   3.989  0.5602  0.6197  0.8821
15956TIP3   OH269282   4.282   2.002   1.766 -0.2361  0.5472  0.0828
15956TIP3    H169283   4.299   1.908   1.764  0.7951  0.7333 -0.4957
15956TIP3    H269284   4.276   2.023   1.859 -1.4779 -0.2472  0.2052
15957TIP3   OH269285   4.818   0.540   1.203 -0.1375  0.4777  0.4448
15957TIP3    H169286   4.773   0.583   1.276 -1.5942 -0.9519  0.4403
15957TIP3    H269287   4.752   0.483   1.165  1.1315 -0.1612 -0.8711
15958TIP3   OH269288   5.989   5.909  13.177 -0.6617  0.0866 -0.6687
15958TIP3    H169289   6.042   5.905  13.256 -0.8779  2.1161 -0.3540
15958TIP3    H269290   5.990   5.820  13.142  1.7946 -0.2526  0.0672
15959TIP3   OH269291   5.639   3.222   0.200  0.3609  0.4403  0.2554
15959TIP3    H169292   5.624   3.162   0.127 -0.8932  2.5720 -1.3749
15959TIP3    H269293   5.561   3.213   0.255  0.0427  0.7436 -0.1376
15960TIP3   OH269294   1.183   5.821   3.084  0.3972 -0.6370 -0.3167
15960TIP3    H169295   1.199   5.875   3.162 -0.3239 -0.1175 -0.5108
15960TIP3    H269296   1.263   5.771   3.072  0.1411 -1.5211  1.3872
15961TIP3   OH269297   2.178   3.355  16.509  0.0146  0.1333  0.7952
15961TIP3    H169298   2.108   3.397  16.560  0.0466  1.7722 -0.4564
15961TIP3    H269299   2.202   3.278  16.562 -1.0766  0.8478  2.4304
15962TIP3   OH269300   6.591   6.055  12.329 -0.7113 -0.5733 -0.1745
15962TIP3    H169301   6.631   5.982  12.282 -0.3367  0.0737 -0.8845
15962TIP3    H269302   6.650   6.071  12.403 -0.4570 -0.5683 -0.3807
15963TIP3   OH269303   3.526   6.751   5.915 -0.0340 -0.6880 -0.2098
15963TIP3    H169304   3.544   6.711   6.000  3.1752  0.3068 -0.3008
15963TIP3    H269305   3.551   6.684   5.851  2.3305  0.1982 -0.3223
15964TIP3   OH269306   1.926   2.636   3.170 -0.1019  0.3794  0.0174
15964TIP3    H169307   1.902   2.720   3.208 -0.6670  0.2199  0.0359
15964TIP3    H269308   1.843   2.586   3.169  0.2987 -0.3112  0.3620
15965TIP3   OH269309   4.072   3.476  15.115  0.3290  0.3451 -0.3276
15965TIP3    H169310   4.112   3.494  15.030 -0.9437 -1.0242 -1.2533
15965TIP3    H269311   4.095   3.385  15.135 -1.5930 -0.2327 -0.5226
15966TIP3   OH269312   3.175   6.009   0.547 -0.1206 -0.1690  0.1557
15966TIP3    H169313   3.238   5.961   0.492 -0.5609 -0.9985  0.3704
15966TIP3    H269314   3.146   6.081   0.491 -0.0958 -0.6428 -0.4858
15967TIP3   OH269315   3.098   2.354  12.052  0.4841 -0.2488  0.0800
15967TIP3    H169316   3.172   2.295  12.064 -0.0464 -0.8606  0.4481
15967TIP3    H269317   3.137   2.439  12.035  1.2696 -0.8550 -1.2919
15968TIP3   OH269318   6.227   1.162  12.392 -0.0625  0.1104 -0.3240
15968TIP3    H169319   6.255   1.252  12.380  1.1561  0.0767  1.7686
15968TIP3    H269320   6.140   1.169  12.432 -0.1793  0.3203 -0.6078
15969TIP3   OH269321   3.323   2.079  15.132 -0.5034  0.0202 -0.1045
15969TIP3    H169322   3.391   2.124  15.082  0.0257  0.7845  1.2780
15969TIP3    H269323   3.265   2.148  15.163  0.3768 -0.1861  2.1304
15970TIP3   OH269324   3.814   0.542   2.411 -0.6218 -0.2071 -0.2736
15970TIP3    H169325   3.860   0.571   2.332 -1.2579 -0.2195 -0.6616
15970TIP3    H269326   3.872   0.566   2.483  0.1187 -0.4834 -0.7629
15971TIP3   OH269327   3.858   4.379  13.432 -0.1350 -0.0755  0.3494
15971TIP3    H169328   3.927   4.439  13.460  0.7203 -0.8760  0.0230
15971TIP3    H269329   3.780   4.433  13.425  0.1222  0.5804  2.1095
15972TIP3   OH269330   2.012   5.315  14.985 -0.1590  0.1475  0.5697
15972TIP3    H169331   2.045   5.400  14.957 -2.5375  0.4634 -1.7440
15972TIP3    H269332   2.068   5.251  14.940 -0.6310  0.5996 -0.7079
15973TIP3   OH269333   3.277   5.724   0.099  0.4478  0.8570  0.1759
15973TIP3    H169334   3.310   5.675   0.023  0.8760  0.6064  0.5197
15973TIP3    H269335   3.246   5.807   0.062 -1.7136 -0.2387 -0.6540
15974TIP3   OH269336   6.668   3.219   1.975 -0.0137  0.0581 -0.0339
15974TIP3    H169337   6.653   3.313   1.979  3.2741  0.6639  0.9051
15974TIP3    H269338   6.640   3.194   1.887 -1.5250  1.7447 -0.0943
15975TIP3   OH269339   5.391   2.366   2.967 -0.3199 -0.1798  0.0324
15975TIP3    H169340   5.462   2.403   3.019  0.3792  0.0387 -1.0533
15975TIP3    H269341   5.403   2.403   2.879 -4.4696  3.5858  0.7161
15976TIP3   OH269342   0.929   3.092   0.294 -0.0692  0.6592 -0.3086
15976TIP3    H169343   0.955   3.004   0.266 -0.4498  0.1902  0.7933
15976TIP3    H269344   0.970   3.150   0.229 -0.7260 -0.3677 -1.6970
15977TIP3   OH269345   4.215   4.106   3.022 -0.2319  0.0693  0.1688
15977TIP3    H169346   4.224   4.036   2.957  1.8562 -0.0577  0.5334
15977TIP3    H269347   4.221   4.187   2.970  0.4216 -0.0320  0.0822
15978TIP3   OH269348   1.313   3.736  13.438 -0.0936  0.3169 -0.0684
15978TIP3    H169349   1.365   3.811  13.409  0.1203 -0.1062 -0.8156
15978TIP3    H269350   1.225   3.752  13.402 -0.3362  0.7199  0.6650
15979TIP3   OH269351   6.431   2.689  13.431 -0.1036  0.7139  0.1281
15979TIP3    H169352   6.478   2.608  13.410 -2.0709 -0.4121 -0.1096
15979TIP3    H269353   6.404   2.724  13.346  0.9778  1.8339  0.2025
15980TIP3   OH269354   3.039   6.503   1.747 -0.3108 -0.3860  0.2035
15980TIP3    H169355   2.954   6.480   1.784  0.7987 -0.9069  2.5902
15980TIP3    H269356   3.061   6.588   1.786  1.1475 -1.2194  1.3184
15981TIP3   OH269357   5.041   4.508  12.085  0.1165 -0.3145 -0.0344
15981TIP3    H169358   5.065   4.482  12.174 -0.4136  0.0258  0.2143
15981TIP3    H269359   5.115   4.479  12.031  0.9070  0.3855  0.6477
15982TIP3   OH269360   4.806   1.305  13.818  0.1833 -0.1387  0.4836
15982TIP3    H169361   4.719   1.345  13.809 -1.5684 -3.8110 -0.7269
15982TIP3    H269362   4.841   1.305  13.729  0.8713  0.1740  0.7543
15983TIP3   OH269363   5.573   2.843   3.640 -0.8378 -0.6551  0.1943
15983TIP3    H169364   5.493   2.855   3.589 -0.5469  1.9719  0.2059
15983TIP3    H269365   5.592   2.750   3.632 -2.7178 -0.9785 -1.5885
15984TIP3   OH269366   6.149   2.158   1.388 -0.1288 -0.1248 -0.1294
15984TIP3    H169367   6.228   2.184   1.435 -0.4943 -0.5555  0.7455
15984TIP3    H269368   6.092   2.122   1.455 -1.0087  0.0266 -0.7768
15985TIP3   OH269369   2.980   2.016  14.677 -0.3087 -0.0116 -0.2596
15985TIP3    H169370   2.977   2.090  14.737 -0.9616 -0.0505 -0.2409
15985TIP3    H269371   3.022   2.050  14.598  0.5037  0.0567  0.1840
15986TIP3   OH269372   3.366   3.684  12.835  0.7108 -0.0384 -0.2457
15986TIP3    H169373   3.321   3.632  12.769 -0.8045 -0.2192  0.8913
15986TIP3    H269374   3.297   3.733  12.879  1.4557 -1.0471  2.2033
15987TIP3   OH269375   5.755   6.691  11.435 -0.1554  0.1986 -0.6156
15987TIP3    H169376   5.817   6.762  11.447  1.4969 -1.4706  1.4769
15987TIP3    H269377   5.681   6.714  11.491 -0.9507  1.5768 -2.1447
15988TIP3   OH269378   6.700   5.157   0.004  0.5754 -0.1235  0.0275
15988TIP3    H169379   6.732   5.240  -0.031  0.2296  0.2181  0.5035
15988TIP3    H269380   6.777   5.117   0.045  0.7979 -0.1536 -0.4131
15989TIP3   OH269381   5.214   2.458   4.654  0.3151 -0.1794 -0.0281
15989TIP3    H169382   5.227   2.383   4.712 -2.4587 -0.8042 -0.0761
15989TIP3    H269383   5.197   2.532   4.712  1.1923  0.0292 -0.0202
15990TIP3   OH269384   2.823   3.385   2.692 -0.0874  0.0745 -0.0424
15990TIP3    H169385   2.882   3.358   2.622 -0.5111 -0.1437 -0.3238
15990TIP3    H269386   2.782   3.304   2.721  1.0538 -0.0171  1.3767
15991TIP3   OH269387   4.564   4.896   1.623 -0.0694 -0.4818 -0.6195
15991TIP3    H169388   4.529   4.954   1.690 -0.4879 -1.2679 -0.1425
15991TIP3    H269389   4.641   4.857   1.664  0.3175 -0.1280 -1.0050
15992TIP3   OH269390   1.219   5.289  15.528 -0.0110  0.2432  0.2336
15992TIP3    H169391   1.250   5.267  15.440  0.3092  0.4079  0.3029
15992TIP3    H269392   1.257   5.222  15.584  1.8420  1.5060  0.6016
15993TIP3   OH269393   3.206   6.125  13.496 -0.4487  0.0833  0.4465
15993TIP3    H169394   3.224   6.219  13.503  0.2854 -0.0831  0.9310
15993TIP3    H269395   3.164   6.103  13.579 -0.5871 -0.0263  0.3482
15994TIP3   OH269396   3.564   1.545  13.064  0.3157 -0.7904 -0.5033
15994TIP3    H169397   3.508   1.521  13.138  0.7255 -0.4436 -0.0714
15994TIP3    H269398   3.642   1.490  13.074  0.7362 -0.1596 -0.1909
15995TIP3   OH269399   5.276   0.933  14.237 -0.1930 -0.0312 -0.0305
15995TIP3    H169400   5.206   0.997  14.227 -0.2520  0.0394  0.7636
15995TIP3    H269401   5.339   0.976  14.296  0.7247  0.0713 -1.0407
15996TIP3   OH269402   4.141   6.671  12.070 -0.0784  0.1363  0.4772
15996TIP3    H169403   4.230   6.705  12.078  0.0625 -0.2674  0.6535
15996TIP3    H269404   4.088   6.732  12.122 -0.0377  0.8580 -0.3127
15997TIP3   OH269405   0.032   3.976  10.983 -0.4170 -0.1502 -0.1484
15997TIP3    H169406   0.092   3.902  10.975 -0.2763  0.0329 -0.9424
15997TIP3    H269407   0.051   4.029  10.905 -0.5316  0.7057  0.3988
15998TIP3   OH269408   2.107   1.573   0.269 -0.0107 -0.5890 -0.0847
15998TIP3    H169409   2.038   1.566   0.202  0.5665  0.1050 -0.7777
15998TIP3    H269410   2.184   1.535   0.228  0.4549  0.2188  0.0152
15999TIP3   OH269411   6.027   0.488   5.069  0.0021 -0.7164 -0.1798
15999TIP3    H169412   5.981   0.505   4.986  0.9965 -1.3768 -0.8938
15999TIP3    H269413   6.120   0.496   5.046  0.5418 -4.9511 -0.1617
16000TIP3   OH269414   4.278   4.463   4.995 -0.7473 -0.3704 -0.2676
16000TIP3    H169415   4.359   4.500   5.028 -1.7234  1.2115  0.4863
16000TIP3    H269416   4.261   4.387   5.051 -0.0193 -0.4644 -0.1666
16001TIP3   OH269417   1.267   1.536   5.299  0.2681  0.1858  0.3985
16001TIP3    H169418   1.241   1.536   5.207  0.6194 -0.1671  0.2954
16001TIP3    H269419   1.313   1.619   5.311 -0.4300  0.5740  0.4514
16002TIP3   OH269420   2.080   1.384  11.196  0.3159  0.5521 -0.3519
16002TIP3    H169421   2.134   1.454  11.160  1.2912  0.5792  1.1011
16002TIP3    H269422   2.003   1.428  11.233 -1.3322  0.4344 -3.3219
16003TIP3   OH269423   3.444   2.397   1.992 -0.6242  0.1791 -0.1401
16003TIP3    H169424   3.375   2.376   2.055  0.2589 -2.8933 -0.0576
16003TIP3    H269425   3.398   2.438   1.919 -1.9958  1.5562  1.4052
16004TIP3   OH269426   1.285   6.814  12.482  0.0422  0.5778  0.2222
16004TIP3    H169427   1.239   6.880  12.534  0.6724 -0.7244  2.5844
16004TIP3    H269428   1.236   6.809  12.400 -2.2374  1.3251  1.4687
16005TIP3   OH269429   6.047   4.023   2.974 -0.5907 -0.0667 -0.7055
16005TIP3    H169430   6.026   3.940   2.931  3.7809 -0.6010 -2.2775
16005TIP3    H269431   6.114   4.002   3.039  0.1658  2.1070 -0.6698
16006TIP3   OH269432   2.871   4.771  16.655  0.1397  0.2130  0.5564
16006TIP3    H169433   2.926   4.746  16.580 -1.4634 -2.7254  0.2484
16006TIP3    H269434   2.934   4.799  16.721  1.7039  1.3301 -1.2896
16007TIP3   OH269435   4.273   4.404  13.296 -0.0284  0.4494  0.5425
16007TIP3    H169436   4.195   4.432  13.345  0.5305  0.1311  1.6656
16007TIP3    H269437   4.305   4.483  13.254  0.6901  1.2618  2.4699
16008TIP3   OH269438   3.934   5.674   1.324  1.1083  0.1610 -0.0924
16008TIP3    H169439   4.011   5.718   1.288  1.7329  0.0019  0.9945
16008TIP3    H269440   3.938   5.585   1.288  2.1755 -0.2436  0.9686
16009TIP3   OH269441   3.332   6.213  15.533 -0.4025 -0.1035  0.3378
16009TIP3    H169442   3.379   6.202  15.616  1.0988 -2.5029 -0.7198
16009TIP3    H269443   3.339   6.128  15.490 -2.5423  0.5855 -1.5754
16010TIP3   OH269444   2.142   1.530  16.413 -0.4106  0.3259  0.4024
16010TIP3    H169445   2.094   1.612  16.420 -1.4579 -0.3031  0.7086
16010TIP3    H269446   2.120   1.482  16.493 -0.0110 -0.3655  0.1066
16011TIP3   OH269447   3.829   4.794   0.776 -0.3651  0.2607 -0.2567
16011TIP3    H169448   3.805   4.722   0.835 -0.2967  0.7120  0.3330
16011TIP3    H269449   3.762   4.791   0.707  0.0086 -0.7636 -0.5884
16012TIP3   OH269450   4.932   0.535   5.554 -0.5400  0.6876  0.0197
16012TIP3    H169451   4.979   0.567   5.478 -0.1633  0.1198  0.0068
16012TIP3    H269452   4.952   0.597   5.624  2.3665 -0.8923  0.7353
16013TIP3   OH269453   4.477   2.534  12.899  0.0582 -0.1456 -0.3467
16013TIP3    H169454   4.474   2.480  12.978 -0.0721  1.4261  0.7767
16013TIP3    H269455   4.532   2.609  12.924  0.3650  0.1811 -1.8967
16014TIP3   OH269456   3.403   3.482  14.211  0.0445  0.5103 -0.4791
16014TIP3    H169457   3.390   3.577  14.216  0.1067  0.4363  2.2793
16014TIP3    H269458   3.497   3.470  14.218 -0.0886  0.2211  1.3564
16015TIP3   OH269459   4.149   5.048  11.999  0.3211 -0.3855  0.3398
16015TIP3    H169460   4.173   5.116  11.937  0.4992  0.2615  1.1073
16015TIP3    H269461   4.232   5.014  12.030  0.2421  0.1923  1.1963
16016TIP3   OH269462   4.794   1.962  15.418 -0.4565  0.2283 -0.1753
16016TIP3    H169463   4.732   2.003  15.479  0.3740  1.1720  0.0506
16016TIP3    H269464   4.831   1.889  15.468  0.3788  1.1214  0.5561
16017TIP3   OH269465   5.470   2.734   3.227 -0.2082 -0.2914 -0.4617
16017TIP3    H169466   5.418   2.775   3.159  0.3963 -0.3565 -0.9650
16017TIP3    H269467   5.519   2.665   3.182  0.1533 -0.3699  0.0434
16018TIP3   OH269468   6.754   4.063   0.498  0.8423 -0.8894  0.0098
16018TIP3    H169469   6.750   4.159   0.505 -2.0013 -0.9284  0.2647
16018TIP3    H269470   6.753   4.032   0.588  1.4877 -1.1667 -0.0772
16019TIP3   OH269471   2.256   3.225  11.204 -0.3500  0.3948 -0.4283
16019TIP3    H169472   2.304   3.183  11.133  0.5868 -1.1257  1.0306
16019TIP3    H269473   2.322   3.243  11.271 -1.5249 -0.2437  0.9610
16020TIP3   OH269474   0.043   5.964   1.309 -0.5025 -0.2062  0.2042
16020TIP3    H169475   0.062   6.048   1.349 -2.5006  0.9410 -1.0631
16020TIP3    H269476   0.053   5.979   1.215 -3.5524 -0.4855 -0.2850
16021TIP3   OH269477   5.619   1.791  10.232  0.0990 -0.4405  0.0180
16021TIP3    H169478   5.687   1.726  10.250  0.6763 -1.1966 -4.0520
16021TIP3    H269479   5.538   1.740  10.228  0.0463 -0.3524 -0.0465
16022TIP3   OH269480   0.255   2.236   0.524 -0.0264 -0.0806  0.2763
16022TIP3    H169481   0.283   2.314   0.477 -1.7197  0.5998  0.3414
16022TIP3    H269482   0.252   2.263   0.616 -2.3622  0.3836  0.1245
16023TIP3   OH269483   5.387   2.471   0.885  0.5843 -0.2145 -0.2712
16023TIP3    H169484   5.350   2.385   0.868 -1.0497  0.6612 -1.4756
16023TIP3    H269485   5.426   2.464   0.972 -1.1947 -1.6309  0.4812
16024TIP3   OH269486   2.183   0.057   5.967 -0.0167 -0.1593  0.2837
16024TIP3    H169487   2.228   0.021   6.044 -0.0110 -0.5325  0.1070
16024TIP3    H269488   2.167   0.148   5.990  1.3644  0.1489  0.1179
16025TIP3   OH269489   0.950   5.015   5.262 -0.2823 -0.5192  0.5863
16025TIP3    H169490   0.856   5.031   5.276 -0.3169 -0.6307  0.4713
16025TIP3    H269491   0.991   5.051   5.341 -0.3962 -0.2058  0.5059
16026TIP3   OH269492   0.248   6.051   5.844 -0.0679 -0.1830 -0.5338
16026TIP3    H169493   0.156   6.069   5.862  0.1307  1.4870 -0.9488
16026TIP3    H269494   0.247   5.978   5.783 -1.0876 -0.5120 -0.1435
16027TIP3   OH269495   5.844   4.525   5.575 -0.6519  0.5903 -0.4886
16027TIP3    H169496   5.759   4.487   5.554 -0.3040  0.4570 -1.7742
16027TIP3    H269497   5.868   4.486   5.659  0.5658 -3.6908 -2.5491
16028TIP3   OH269498   2.440   1.718   1.178  0.4640 -0.3339  0.5780
16028TIP3    H169499   2.438   1.632   1.221  1.8786 -0.8156 -0.2682
16028TIP3    H269500   2.533   1.737   1.167  0.1545  0.2384 -1.3222
16029TIP3   OH269501   4.185   2.024   4.767  0.0495  0.3748 -0.4482
16029TIP3    H169502   4.090   2.009   4.761  0.0048  0.2789  0.3834
16029TIP3    H269503   4.201   2.040   4.860  0.7750  0.9505 -0.6662
16030TIP3   OH269504   1.759   5.645   3.160 -0.2920 -0.1836  0.1642
16030TIP3    H169505   1.842   5.634   3.207 -0.0825  0.8620  0.0662
16030TIP3    H269506   1.774   5.720   3.103 -0.6476 -1.2600 -1.3843
16031TIP3   OH269507   1.945   3.019  14.511  0.2384 -0.3276 -0.3127
16031TIP3    H169508   1.975   2.966  14.438  2.0682 -0.9699  0.8448
16031TIP3    H269509   1.936   2.958  14.584  3.2152  0.9489  1.2912
16032TIP3   OH269510   6.651   4.948  12.669  0.3098 -0.0676  0.7186
16032TIP3    H169511   6.624   4.868  12.624 -1.8562  1.1277 -0.2798
16032TIP3    H269512   6.611   4.940  12.756 -1.8919  0.8532 -0.1324
16033TIP3   OH269513   4.627   5.281   4.319 -0.2828 -0.5964  0.2020
16033TIP3    H169514   4.581   5.268   4.236 -0.2356 -1.0627  0.2515
16033TIP3    H269515   4.632   5.377   4.328 -0.1338 -0.5408 -0.4201
16034TIP3   OH269516   5.486   5.713   0.825 -0.3261  0.1749 -0.2935
16034TIP3    H169517   5.443   5.647   0.880 -0.9218 -0.0636 -1.0130
16034TIP3    H269518   5.575   5.681   0.814 -0.6899 -0.6811 -0.8704
16035TIP3   OH269519   2.938   5.480   3.400  0.0687 -0.2860 -0.6765
16035TIP3    H169520   2.970   5.485   3.310  0.9359 -1.9670 -0.4975
16035TIP3    H269521   2.924   5.387   3.415 -1.5053  0.1005  0.4643
16036TIP3   OH269522   4.442   3.125   0.983  0.1818 -0.3895  0.0305
16036TIP3    H169523   4.483   3.108   1.068 -1.4599 -2.2060  0.5308
16036TIP3    H269524   4.370   3.186   1.003  0.5629  0.1690 -0.2825
16037TIP3   OH269525   0.359   1.974  11.046  0.2478  0.5222  0.3168
16037TIP3    H169526   0.432   2.000  10.990  0.3169  0.9869  0.6247
16037TIP3    H269527   0.282   1.978  10.988  0.5366 -0.5966 -0.1880
16038TIP3   OH269528   5.090   2.041  14.832  0.2408 -0.0334  0.6684
16038TIP3    H169529   5.109   1.968  14.772 -0.1530  0.1731  0.2890
16038TIP3    H269530   5.154   2.031  14.902  0.7630 -0.2356  0.1745
16039TIP3   OH269531   1.269   2.839   5.098 -0.0247  0.0513  0.1304
16039TIP3    H169532   1.346   2.838   5.155 -0.1015  0.7564  0.2589
16039TIP3    H269533   1.195   2.842   5.158 -0.1232  0.2184  0.0021
16040TIP3   OH269534   6.740   1.225  15.975  0.1977  0.0190  0.2482
16040TIP3    H169535   6.691   1.285  16.032 -0.0175  1.1931 -1.1108
16040TIP3    H269536   6.821   1.208  16.023 -0.2768  0.3905  1.2294
16041TIP3   OH269537   6.275   2.646   3.757  0.4027 -0.2187 -0.3686
16041TIP3    H169538   6.217   2.613   3.688  0.7882 -1.3320 -0.1800
16041TIP3    H269539   6.220   2.707   3.807 -0.0627  0.1235 -1.2784
16042TIP3   OH269540   4.810   3.331   5.943  0.0367  0.2202  0.2252
16042TIP3    H169541   4.893   3.319   5.988  0.3823  1.0746 -0.1634
16042TIP3    H269542   4.775   3.413   5.977  0.2768  0.8591 -0.9898
16043TIP3   OH269543   0.712   0.362  16.716  0.2195  0.9786 -0.3706
16043TIP3    H169544   0.783   0.419  16.745  3.2871 -1.7413 -1.8514
16043TIP3    H269545   0.733   0.342  16.625 -2.1663 -0.4043 -0.7071
16044TIP3   OH269546   1.985   0.660   4.952 -0.1267  0.3853 -0.7281
16044TIP3    H169547   2.033   0.743   4.954 -2.0537  1.5401 -0.1183
16044TIP3    H269548   1.999   0.622   5.038 -0.4788  0.8291 -0.4718
16045TIP3   OH269549   0.597   1.697   3.465 -0.0801  0.1275 -0.0799
16045TIP3    H169550   0.532   1.672   3.400  0.5911 -1.8038 -0.0573
16045TIP3    H269551   0.681   1.685   3.420  0.4461 -2.1170  1.3435
16046TIP3   OH269552   2.195   2.470   5.352  0.3314 -0.7505  0.1213
16046TIP3    H169553   2.102   2.492   5.356  0.8674  1.7443  1.9565
16046TIP3    H269554   2.200   2.378   5.376 -1.6622 -0.9946 -0.2568
16047TIP3   OH269555   2.891   6.574   5.049 -0.1206  0.5660 -0.0921
16047TIP3    H169556   2.925   6.616   4.970  0.9496  0.6985  0.4284
16047TIP3    H269557   2.968   6.543   5.096 -0.7625  0.1434  0.7244
16048TIP3   OH269558   4.351   1.192  14.322 -0.2564 -0.1352  0.2913
16048TIP3    H169559   4.307   1.154  14.399 -0.5887  0.2326  0.2859
16048TIP3    H269560   4.440   1.210  14.352 -0.1944 -0.6062  0.3951
16049TIP3   OH269561   1.948   6.310  11.050  0.0513  0.0778  0.4486
16049TIP3    H169562   1.930   6.396  11.013  0.0907 -0.5591 -1.1090
16049TIP3    H269563   2.034   6.287  11.016  0.5160 -0.1486  1.7120
16050TIP3   OH269564   4.114   2.154  11.835 -0.2223  0.0730 -0.7994
16050TIP3    H169565   4.103   2.225  11.899 -2.2500 -1.3656  0.5742
16050TIP3    H269566   4.057   2.084  11.868  0.3397 -1.5290 -3.0647
16051TIP3   OH269567   4.364   0.335  11.095 -0.5263  0.2970  0.1363
16051TIP3    H169568   4.290   0.394  11.106  0.1804  1.2575 -0.1162
16051TIP3    H269569   4.361   0.308  11.003 -0.6025  0.2837  0.1430
16052TIP3   OH269570   5.239   0.645  16.791  0.1464  0.5663 -0.1061
16052TIP3    H169571   5.286   0.590  16.852 -0.7485 -0.2916 -0.1611
16052TIP3    H269572   5.170   0.687  16.843  0.1641  0.8139 -0.2764
16053TIP3   OH269573   6.240   5.961   1.305 -0.2044 -0.5719  0.0144
16053TIP3    H169574   6.275   5.973   1.394 -1.3304 -2.2503  0.7472
16053TIP3    H269575   6.317   5.957   1.249  0.5924 -0.4924  1.0700
16054TIP3   OH269576   1.974   1.239   3.682  0.4315  0.4715 -0.0125
16054TIP3    H169577   1.908   1.299   3.717 -0.9721 -0.7859 -0.4037
16054TIP3    H269578   1.973   1.254   3.588 -0.3984 -0.5512 -0.1959
16055TIP3   OH269579   1.884   4.810  16.055  0.0269 -0.0882 -0.1567
16055TIP3    H169580   1.945   4.739  16.035 -0.3729 -0.5478  0.2207
16055TIP3    H269581   1.922   4.887  16.013  0.1497 -0.6519 -1.1191
16056TIP3   OH269582   5.835   5.292  12.957  0.0955 -0.1568 -0.4664
16056TIP3    H169583   5.752   5.274  12.913  0.2738  1.6726 -1.6466
16056TIP3    H269584   5.899   5.301  12.886  1.1801 -0.8348  0.3860
16057TIP3   OH269585   2.954   4.532   0.557 -0.2555  0.6979  0.3258
16057TIP3    H169586   3.013   4.573   0.493  0.0164 -1.6794 -1.0834
16057TIP3    H269587   3.005   4.459   0.593 -1.4680  0.1575  1.0130
16058TIP3   OH269588   1.104   1.788  14.071 -0.1868 -0.4085  0.3998
16058TIP3    H169589   1.101   1.804  13.976  0.3351 -1.4408  0.1919
16058TIP3    H269590   1.025   1.736  14.088  0.5706 -1.6448  0.2271
16059TIP3   OH269591   5.769   5.889   0.222 -0.7969  0.1879 -0.1612
16059TIP3    H169592   5.830   5.816   0.213  1.0548  1.8344 -1.9143
16059TIP3    H269593   5.800   5.937   0.299 -1.0473  0.0262  0.0451
16060TIP3   OH269594   0.588   4.864  15.172 -0.7493  0.3855 -0.0103
16060TIP3    H169595   0.650   4.792  15.156 -0.7647  0.6524 -1.3416
16060TIP3    H269596   0.600   4.885  15.265  0.9394  0.2218 -0.1626
16061TIP3   OH269597   3.699   1.868  16.060 -0.0074  0.4815  0.0663
16061TIP3    H169598   3.647   1.809  16.006 -0.3545  0.5666  0.3026
16061TIP3    H269599   3.703   1.950  16.010  0.3230  0.3143 -0.1805
16062TIP3   OH269600   0.874   3.007  11.787 -0.1981  0.3298  0.2262
16062TIP3    H169601   0.863   3.086  11.840 -0.4857  0.0464  0.6011
16062TIP3    H269602   0.926   3.034  11.712 -2.1675  1.3877 -0.8320
16063TIP3   OH269603   2.787   6.261   2.311  0.0665  0.2937  0.2586
16063TIP3    H169604   2.732   6.184   2.326 -0.9728  0.9077 -0.2865
16063TIP3    H269605   2.733   6.334   2.340  0.1977  1.0031 -1.2084
16064TIP3   OH269606   5.567   6.727  13.124 -0.1990  0.1367 -0.8751
16064TIP3    H169607   5.478   6.717  13.156 -1.0516  1.0094 -2.7859
16064TIP3    H269608   5.620   6.736  13.203 -1.3694 -3.0580  0.4209
16065TIP3   OH269609   3.644   4.041  13.356  0.1036 -0.0580 -0.2329
16065TIP3    H169610   3.580   3.997  13.412  0.2264 -1.6862 -1.3208
16065TIP3    H269611   3.591   4.092  13.295 -0.0645  0.5270  0.3841
16066TIP3   OH269612   0.338   2.753   2.396 -0.5311  0.2151  0.0337
16066TIP3    H169613   0.266   2.815   2.406  0.7466  1.4121  2.7031
16066TIP3    H269614   0.311   2.677   2.447  0.3609  0.9868  1.7251
16067TIP3   OH269615   0.529   5.121  15.093  0.5632  0.0004  0.4037
16067TIP3    H169616   0.563   5.032  15.093  2.6128  0.7099 -0.7499
16067TIP3    H269617   0.541   5.152  15.182 -2.9146 -1.7590  1.6333
16068TIP3   OH269618   4.243   6.457  13.211  0.8036 -0.1007 -0.5125
16068TIP3    H169619   4.274   6.516  13.280  0.3773 -0.2717 -0.1700
16068TIP3    H269620   4.161   6.421  13.245  0.4836 -0.0319 -1.1958
16069TIP3   OH269621   0.428   3.561   2.414  0.1577 -0.5768 -0.5244
16069TIP3    H169622   0.482   3.638   2.425  2.1324 -1.7413 -1.5734
16069TIP3    H269623   0.431   3.517   2.499 -1.1170  0.5181  0.1297
16070TIP3   OH269624   2.389   5.105   5.159  0.3930  0.8441 -0.5086
16070TIP3    H169625   2.460   5.136   5.103  1.4727  0.4767  0.5988
16070TIP3    H269626   2.421   5.120   5.248 -0.6037 -0.0359  0.0172
16071TIP3   OH269627   0.760   3.009   6.266 -0.0556  0.6201  0.1207
16071TIP3    H169628   0.823   2.954   6.313 -1.1898  0.2080  1.2170
16071TIP3    H269629   0.784   3.098   6.288  0.2138  0.4705  0.4433
16072TIP3   OH269630   2.865   0.888   6.225 -0.0955 -0.2816 -0.1739
16072TIP3    H169631   2.781   0.881   6.179 -0.2066 -2.1955  0.2630
16072TIP3    H269632   2.841   0.900   6.317  0.1264  0.0083 -0.1501
16073TIP3   OH269633   4.575   1.725  14.833  0.0854 -0.3028  0.1476
16073TIP3    H169634   4.562   1.631  14.848  0.2580 -0.3425  0.0498
16073TIP3    H269635   4.509   1.767  14.888 -1.4179 -0.5275 -1.4168
16074TIP3   OH269636   1.786   1.286  11.687 -0.1285  0.1248  0.0931
16074TIP3    H169637   1.852   1.246  11.630  0.2191  1.3529 -0.3871
16074TIP3    H269638   1.797   1.380  11.674 -1.1537  0.3753  0.9520
16075TIP3   OH269639   2.517   0.770   2.287 -0.2228 -0.4316 -0.3423
16075TIP3    H169640   2.499   0.744   2.377 -3.1283 -1.7639 -1.1683
16075TIP3    H269641   2.445   0.829   2.264  0.7575  0.3198 -1.6442
16076TIP3   OH269642   2.072   5.814  12.973 -0.1562 -0.3939  0.7575
16076TIP3    H169643   2.021   5.745  13.016 -1.4894  0.0377 -0.0646
16076TIP3    H269644   2.085   5.783  12.884  0.4551 -0.1949  0.7726
16077TIP3   OH269645   4.414   5.411  10.836 -0.4904 -0.0711  0.5533
16077TIP3    H169646   4.364   5.488  10.810 -0.3768  0.0981  0.8400
16077TIP3    H269647   4.505   5.441  10.836 -0.4293 -0.2557  0.4852
16078TIP3   OH269648   5.077   5.869  15.953 -0.8930 -0.6363  0.6689
16078TIP3    H169649   5.133   5.919  15.894  1.4896 -1.2604  2.2529
16078TIP3    H269650   5.010   5.830  15.897  0.8542 -0.6570 -1.5152
16079TIP3   OH269651   3.178   0.413   1.505  0.5488  0.2198 -0.6541
16079TIP3    H169652   3.103   0.383   1.453 -0.1874  0.1194  0.4377
16079TIP3    H269653   3.197   0.500   1.471 -0.0920  0.2653 -0.9091
16080TIP3   OH269654   6.174   3.113   3.419 -0.0493  0.1050 -0.0089
16080TIP3    H169655   6.155   3.058   3.495 -0.8376  0.3711 -0.0045
16080TIP3    H269656   6.088   3.140   3.386  0.2991  0.5667 -0.5736
16081TIP3   OH269657   0.917   5.697  11.219  0.0336  1.6653  0.3273
16081TIP3    H169658   0.998   5.646  11.223 -0.5054  0.8464  1.4158
16081TIP3    H269659   0.875   5.668  11.137  1.2178  2.7397 -0.6960
16082TIP3   OH269660   2.928   0.976  14.134  0.7290 -0.0195 -0.0724
16082TIP3    H169661   2.879   0.899  14.102  0.0493  0.7954 -1.0694
16082TIP3    H269662   3.007   0.939  14.173  0.1645 -1.2662 -0.0443
16083TIP3   OH269663   6.024   5.215  15.226 -0.2608  0.4990 -0.0003
16083TIP3    H169664   6.105   5.237  15.179  0.7944 -0.9336  1.0378
16083TIP3    H269665   5.999   5.296  15.270  1.6235  0.5731  1.0389
16084TIP3   OH269666   0.122   5.643  16.307 -0.1001 -0.2104  0.7928
16084TIP3    H169667   0.214   5.625  16.321 -0.1975 -0.1328  1.5759
16084TIP3    H269668   0.116   5.739  16.307 -0.4330 -0.1910  2.6547
16085TIP3   OH269669   2.619   5.467   3.961  0.6713  0.6454 -0.2546
16085TIP3    H169670   2.536   5.514   3.965  0.5854  0.4325  0.7263
16085TIP3    H269671   2.594   5.375   3.948  0.6347  0.3041  1.8640
16086TIP3   OH269672   3.589   3.917  12.256  0.0015 -0.0327 -0.2306
16086TIP3    H169673   3.593   4.008  12.228  1.4936  0.0454  0.1787
16086TIP3    H269674   3.496   3.901  12.273 -0.2214  1.5378  0.1232
16087TIP3   OH269675   4.308   2.714  11.982 -0.5136 -0.5316  0.6210
16087TIP3    H169676   4.226   2.696  11.937 -1.3362  0.6191  1.5877
16087TIP3    H269677   4.295   2.678  12.070  0.2690 -0.9179  0.5860
16088TIP3   OH269678   1.704   0.021   0.557  0.2958 -0.4786  0.2105
16088TIP3    H169679   1.776   0.084   0.554 -0.3128  0.3300  1.6860
16088TIP3    H269680   1.679   0.009   0.465  2.3230 -0.8145 -0.3318
16089TIP3   OH269681   0.058   1.588   1.793 -0.3057  0.0317  0.2680
16089TIP3    H169682   0.023   1.672   1.821  1.3706  2.0012 -2.9503
16089TIP3    H269683  -0.002   1.559   1.723  1.4740  0.9090 -1.7343
16090TIP3   OH269684   3.327   2.473  11.452  0.5006 -0.1438 -0.2100
16090TIP3    H169685   3.326   2.393  11.399 -0.3152 -0.4598  0.2700
16090TIP3    H269686   3.306   2.543  11.390 -2.8956 -0.7770  0.0698
16091TIP3   OH269687   5.113   0.887  11.901 -0.4505 -0.2311 -0.6964
16091TIP3    H169688   5.196   0.907  11.943 -0.7369 -0.7506  0.1391
16091TIP3    H269689   5.102   0.792  11.911 -1.2901 -0.1269 -0.5033
16092TIP3   OH269690   1.988   2.033  10.406  0.4561 -0.0779  0.3991
16092TIP3    H169691   1.951   2.121  10.405 -0.9392 -0.6506 -0.4099
16092TIP3    H269692   2.082   2.047  10.416  0.2594  1.4936  0.3087
16093TIP3   OH269693   0.057   3.209  14.446  0.5223 -0.4002 -0.4351
16093TIP3    H169694   0.053   3.302  14.467 -0.0939 -1.0681  3.1007
16093TIP3    H269695  -0.034   3.184  14.430  0.6209 -0.5137 -0.8381
16094TIP3   OH269696   2.971   5.526   1.109 -0.1081  0.0454  0.1893
16094TIP3    H169697   3.011   5.458   1.163 -1.8255 -1.3646 -0.2210
16094TIP3    H269698   3.012   5.607   1.138  4.5168 -1.3488 -1.4816
16095TIP3   OH269699   5.936   3.620  12.682 -0.1311  0.2862 -0.4732
16095TIP3    H169700   5.946   3.674  12.604  2.0153 -3.5976 -3.2385
16095TIP3    H269701   6.024   3.619  12.721 -0.8727  1.1002  1.3144
16096TIP3   OH269702   5.029   1.411  12.223  0.0616  0.3783  0.0691
16096TIP3    H169703   5.077   1.332  12.248  0.3898 -0.0450 -1.7156
16096TIP3    H269704   5.011   1.398  12.130 -1.7829  1.4408  0.2418
16097TIP3   OH269705   3.555   3.745   2.903 -0.1974  0.1687 -0.2983
16097TIP3    H169706   3.476   3.711   2.860 -0.9602  1.8288 -0.2593
16097TIP3    H269707   3.563   3.835   2.872  0.8483  0.5093  0.8788
16098TIP3   OH269708   6.018   3.843  11.977  0.5218 -0.0242 -0.1843
16098TIP3    H169709   5.980   3.843  12.065  0.9585  0.7465  0.0073
16098TIP3    H269710   6.111   3.827  11.991  0.5567 -0.1352 -0.5280
16099TIP3   OH269711   1.098   6.395   3.009 -0.1821 -0.5607 -0.2632
16099TIP3    H169712   1.050   6.468   2.970  0.0275  0.6868  1.6675
16099TIP3    H269713   1.136   6.431   3.089  0.1094 -2.7532  0.6620
16100TIP3   OH269714   1.159   4.819  12.831  0.7969 -0.1618  0.0253
16100TIP3    H169715   1.077   4.840  12.874  0.6671  1.0030 -0.7251
16100TIP3    H269716   1.217   4.791  12.901 -0.0310 -0.3466  0.6511
16101TIP3   OH269717   4.426   1.773   4.503  0.2291 -0.2435 -0.2240
16101TIP3    H169718   4.374   1.838   4.456 -0.6121 -0.3434  0.5332
16101TIP3    H269719   4.392   1.688   4.473 -1.4983 -0.3230  1.7423
16102TIP3   OH269720   3.599   0.360   5.336 -0.3755  0.2534 -0.6756
16102TIP3    H169721   3.534   0.291   5.351 -1.1071  0.7810 -1.3504
16102TIP3    H269722   3.576   0.428   5.400  0.2297 -0.0417 -0.1363
16103TIP3   OH269723   6.506   2.279   2.475  0.3423 -0.3835 -0.4864
16103TIP3    H169724   6.594   2.313   2.464  0.3615 -0.1096  0.4302
16103TIP3    H269725   6.453   2.328   2.413  0.2827  1.6837  1.0910
16104TIP3   OH269726   4.288   6.146  11.389  0.4661 -0.0118  0.0599
16104TIP3    H169727   4.333   6.118  11.469  3.4269  0.2377 -1.3867
16104TIP3    H269728   4.300   6.074  11.328 -1.1090  0.1105 -0.4495
16105TIP3   OH269729   4.055   6.331  13.387 -0.6583 -0.4078  0.0041
16105TIP3    H169730   4.081   6.240  13.376  1.0953 -0.1363  1.4215
16105TIP3    H269731   4.077   6.352  13.478 -0.8171  1.4781 -0.3451
16106TIP3   OH269732   2.278   3.758   2.380  0.6715  0.0994 -0.3852
16106TIP3    H169733   2.336   3.774   2.306  2.8670  0.8319  1.3480
16106TIP3    H269734   2.233   3.841   2.394  2.7580  1.0920  1.0286
16107TIP3   OH269735   4.761   6.273  13.212  0.3577 -0.0890  0.0867
16107TIP3    H169736   4.799   6.327  13.143  0.6997 -0.2449  0.1496
16107TIP3    H269737   4.709   6.207  13.165 -1.3148  1.1948  0.0512
16108TIP3   OH269738   2.096   1.875  12.555 -0.6844 -0.3480 -0.2506
16108TIP3    H169739   2.057   1.835  12.478 -1.5806  1.2901 -0.7070
16108TIP3    H269740   2.081   1.969  12.543  1.3828  0.1643  0.6977
16109TIP3   OH269741   1.338   5.451  11.390  0.2914  0.5080  0.3513
16109TIP3    H169742   1.429   5.462  11.415  0.1096  1.6484  0.5533
16109TIP3    H269743   1.341   5.428  11.297  0.7566  1.4111  0.1340
16110TIP3   OH269744   0.241   1.112  14.996 -0.0813 -0.2642 -0.4095
16110TIP3    H169745   0.325   1.138  15.033 -0.2921 -0.2026  0.0234
16110TIP3    H269746   0.198   1.064  15.066 -0.2121 -0.7122 -0.7916
16111TIP3   OH269747   4.467   5.885   0.098 -0.0469  0.2510 -0.1792
16111TIP3    H169748   4.556   5.888   0.064  0.6325  2.1582  1.5958
16111TIP3    H269749   4.416   5.847   0.026  1.6055  2.1599 -2.5363
16112TIP3   OH269750   3.535   0.188  14.014 -0.1272  0.0189  0.1086
16112TIP3    H169751   3.576   0.263  13.971  0.1397 -0.7213 -0.9686
16112TIP3    H269752   3.609   0.134  14.044 -0.2484 -1.0317 -1.3340
16113TIP3   OH269753   5.569   3.206  11.663 -0.0829 -0.1448  0.2380
16113TIP3    H169754   5.631   3.198  11.736  0.5385  1.3811 -0.0693
16113TIP3    H269755   5.624   3.229  11.588 -0.8032 -0.9187 -0.5525
16114TIP3   OH269756   2.171   5.379   4.575  0.0180 -0.0541  0.4803
16114TIP3    H169757   2.136   5.460   4.611 -0.7417  0.3598 -1.0805
16114TIP3    H269758   2.251   5.407   4.529  0.2335 -0.3364  0.6838
16115TIP3   OH269759   0.877   2.698   3.619  0.0835 -0.3917 -0.0841
16115TIP3    H169760   0.912   2.618   3.579  1.2722 -0.5627  1.2318
16115TIP3    H269761   0.908   2.768   3.562 -0.3600 -0.7923 -0.8456
16116TIP3   OH269762   5.220   4.897  13.206  0.2098  0.2960  0.0280
16116TIP3    H169763   5.276   4.968  13.173 -0.1088  0.2483 -0.6232
16116TIP3    H269764   5.144   4.897  13.148  0.0904 -0.4205  0.1721
16117TIP3   OH269765   5.220   1.389   3.182 -0.0422  0.0826 -0.5838
16117TIP3    H169766   5.171   1.306   3.174  0.2165  0.0097 -1.4300
16117TIP3    H269767   5.311   1.362   3.192  0.0983  0.2727 -1.3217
16118TIP3   OH269768   3.721   5.311   1.587  0.2138 -0.1806  0.3992
16118TIP3    H169769   3.663   5.376   1.547  0.4110 -1.1453 -1.5700
16118TIP3    H269770   3.802   5.358   1.604  0.3776  0.1242 -1.0666
16119TIP3   OH269771   1.811   6.066   3.085 -0.0715 -0.2634  0.7204
16119TIP3    H169772   1.789   6.116   3.164  1.5117  0.7717  0.5644
16119TIP3    H269773   1.884   6.009   3.112  0.8337  0.4743 -0.0823
16120TIP3   OH269774   2.973   5.995   1.727 -0.7331  0.2457 -0.1313
16120TIP3    H169775   2.987   6.077   1.681 -1.5864  0.7361  0.4636
16120TIP3    H269776   2.921   6.018   1.804  0.7464 -0.5250  1.1764
16121TIP3   OH269777   4.927   3.827   0.650 -0.1978  0.6817  0.0530
16121TIP3    H169778   4.948   3.739   0.621  1.5024  0.5615  1.4722
16121TIP3    H269779   4.836   3.840   0.624 -0.2562 -1.2012 -0.8346
16122TIP3   OH269780   5.959   0.225  11.247 -0.1100  0.1861  0.4715
16122TIP3    H169781   5.899   0.287  11.206  0.5126  0.0824 -0.6456
16122TIP3    H269782   5.913   0.195  11.325 -2.5865 -1.6190 -1.4918
16123TIP3   OH269783   4.146   6.497   1.461  0.2554  0.0024 -0.1464
16123TIP3    H169784   4.120   6.446   1.538  2.1264 -0.4498  0.2355
16123TIP3    H269785   4.234   6.528   1.482  1.1975 -0.8773 -2.4654
16124TIP3   OH269786   3.676   0.274  15.895 -0.2226  0.4276 -0.2816
16124TIP3    H169787   3.720   0.253  15.977  2.0792  0.3794 -1.4540
16124TIP3    H269788   3.677   0.370  15.891  1.0204  0.4031 -0.9116
16125TIP3   OH269789   2.710   3.230  14.875 -0.3164 -0.1131 -0.0658
16125TIP3    H169790   2.696   3.142  14.909 -1.8310 -0.8078 -2.2844
16125TIP3    H269791   2.627   3.275  14.889  0.0604  0.5963 -0.0507
16126TIP3   OH269792   4.110   3.127   2.078 -0.1871  0.3469  0.2352
16126TIP3    H169793   4.143   3.205   2.124 -1.3937  0.8769  0.2440
16126TIP3    H269794   4.023   3.112   2.116  0.2408 -1.3557  0.6246
16127TIP3   OH269795   5.195   6.241   4.096  0.3118  0.4954 -0.4074
16127TIP3    H169796   5.288   6.229   4.112  0.6969  3.4602  0.0048
16127TIP3    H269797   5.155   6.242   4.184  0.1505  0.9236 -0.4820
16128TIP3   OH269798   0.118   1.209  12.278  0.1066 -0.0283 -0.0237
16128TIP3    H169799   0.108   1.115  12.287  0.7768  0.0507  1.9692
16128TIP3    H269800   0.119   1.224  12.183 -0.1056 -1.9933 -0.3728
16129TIP3   OH269801   4.766   2.710  15.611  0.4248  0.6371 -0.7811
16129TIP3    H169802   4.835   2.757  15.659  0.8117 -0.5820 -0.1064
16129TIP3    H269803   4.723   2.656  15.677  0.0390 -0.0190 -1.5455
16130TIP3   OH269804   1.147   5.481  10.682 -0.1946  0.2927  0.1733
16130TIP3    H169805   1.224   5.450  10.730 -1.1434 -3.4707 -0.4792
16130TIP3    H269806   1.175   5.487  10.591 -0.3741  0.0724  0.1031
16131TIP3   OH269807   4.396   5.227   0.762 -0.5392 -0.6832  0.3078
16131TIP3    H169808   4.317   5.217   0.710  0.4789 -0.7999 -1.2833
16131TIP3    H269809   4.375   5.295   0.826 -1.8699 -0.6364 -0.1573
16132TIP3   OH269810   5.110   6.116  11.246  0.0259 -0.4726  0.8039
16132TIP3    H169811   5.081   6.158  11.165 -1.1404 -0.1865  1.3493
16132TIP3    H269812   5.048   6.146  11.313  1.8264  0.5188  2.1417
16133TIP3   OH269813   3.375   5.098   3.649  0.2144  0.0514 -0.4676
16133TIP3    H169814   3.443   5.125   3.710 -0.8261  0.2692  0.6433
16133TIP3    H269815   3.389   5.004   3.638 -0.1117 -0.1805  0.8457
16134TIP3   OH269816   4.274   5.097   6.065 -0.1702 -0.5246 -0.1830
16134TIP3    H169817   4.285   5.081   6.159 -0.1657  1.0722  0.1219
16134TIP3    H269818   4.359   5.132   6.037 -0.3493 -0.4663 -0.6555
16135TIP3   OH269819   0.821   0.385   4.792 -0.0489  0.4398  0.2346
16135TIP3    H169820   0.896   0.430   4.752  1.6686 -2.1338  0.3584
16135TIP3    H269821   0.791   0.323   4.725  0.6727 -1.4943  1.6160
16136TIP3   OH269822   1.336   1.919  16.431  0.4546  0.6201  0.2213
16136TIP3    H169823   1.305   2.004  16.400 -0.2765  0.3616  0.2186
16136TIP3    H269824   1.269   1.891  16.493 -0.1508 -0.6841 -0.9729
16137TIP3   OH269825   6.394   3.159  15.168 -0.4587 -0.4552 -0.0548
16137TIP3    H169826   6.321   3.221  15.165 -0.0324  0.1488  1.3524
16137TIP3    H269827   6.389   3.112  15.085 -0.6414  1.6402 -1.2931
16138TIP3   OH269828   2.202   2.063  16.558 -0.2298 -0.3012  0.3138
16138TIP3    H169829   2.166   2.065  16.469  1.3746  1.9725 -0.3774
16138TIP3    H269830   2.258   2.141  16.563 -0.1100 -0.4643  3.2754
16139TIP3   OH269831   3.055   2.594  10.826 -0.0511  0.2196  0.4682
16139TIP3    H169832   3.129   2.546  10.790  0.6880  1.3099  0.4859
16139TIP3    H269833   3.021   2.645  10.753 -0.4218  0.1733  0.6035
16140TIP3   OH269834   6.457   6.604   1.481  0.6814  0.4355  0.0031
16140TIP3    H169835   6.512   6.543   1.531  0.2907 -0.0884 -0.1975
16140TIP3    H269836   6.513   6.679   1.465  2.1017 -0.9462 -2.0719
16141TIP3   OH269837   0.668   0.120  14.807  0.1048  0.2756 -0.2303
16141TIP3    H169838   0.745   0.122  14.865 -1.1173 -1.5640  1.5841
16141TIP3    H269839   0.698   0.074  14.729  1.1820  0.7959 -0.1469
16142TIP3   OH269840   2.762   2.063   0.834 -0.2331  0.4627  0.2014
16142TIP3    H169841   2.775   2.124   0.907  1.5355 -1.3478  1.5177
16142TIP3    H269842   2.825   2.092   0.768  1.0190 -0.2363  1.0574
16143TIP3   OH269843   0.750   6.328   2.522  0.0978  0.5517 -0.1344
16143TIP3    H169844   0.766   6.302   2.612 -1.8748  1.4032  0.5144
16143TIP3    H269845   0.695   6.258   2.486  0.2955  0.5627 -0.4703
16144TIP3   OH269846   0.135   5.796   3.277  0.1714 -0.2700  0.1374
16144TIP3    H169847   0.227   5.815   3.293  0.4620 -0.7188 -0.9063
16144TIP3    H269848   0.136   5.724   3.214 -0.8922 -0.2832  0.1149
16145TIP3   OH269849   3.347   1.228   3.268 -0.6106 -0.2322 -0.2730
16145TIP3    H169850   3.284   1.162   3.298 -0.4287  0.1135  0.8912
16145TIP3    H269851   3.307   1.263   3.188 -2.7140  1.0798  1.2479
16146TIP3   OH269852   2.660   3.587   5.931 -0.1830 -0.3326 -0.2328
16146TIP3    H169853   2.626   3.510   5.886 -1.6242  0.1868 -0.1076
16146TIP3    H269854   2.737   3.556   5.978  0.7498 -1.1227 -2.1822
16147TIP3   OH269855   5.478   5.710   2.384 -0.5287 -0.0577  0.4176
16147TIP3    H169856   5.510   5.714   2.474  1.9054  0.9431 -0.4216
16147TIP3    H269857   5.547   5.664   2.337 -0.8317  1.1993 -1.3113
16148TIP3   OH269858   6.357   5.468  12.576 -0.0721  0.4802  0.2328
16148TIP3    H169859   6.307   5.450  12.496 -1.2236  0.2798  0.9738
16148TIP3    H269860   6.320   5.550  12.609  0.4755  0.6221  0.5123
16149TIP3   OH269861   2.010   0.068  11.881 -0.0379  0.1100 -0.0506
16149TIP3    H169862   1.988  -0.021  11.909 -1.5597 -0.5692 -2.9897
16149TIP3    H269863   1.974   0.124  11.949 -0.6407 -1.4786  0.9953
16150TIP3   OH269864   4.497   3.474  11.049  0.1751 -0.8679  0.7553
16150TIP3    H169865   4.583   3.465  11.089  0.2781 -2.6091  0.2381
16150TIP3    H269866   4.438   3.494  11.123  0.6967 -1.8578  1.4729
16151TIP3   OH269867   3.252   0.773   5.000  0.0064 -0.4376  0.0485
16151TIP3    H169868   3.190   0.760   4.929  0.7748 -0.3393 -0.6699
16151TIP3    H269869   3.209   0.835   5.058 -0.6156 -0.4680 -0.3676
16152TIP3   OH269870   4.203   0.636  14.671 -0.4737  0.2751 -0.0127
16152TIP3    H169871   4.246   0.649  14.586 -0.7880 -1.1497 -0.4066
16152TIP3    H269872   4.167   0.548  14.667 -2.4597  0.9890  0.7473
16153TIP3   OH269873   1.406   3.707   4.236  0.0406 -0.1562 -0.1191
16153TIP3    H169874   1.379   3.694   4.327  3.0057  1.7827  1.2055
16153TIP3    H269875   1.393   3.801   4.221 -0.1884 -0.4126 -1.6681
16154TIP3   OH269876   1.412   4.653   5.208  0.3921 -0.2870 -0.1372
16154TIP3    H169877   1.348   4.600   5.255 -0.2528  1.7380  1.4482
16154TIP3    H269878   1.397   4.633   5.116  0.7855 -3.4229  0.3782
16155TIP3   OH269879   3.251   1.150  16.011 -0.3546 -0.0323  0.1561
16155TIP3    H169880   3.192   1.173  16.083  0.4484  4.3674 -0.3138
16155TIP3    H269881   3.338   1.144  16.052  0.1197  2.5764 -0.3101
16156TIP3   OH269882   6.486   6.056   2.182  0.0224  0.0283  0.0220
16156TIP3    H169883   6.515   6.139   2.144  0.8634 -1.5384 -3.1331
16156TIP3    H269884   6.563   6.022   2.229  0.2447  0.2567 -0.1752
16157TIP3   OH269885   6.457   0.904  15.220  0.0124  0.3931 -0.4962
16157TIP3    H169886   6.387   0.960  15.255  0.5660  1.2759 -0.7608
16157TIP3    H269887   6.526   0.965  15.196  0.0989 -0.2846 -2.0810
16158TIP3   OH269888   3.737   6.420   2.084 -0.1442 -0.0085  0.0493
16158TIP3    H169889   3.646   6.411   2.113  0.0817  0.7593  1.0444
16158TIP3    H269890   3.748   6.514   2.066  0.1690 -0.2434 -1.0575
16159TIP3   OH269891   4.100   1.338   3.912  0.1498  0.0110 -0.8352
16159TIP3    H169892   4.177   1.282   3.916  1.3328  1.6066  0.0269
16159TIP3    H269893   4.079   1.357   4.003 -1.6100 -0.8164 -1.0358
16160TIP3   OH269894   5.396   2.408  16.704 -0.3507 -0.1780  0.2182
16160TIP3    H169895   5.307   2.392  16.673 -0.6846  0.0719  1.0285
16160TIP3    H269896   5.447   2.422  16.624 -0.7376 -1.7171 -0.3357
16161TIP3   OH269897   1.473   2.481   3.768  0.7025 -0.4227  0.1231
16161TIP3    H169898   1.422   2.562   3.770  1.3615 -0.0127  0.7404
16161TIP3    H269899   1.501   2.473   3.676  0.1095 -0.2883 -0.0719
16162TIP3   OH269900   2.983   2.857  12.102 -0.2139 -0.1899 -0.4950
16162TIP3    H169901   2.921   2.928  12.116 -0.6599 -0.3912 -1.3675
16162TIP3    H269902   3.042   2.891  12.035 -0.6176 -0.7486 -1.1432
16163TIP3   OH269903   1.238   6.295   5.391  0.4919  0.0969 -0.6677
16163TIP3    H169904   1.224   6.370   5.333 -0.8390  2.3165  2.2698
16163TIP3    H269905   1.325   6.308   5.427  0.0129  0.6392  0.3299
16164TIP3   OH269906   6.100   0.248   2.794  0.0733 -0.2178 -0.5638
16164TIP3    H169907   6.168   0.274   2.856 -1.3327  1.3822  0.4245
16164TIP3    H269908   6.098   0.152   2.800  0.6007 -0.1640  1.2268
16165TIP3   OH269909   4.477   1.463  14.925  0.7591  0.2607 -0.1110
16165TIP3    H169910   4.483   1.440  15.017 -0.7849  2.1335  0.4972
16165TIP3    H269911   4.539   1.403  14.882  0.9019 -1.2086  1.9931
16166TIP3   OH269912   2.649   2.915   2.951 -0.5029 -0.1377  0.1860
16166TIP3    H169913   2.661   2.942   3.042  0.5916 -2.3446  0.7606
16166TIP3    H269914   2.556   2.891   2.946 -0.4903 -0.3542  0.8408
16167TIP3   OH269915   1.452   0.598   3.146 -0.1067 -1.3874 -0.3326
16167TIP3    H169916   1.421   0.520   3.193 -1.3771 -0.8177 -0.1977
16167TIP3    H269917   1.377   0.626   3.093  0.7561 -1.0026 -1.3802
16168TIP3   OH269918   1.318   4.914  14.346 -0.2096 -0.4473 -0.2013
16168TIP3    H169919   1.396   4.969  14.354 -1.5209  1.3603  1.0698
16168TIP3    H269920   1.273   4.946  14.269 -0.4442 -0.4887 -0.0822
16169TIP3   OH269921   2.098   3.860   4.185 -0.3333  0.2783 -0.4837
16169TIP3    H169922   2.099   3.879   4.279 -2.2344 -0.4000 -0.2706
16169TIP3    H269923   2.056   3.774   4.179 -0.9981  0.6796 -2.0052
16170TIP3   OH269924   6.462   0.311  12.066  0.0800  0.4014 -0.1106
16170TIP3    H169925   6.524   0.375  12.031 -0.3545  1.1342  0.4523
16170TIP3    H269926   6.433   0.347  12.149 -0.3926 -0.3899  0.0829
16171TIP3   OH269927   0.427   0.563  11.562  0.4051 -0.0910 -0.0504
16171TIP3    H169928   0.365   0.626  11.526 -0.2164  0.2596  1.5546
16171TIP3    H269929   0.381   0.479  11.559  0.9052 -0.3440 -1.3718
16172TIP3   OH269930   4.556   6.122  16.872  0.1596  0.0798 -0.0463
16172TIP3    H169931   4.605   6.193  16.831  0.1600  0.3279  0.3740
16172TIP3    H269932   4.599   6.042  16.842 -0.1315  0.2362 -0.8936
16173TIP3   OH269933   6.028   6.124   2.258 -0.2386 -0.4011 -0.2130
16173TIP3    H169934   5.932   6.133   2.259 -0.2575 -0.4986  0.8922
16173TIP3    H269935   6.053   6.135   2.350  0.9569  1.1191 -0.6779
16174TIP3   OH269936   6.034   4.123   6.274 -0.1644  0.4432  0.2770
16174TIP3    H169937   6.015   4.081   6.190 -0.2177 -0.0455  0.5262
16174TIP3    H269938   5.959   4.099   6.329  1.4272 -2.1388  1.5168
16175TIP3   OH269939   1.493   1.735   5.806  0.2257 -0.4049 -0.2152
16175TIP3    H169940   1.401   1.715   5.787 -0.4647  0.4871  1.8202
16175TIP3    H269941   1.515   1.676   5.878  0.5565  0.8030  0.7080
16176TIP3   OH269942   2.384   5.871   5.800  0.1946  0.5530 -0.1130
16176TIP3    H169943   2.450   5.884   5.732 -0.3850 -1.2522 -1.0896
16176TIP3    H269944   2.307   5.919   5.769  0.2333  0.5000 -0.2931
16177TIP3   OH269945   1.858   0.272   4.356  0.2504 -0.8970  0.3991
16177TIP3    H169946   1.916   0.219   4.411 -1.4579 -1.1964  2.0501
16177TIP3    H269947   1.842   0.351   4.408  0.7961  0.1312 -0.9475
16178TIP3   OH269948   5.464   5.342   0.211 -0.1685  0.3203 -0.4664
16178TIP3    H169949   5.485   5.435   0.216 -2.0814  0.8327 -1.1341
16178TIP3    H269950   5.508   5.303   0.287  1.0872  1.6479 -0.4668
16179TIP3   OH269951   3.135   6.507   1.128 -0.4194 -0.1261  0.3327
16179TIP3    H169952   3.177   6.551   1.202  1.3624 -1.7468  0.3674
16179TIP3    H269953   3.200   6.510   1.058 -1.8122  0.7610 -0.9967
16180TIP3   OH269954   5.388   6.779  16.690  0.7063 -0.0784 -0.2540
16180TIP3    H169955   5.369   6.754  16.600  0.9403 -0.2787 -0.2505
16180TIP3    H269956   5.458   6.844  16.683  0.2905  0.3787 -0.2489
16181TIP3   OH269957   5.276   3.660   1.935  0.4859  0.2644  0.0505
16181TIP3    H169958   5.369   3.640   1.936  0.7919  1.5647 -0.0408
16181TIP3    H269959   5.262   3.714   2.013 -0.7477 -2.0586  1.5289
16182TIP3   OH269960   0.066   2.335  14.505  0.0464 -0.1225  0.4873
16182TIP3    H169961   0.064   2.313  14.598  0.3157  1.0174  0.7820
16182TIP3    H269962  -0.018   2.377  14.488 -0.0070 -0.3389  0.2092
16183TIP3   OH269963   5.256   5.887   0.167  0.3620 -0.0804  0.1113
16183TIP3    H169964   5.313   5.823   0.126  0.1742  0.4722 -1.0397
16183TIP3    H269965   5.217   5.935   0.095 -0.0800  0.8399  0.9349
16184TIP3   OH269966   0.817   2.937  14.356 -0.2227 -0.0331 -0.7587
16184TIP3    H169967   0.810   3.025  14.395 -0.5892  0.3381 -1.6271
16184TIP3    H269968   0.727   2.908  14.347 -0.0933 -1.8898  2.4656
16185TIP3   OH269969   5.265   0.336  15.138  0.2639 -0.3829  0.2773
16185TIP3    H169970   5.289   0.315  15.048 -0.0843 -0.2459  0.1487
16185TIP3    H269971   5.186   0.390  15.130  0.2418 -0.3507  0.6632
16186TIP3   OH269972   4.999   0.198  15.647  0.5732 -0.0275  0.6736
16186TIP3    H169973   4.931   0.173  15.709 -1.8218  2.0625 -0.8953
16186TIP3    H269974   5.058   0.255  15.696 -0.1107 -0.0460  1.5201
16187TIP3   OH269975   5.969   1.341  13.368  0.5914 -0.0565  0.3197
16187TIP3    H169976   5.997   1.415  13.314  2.0146  0.2206  1.3831
16187TIP3    H269977   6.019   1.351  13.449  1.6114 -2.7536  0.1171
16188TIP3   OH269978   3.002   2.956  12.409 -0.1574 -0.1816 -0.2023
16188TIP3    H169979   3.003   3.013  12.486 -0.2867 -0.3187 -0.0971
16188TIP3    H269980   3.084   2.975  12.364  1.3853 -2.1819  1.5346
16189TIP3   OH269981   5.746   2.190   5.358  0.0321 -0.1710 -0.8378
16189TIP3    H169982   5.770   2.097   5.367  0.2423 -0.0150  0.4712
16189TIP3    H269983   5.811   2.236   5.412  0.6356  0.8566 -2.3757
16190TIP3   OH269984   4.886   4.426   0.341  0.3917  0.2413  0.1742
16190TIP3    H169985   4.801   4.448   0.301 -0.3753 -1.7785  0.5937
16190TIP3    H269986   4.881   4.463   0.429 -0.8245 -1.4063  0.8321
16191TIP3   OH269987   0.933   0.299  12.764  0.3280 -0.2293 -0.6643
16191TIP3    H169988   0.885   0.266  12.687  1.3354  2.7163 -2.7199
16191TIP3    H269989   0.864   0.330  12.823 -0.4413 -1.8749 -0.6272
16192TIP3   OH269990   2.728   5.754  11.225  0.3381 -0.1272 -0.0930
16192TIP3    H169991   2.648   5.702  11.218  0.1434  0.3084 -1.8171
16192TIP3    H269992   2.715   5.809  11.302  0.1494 -1.9239  1.2048
16193TIP3   OH269993   3.080   2.626   5.313 -0.2621 -0.1691 -0.1717
16193TIP3    H169994   2.987   2.637   5.336  0.1929  0.3363  1.5870
16193TIP3    H269995   3.078   2.580   5.230 -2.1059  0.2389 -0.4104
16194TIP3   OH269996   1.685   0.286   5.836  0.4994  0.1093 -0.2911
16194TIP3    H169997   1.609   0.342   5.823  0.4963  0.6205  1.6316
16194TIP3    H269998   1.740   0.334   5.898 -0.0043 -2.3818  2.3361
16195TIP3   OH269999   2.526   3.838  15.534  0.1186 -0.3913  0.6470
16195TIP3    H170000   2.468   3.837  15.610  0.3061  0.3893  0.8157
16195TIP3    H270001   2.479   3.888  15.468  0.2224 -0.5187  0.4769
16196TIP3   OH270002   4.397   2.798   5.243 -0.4581  0.3511  0.2445
16196TIP3    H170003   4.471   2.749   5.278  0.8409  1.5165 -0.7558
16196TIP3    H270004   4.382   2.868   5.307 -2.3584 -1.2787  1.7088
16197TIP3   OH270005   3.567   0.896   5.255 -0.2443 -0.2302 -0.0035
16197TIP3    H170006   3.639   0.956   5.272 -0.0112 -0.0673 -1.4512
16197TIP3    H270007   3.529   0.927   5.173 -0.0161 -2.1348 -0.8752
16198TIP3   OH270008   0.785   6.526   0.857  0.2515 -0.1432 -0.1341
16198TIP3    H170009   0.796   6.458   0.924 -0.2568 -0.2351 -0.1375
16198TIP3    H270010   0.706   6.573   0.885  0.0354 -0.1839 -0.6711
16199TIP3   OH270011   3.811   4.808   4.747 -0.4717 -0.2865  0.0107
16199TIP3    H170012   3.786   4.876   4.810 -0.5594 -1.8301  1.7003
16199TIP3    H270013   3.734   4.797   4.692 -1.4735 -0.9152  1.4841
16200TIP3   OH270014   3.117   4.843  11.873  0.0715  1.0542 -0.6329
16200TIP3    H170015   3.029   4.841  11.837 -0.6001 -1.3619  0.8709
16200TIP3    H270016   3.134   4.752  11.899  1.8652  1.9435  1.6965
16201TIP3   OH270017   5.105   6.617  13.103 -0.5924  0.1013 -0.8751
16201TIP3    H170018   5.055   6.537  13.118  0.0179 -0.1554 -0.1608
16201TIP3    H270019   5.043   6.676  13.059 -1.6870 -0.0521  0.3822
16202TIP3   OH270020   1.499   5.821  16.419 -0.7526  0.4610 -0.0897
16202TIP3    H170021   1.427   5.863  16.466 -1.2266  0.1318 -0.5101
16202TIP3    H270022   1.568   5.888  16.417 -0.1428 -0.0060  2.3321
16203TIP3   OH270023   3.477   2.965  11.129 -0.5543 -0.1991 -0.2747
16203TIP3    H170024   3.521   2.886  11.097 -0.6411 -0.6924  0.7732
16203TIP3    H270025   3.383   2.946  11.117 -0.5686 -0.1942 -0.1742
16204TIP3   OH270026   0.651   6.202   4.027 -0.5124 -0.0091 -0.0729
16204TIP3    H170027   0.589   6.157   3.970 -0.0259  0.4100 -0.9416
16204TIP3    H270028   0.615   6.291   4.036  1.1157  1.0020 -2.5136
16205TIP3   OH270029   2.087   2.549   3.719 -0.1699 -0.8249 -0.7009
16205TIP3    H170030   2.030   2.523   3.792  0.5427  0.7453  0.4944
16205TIP3    H270031   2.034   2.612   3.670 -0.0522 -0.5864 -0.5262
16206TIP3   OH270032   0.750   1.019  10.897 -0.2826  0.0076  0.3030
16206TIP3    H170033   0.784   1.096  10.943  0.9540  0.9419 -2.0196
16206TIP3    H270034   0.827   0.980  10.855 -1.0996 -1.7522  0.3503
16207TIP3   OH270035   0.828   3.968   0.934  0.2427  0.7464  0.5097
16207TIP3    H170036   0.841   3.949   0.841 -1.1698 -0.0239  0.4291
16207TIP3    H270037   0.870   3.896   0.980 -1.6643 -0.5735  0.3248
16208TIP3   OH270038   4.556   4.184   2.304  0.2217  0.2076 -0.0685
16208TIP3    H170039   4.547   4.279   2.320 -1.8866  0.0205  0.1292
16208TIP3    H270040   4.472   4.158   2.269  0.7124 -1.6595  0.0664
16209TIP3   OH270041   4.130   6.194   4.805 -0.1999 -0.1255 -0.2615
16209TIP3    H170042   4.184   6.151   4.739 -0.9504 -0.0376 -0.9507
16209TIP3    H270043   4.082   6.124   4.849  0.0284 -0.1531 -0.0547
16210TIP3   OH270044   4.449   1.754   3.740  0.2604 -0.0864  0.4593
16210TIP3    H170045   4.393   1.698   3.687  0.9462 -0.0053 -0.3742
16210TIP3    H270046   4.416   1.744   3.830 -1.5081  0.4682 -0.0800
16211TIP3   OH270047   5.675   2.771   5.629  0.5319 -0.7133  0.0107
16211TIP3    H170048   5.652   2.863   5.620 -0.3434 -0.8206  0.9896
16211TIP3    H270049   5.767   2.771   5.653  0.9890 -0.1758 -1.5922
16212TIP3   OH270050   1.070   3.766   4.675 -0.0022  0.1648  0.5462
16212TIP3    H170051   1.101   3.783   4.586 -1.0380 -2.6487 -0.4732
16212TIP3    H270052   1.147   3.733   4.721  0.2388  0.3741  0.2982
16213TIP3   OH270053   3.555   3.778   2.611  0.1463  0.1321 -0.2280
16213TIP3    H170054   3.503   3.772   2.530  0.5890 -2.6112 -0.4192
16213TIP3    H270055   3.614   3.851   2.596 -2.2017  2.0547 -0.8353
16214TIP3   OH270056   4.332   6.148   0.102  0.1990 -0.4742  0.0999
16214TIP3    H170057   4.315   6.148   0.008  2.7832  0.2619 -0.4521
16214TIP3    H270058   4.348   6.056   0.123  1.4298 -0.4492 -0.6067
16215TIP3   OH270059   0.895   0.338  15.508 -0.5136  0.6475 -0.1573
16215TIP3    H170060   0.897   0.413  15.449 -1.1663  0.9665  0.2105
16215TIP3    H270061   0.907   0.376  15.595  0.8687  0.1397 -0.1154
16216TIP3   OH270062   5.568   3.663   3.629  0.3667 -0.4000  0.5153
16216TIP3    H170063   5.626   3.671   3.554 -0.3317 -2.5808 -0.3336
16216TIP3    H270064   5.598   3.585   3.675 -0.8568 -0.6371  0.9650
16217TIP3   OH270065   6.565   0.035   1.450 -0.6199 -0.4866 -0.0544
16217TIP3    H170066   6.488   0.066   1.403 -1.2122  0.7426  1.6342
16217TIP3    H270067   6.551   0.063   1.540  0.4364 -2.7785  0.9123
16218TIP3   OH270068   5.894   2.930  14.141  0.6232  0.2733  0.0717
16218TIP3    H170069   5.940   3.004  14.101 -2.0858  1.5045 -1.0356
16218TIP3    H270070   5.811   2.968  14.173  0.1390 -1.8646  1.5654
16219TIP3   OH270071   3.071   2.342  10.174 -0.3118 -0.0867 -0.5498
16219TIP3    H170072   3.015   2.378  10.105  0.3722 -0.8004 -1.5035
16219TIP3    H270073   3.081   2.249  10.152 -1.0036 -0.6072  1.1594
16220TIP3   OH270074   3.267   2.483  14.908  0.0888 -0.0635 -0.1988
16220TIP3    H170075   3.194   2.424  14.888 -1.0638  1.2583 -0.0353
16220TIP3    H270076   3.300   2.452  14.992 -0.5321 -0.4511 -0.0894
16221TIP3   OH270077   5.612   6.514  16.310 -0.7913  0.6698  0.2316
16221TIP3    H170078   5.676   6.586  16.307  0.0539 -0.0740 -1.8871
16221TIP3    H270079   5.666   6.435  16.316 -1.7133  0.1662  2.7799
16222TIP3   OH270080   4.778   6.231   4.108  0.4109  0.2019 -0.0226
16222TIP3    H170081   4.813   6.158   4.160  0.3561 -0.9837 -1.5998
16222TIP3    H270082   4.826   6.308   4.140  1.2375 -0.6796  0.9372
16223TIP3   OH270083   0.145   6.667  16.741  0.4568 -0.0120 -0.0676
16223TIP3    H170084   0.232   6.693  16.710  0.6976 -1.4731 -0.7191
16223TIP3    H270085   0.155   6.575  16.765 -0.6281  0.1248  0.9914
16224TIP3   OH270086   5.994   3.780  15.155  0.2904  0.1910 -0.6656
16224TIP3    H170087   5.995   3.803  15.063 -0.7246  1.5185 -0.3808
16224TIP3    H270088   6.034   3.855  15.199  0.2366 -0.1715  0.0178
16225TIP3   OH270089   5.133   4.652  12.376  0.6743 -0.4998  0.2693
16225TIP3    H170090   5.142   4.696  12.461  0.7715 -1.2839  0.6783
16225TIP3    H270091   5.210   4.596  12.369 -0.2364 -1.8253  0.5155
16226TIP3   OH270092   2.312   6.025   0.269  0.4378  0.1790 -1.0950
16226TIP3    H170093   2.396   5.986   0.296  0.6057  0.3355 -1.3845
16226TIP3    H270094   2.261   6.030   0.350  0.4230 -0.6089 -1.0436
16227TIP3   OH270095   3.866   4.943  12.396 -0.1689  0.3426 -0.3421
16227TIP3    H170096   3.897   4.905  12.314  0.2286 -1.1262  0.4465
16227TIP3    H270097   3.771   4.932  12.393 -0.2152  0.8553 -0.8618
16228TIP3   OH270098   2.034   3.626  16.866  0.2524  0.3592 -0.6874
16228TIP3    H170099   2.004   3.573  16.792 -2.1710 -0.1785  0.5458
16228TIP3    H270100   2.129   3.622  16.863  0.1702 -1.0848 -2.7405
16229TIP3   OH270101   0.905   6.689   2.421 -0.2373 -0.0621  0.1658
16229TIP3    H170102   0.931   6.606   2.381  0.3368  0.1254  0.1321
16229TIP3    H270103   0.874   6.742   2.347  0.7675  0.2627 -0.0409
16230TIP3   OH270104   2.639   2.069  11.279 -0.1380  0.9473 -0.4514
16230TIP3    H170105   2.690   2.086  11.358 -0.9440  2.2573 -0.1883
16230TIP3    H270106   2.698   2.017  11.224 -0.4464 -2.3455  1.9948
16231TIP3   OH270107   4.854   2.833  11.384 -0.0637  0.9935  0.2322
16231TIP3    H170108   4.912   2.885  11.439 -1.1521  1.6350  0.8149
16231TIP3    H270109   4.766   2.852  11.417 -0.4637 -2.1578  1.3246
16232TIP3   OH270110   5.223   2.365  14.230 -0.9615  0.1134 -0.2130
16232TIP3    H170111   5.145   2.365  14.174 -0.7120 -1.1208 -0.5854
16232TIP3    H270112   5.291   2.324  14.176 -0.4724 -0.2627  0.6698
16233TIP3   OH270113   2.158   3.845   2.904  0.0820 -0.5983  0.6212
16233TIP3    H170114   2.215   3.801   2.967 -1.5832 -1.8466  1.3174
16233TIP3    H270115   2.111   3.774   2.860  0.3332  0.3077 -1.2398
16234TIP3   OH270116   2.407   6.652   5.454  0.1615 -0.5525 -0.0267
16234TIP3    H170117   2.478   6.710   5.483  0.4750 -1.3255  0.8106
16234TIP3    H270118   2.336   6.669   5.515 -0.5615  0.5354 -1.1299
16235TIP3   OH270119   2.319   5.327  11.646 -0.2488 -0.5318  0.4463
16235TIP3    H170120   2.230   5.307  11.619 -0.9273  1.8454  0.7128
16235TIP3    H270121   2.355   5.378  11.574 -0.8372  2.7152  2.2535
16236TIP3   OH270122   0.910   0.511  16.820 -0.9008 -0.6730  0.7865
16236TIP3    H170123   0.945   0.588  16.775 -0.0503 -1.2851  0.3718
16236TIP3    H270124   0.934   0.524  16.912 -0.1835 -0.7505  0.6156
16237TIP3   OH270125   2.134   6.135  17.038  0.3704 -0.3220 -0.0228
16237TIP3    H170126   2.114   6.108  16.948  0.7719  2.7370 -1.1406
16237TIP3    H270127   2.223   6.170  17.033  0.2400  0.2890  1.4804
16238TIP3   OH270128   4.397   3.362   2.974 -0.7649  0.3384 -0.0803
16238TIP3    H170129   4.408   3.313   2.892 -2.9258 -0.1198 -0.1505
16238TIP3    H270130   4.465   3.327   3.032 -0.7830 -1.0996 -0.8867
16239TIP3   OH270131   0.463   1.954   3.691 -0.2694 -0.1824  0.5235
16239TIP3    H170132   0.368   1.952   3.709 -0.2541 -0.0869  0.6188
16239TIP3    H270133   0.491   1.863   3.699 -0.3556 -0.2125  0.4860
16240TIP3   OH270134   2.583   3.966   5.755 -0.0774  0.2563 -0.0053
16240TIP3    H170135   2.665   4.003   5.721 -0.8834  1.5623 -0.5547
16240TIP3    H270136   2.525   3.962   5.679 -0.2756 -1.4602  0.1968
16241TIP3   OH270137   1.733   0.444   4.538  0.3567 -0.9352 -0.1635
16241TIP3    H170138   1.657   0.502   4.533 -0.1088 -1.6292 -1.6173
16241TIP3    H270139   1.777   0.470   4.619 -0.8614  0.1673  0.1877
16242TIP3   OH270140   2.892   6.571  13.531 -0.1583  0.3906 -0.4517
16242TIP3    H170141   2.910   6.559  13.438 -1.4217 -1.1494 -0.5427
16242TIP3    H270142   2.800   6.544  13.541  0.5007 -1.3829  1.5416
16243TIP3   OH270143   4.271   0.725  13.560 -0.4302  0.0962  0.6439
16243TIP3    H170144   4.300   0.793  13.621  1.0713 -0.2396  0.3430
16243TIP3    H270145   4.289   0.761  13.473 -2.6285  0.6070  0.3348
16244TIP3   OH270146   0.336   0.430   3.488  0.5352 -0.0630  0.4940
16244TIP3    H170147   0.303   0.440   3.577  1.2015 -0.2883  0.7687
16244TIP3    H270148   0.270   0.474   3.433 -0.3874 -0.7947  0.9980
16245TIP3   OH270149   3.494   5.150   4.033 -0.1097 -0.1971 -0.5610
16245TIP3    H170150   3.587   5.148   4.052 -0.4024 -0.6138  0.9246
16245TIP3    H270151   3.451   5.145   4.118 -1.4878  2.6160 -0.9679
16246TIP3   OH270152   2.932   4.145  12.369  0.2389  0.4858  0.1970
16246TIP3    H170153   2.946   4.216  12.307 -1.9239 -1.1105 -2.3632
16246TIP3    H270154   2.862   4.177  12.426 -1.5667  0.1180 -1.6876
16247TIP3   OH270155   0.474   3.962   5.474  0.1989 -0.1010  0.9286
16247TIP3    H170156   0.514   3.992   5.392 -0.2906  0.3412  0.8435
16247TIP3    H270157   0.394   4.015   5.482 -2.2231 -3.1941 -0.6183
16248TIP3   OH270158   5.481   1.400  13.417  0.4446  0.2269 -0.2317
16248TIP3    H170159   5.418   1.431  13.482  0.0244  0.5332 -0.7838
16248TIP3    H270160   5.465   1.453  13.340  0.0170 -1.0630 -1.0557
16249TIP3   OH270161   2.408   0.674  11.769 -0.5359  0.2318  0.2410
16249TIP3    H170162   2.351   0.693  11.843 -1.4434 -0.0740 -0.3679
16249TIP3    H270163   2.496   0.673  11.806 -1.1577 -3.3177  2.0269
16250TIP3   OH270164   5.260   0.555   6.244 -0.0739 -0.4244 -0.1527
16250TIP3    H170165   5.311   0.477   6.219 -0.1857 -0.6666  0.3721
16250TIP3    H270166   5.220   0.532   6.328 -0.7659 -0.1046 -0.3829
16251TIP3   OH270167   1.643   5.950  11.086  0.2910 -0.2075 -0.8559
16251TIP3    H170168   1.713   5.891  11.113 -0.3861 -0.1905  1.1870
16251TIP3    H270169   1.675   6.037  11.109 -0.3071 -0.1859 -0.0607
16252TIP3   OH270170   6.304   0.453  15.325 -0.0494  0.4029 -0.2295
16252TIP3    H170171   6.314   0.544  15.352 -0.2608  0.2152  0.5215
16252TIP3    H270172   6.392   0.423  15.304  0.5352 -0.1034  2.5212
16253TIP3   OH270173   5.539   6.146   3.201 -0.1178  0.2690 -0.4538
16253TIP3    H170174   5.518   6.231   3.240 -1.1552 -0.7578  1.3897
16253TIP3    H270175   5.456   6.115   3.164  0.0198 -0.3419 -0.2658
16254TIP3   OH270176   3.035   0.481  13.091  0.2208  0.2103  0.2646
16254TIP3    H170177   3.071   0.526  13.168  1.6336 -0.5437  0.0885
16254TIP3    H270178   3.029   0.390  13.118  1.5672 -0.2186 -0.7544
16255TIP3   OH270179   2.173   0.494  13.337  0.1408  0.4429  0.0641
16255TIP3    H170180   2.146   0.586  13.332  1.3042  0.8597  1.0165
16255TIP3    H270181   2.108   0.448  13.285 -0.1835  1.8666 -0.8718
16256TIP3   OH270182   0.813   5.226   3.136  0.0007 -0.4365  0.4116
16256TIP3    H170183   0.767   5.271   3.065  0.6278 -1.0787 -0.4244
16256TIP3    H270184   0.863   5.157   3.092  1.6704  0.1526  1.2789
16257TIP3   OH270185   5.068   5.822   3.366  0.0449  0.3942  0.2273
16257TIP3    H170186   5.066   5.909   3.327 -1.9761 -0.5845 -2.1374
16257TIP3    H270187   5.138   5.776   3.319 -0.3690  0.1054 -0.1151
16258TIP3   OH270188   0.510   6.057  13.043 -0.4587 -0.3722 -0.5180
16258TIP3    H170189   0.427   6.009  13.044 -0.1294 -0.9380 -0.4547
16258TIP3    H270190   0.483   6.149  13.036 -1.1380 -0.4323  0.9467
16259TIP3   OH270191   5.398   0.939  11.852  0.2785 -0.7922  0.7817
16259TIP3    H170192   5.482   0.981  11.870  0.2123  0.8429 -2.0541
16259TIP3    H270193   5.416   0.845  11.858  1.8273 -0.4520  1.9698
16260TIP3   OH270194   1.046   6.101   1.197  0.0461  0.1716  0.4070
16260TIP3    H170195   1.056   6.052   1.116  1.4046  0.7983  0.1693
16260TIP3    H270196   0.953   6.124   1.200  0.1236  0.9375 -1.4598
16261TIP3   OH270197   1.701   4.793  15.678 -0.1650  0.3385 -0.9145
16261TIP3    H170198   1.767   4.729  15.703  0.4536  1.4385  0.3770
16261TIP3    H270199   1.717   4.809  15.585  0.0204 -0.9402 -1.1305
16262TIP3   OH270200   5.702   6.158  11.933  0.0617 -0.0383 -0.0659
16262TIP3    H170201   5.650   6.079  11.947 -1.2955  1.0295  1.2852
16262TIP3    H270202   5.673   6.191  11.847 -1.1191  0.2254  0.4068
16263TIP3   OH270203   0.753   1.731   0.829  0.2422  0.1624 -0.3357
16263TIP3    H170204   0.794   1.814   0.803 -0.5731  0.6671 -0.0350
16263TIP3    H270205   0.780   1.669   0.761 -0.2720  1.0035 -1.3423
16264TIP3   OH270206   2.648   4.900   0.813  0.0496 -0.5632  0.4866
16264TIP3    H170207   2.564   4.854   0.822  0.2078 -1.1044 -0.5976
16264TIP3    H270208   2.700   4.843   0.757  0.6393  0.4424 -0.0075
16265TIP3   OH270209   3.994   3.896   4.175 -0.5958 -0.1023  0.2062
16265TIP3    H170210   3.984   3.962   4.106 -0.3396  1.5542  1.6579
16265TIP3    H270211   3.978   3.813   4.132  1.1436  0.6998 -2.2209
16266TIP3   OH270212   0.715   4.380   6.577  0.7176 -0.3903 -0.3897
16266TIP3    H170213   0.657   4.303   6.575 -1.0509  0.7548  1.7414
16266TIP3    H270214   0.664   4.449   6.535  1.2053  0.2488  0.0464
16267TIP3   OH270215   4.535   1.285   4.235 -0.9813  0.2681 -0.1615
16267TIP3    H170216   4.503   1.205   4.277  0.1546  0.9509  2.2133
16267TIP3    H270217   4.611   1.257   4.184 -1.0739 -0.2972  0.0059
16268TIP3   OH270218   3.136   4.686  14.692 -0.0220  0.4042  0.1705
16268TIP3    H170219   3.228   4.676  14.715  0.0145  0.2987 -0.0161
16268TIP3    H270220   3.096   4.728  14.768  0.3270  1.1357 -0.0460
16269TIP3   OH270221   1.671   2.712  10.834 -0.3713  0.3841  0.2763
16269TIP3    H170222   1.586   2.687  10.798 -0.7097 -0.3001  1.4947
16269TIP3    H270223   1.681   2.658  10.913  1.6700 -0.3307 -0.3896
16270TIP3   OH270224   2.178   6.197   4.732  0.6541 -0.2807 -0.0878
16270TIP3    H170225   2.214   6.115   4.699 -0.6137 -1.3332  1.0170
16270TIP3    H270226   2.233   6.220   4.807 -1.9006 -2.9836  2.9201
16271TIP3   OH270227   5.741   1.170  12.440 -0.0233  0.2044  0.0679
16271TIP3    H170228   5.692   1.088  12.454  0.3562 -0.2050 -0.8949
16271TIP3    H270229   5.691   1.216  12.372  1.1648 -0.4546 -1.3044
16272TIP3   OH270230   1.627   6.784  13.565  0.1034  0.4558 -0.0098
16272TIP3    H170231   1.576   6.846  13.617 -0.2943  0.0317  0.1046
16272TIP3    H270232   1.608   6.699  13.603  0.3858  0.2227 -0.3828
16273TIP3   OH270233   4.843   5.309  15.888 -0.5402  0.5245 -0.3711
16273TIP3    H170234   4.805   5.382  15.838 -1.2437  0.8775  0.6499
16273TIP3    H270235   4.794   5.233  15.858 -3.1132  1.1424  1.8420
16274TIP3   OH270236   2.380   1.995   2.844  0.2856 -0.2034  0.0106
16274TIP3    H170237   2.334   2.063   2.794 -0.6244 -0.8672 -0.0810
16274TIP3    H270238   2.469   1.996   2.809  0.3643  1.1207  0.2041
16275TIP3   OH270239   4.618   1.031  12.479  0.2978 -0.2310  0.1085
16275TIP3    H170240   4.678   1.018  12.552  0.1196 -2.5100 -0.0773
16275TIP3    H270241   4.552   0.962  12.490 -1.1340  0.9227 -0.8422
16276TIP3   OH270242   3.837   6.523   4.700 -0.3599 -0.2384 -0.0748
16276TIP3    H170243   3.776   6.571   4.757 -0.4415 -3.1531  2.4958
16276TIP3    H270244   3.891   6.592   4.660 -2.0076  2.1184  1.4818
16277TIP3   OH270245   3.510   6.591  12.852 -0.2807  0.0711 -0.4728
16277TIP3    H170246   3.515   6.668  12.910  0.6841 -0.0152 -0.4151
16277TIP3    H270247   3.561   6.524  12.897 -2.0338 -0.9961  0.0228
16278TIP3   OH270248   0.961   2.446  14.629  0.0044  0.6025 -0.4111
16278TIP3    H170249   0.929   2.357  14.612 -1.1764  0.7700  0.7439
16278TIP3    H270250   1.056   2.437  14.631 -0.1188 -0.8195  0.5386
16279TIP3   OH270251   4.741   5.506   0.651 -0.1948 -0.4653 -0.0600
16279TIP3    H170252   4.646   5.506   0.643 -0.3845  2.5301  0.9982
16279TIP3    H270253   4.760   5.436   0.714 -1.6509 -1.1052 -0.2799
16280TIP3   OH270254   0.527   3.977  13.069 -0.6981  0.0736  0.0117
16280TIP3    H170255   0.569   4.061  13.052  1.6592 -1.2315 -1.2129
16280TIP3    H270256   0.592   3.927  13.119 -1.8522 -1.1767  0.3411
16281TIP3   OH270257   4.977   2.495   2.891  0.0775 -0.5442  0.9879
16281TIP3    H170258   5.023   2.526   2.969  1.1576 -1.2839  0.6682
16281TIP3    H270259   4.931   2.416   2.920 -0.9844  0.1702  1.2965
16282TIP3   OH270260   1.599   1.562   5.986  0.6600 -0.3015  0.1007
16282TIP3    H170261   1.677   1.537   6.037  0.4352  1.1141  1.2072
16282TIP3    H270262   1.549   1.481   5.979  0.3572 -0.4538  2.8272
16283TIP3   OH270263   3.298   6.531   1.579  0.3250  0.0749  0.6104
16283TIP3    H170264   3.307   6.441   1.546  0.2946 -0.5582  2.2247
16283TIP3    H270265   3.230   6.524   1.646  1.5747  0.9226  2.0235
16284TIP3   OH270266   5.666   0.700   4.691 -0.2200 -0.2849 -0.3729
16284TIP3    H170267   5.723   0.682   4.766 -0.7148 -0.4637 -0.0358
16284TIP3    H270268   5.700   0.645   4.621 -0.3261 -0.8207 -0.0087
16285TIP3   OH270269   2.584   4.117  10.884 -0.6680 -0.3841  0.4416
16285TIP3    H170270   2.672   4.151  10.898 -1.2409  0.4941  2.2000
16285TIP3    H270271   2.527   4.194  10.888 -1.4010 -0.5456 -3.0805
16286TIP3   OH270272   6.754   1.205  16.583  0.2890 -0.1498 -0.1843
16286TIP3    H170273   6.811   1.280  16.563 -0.3302  0.6394  0.9027
16286TIP3    H270274   6.810   1.145  16.632  0.1557  0.7311  1.0915
16287TIP3   OH270275   4.532   6.585  14.888  0.2378  0.6480 -0.3265
16287TIP3    H170276   4.549   6.571  14.981  0.8846  2.3396 -0.1582
16287TIP3    H270277   4.508   6.498  14.855  0.1426 -0.0159  1.3694
16288TIP3   OH270278   6.132   2.963   0.708  0.1114 -0.3607  0.0863
16288TIP3    H170279   6.061   3.027   0.697  1.2772  1.0420  0.3576
16288TIP3    H270280   6.156   2.968   0.800  0.3922 -1.0132  0.0568
16289TIP3   OH270281   1.383   0.333  11.446  0.0023  0.0430  0.3119
16289TIP3    H170282   1.317   0.402  11.446  0.4835  0.5938  2.6033
16289TIP3    H270283   1.463   0.375  11.415 -0.2421 -0.1063 -0.5354
16290TIP3   OH270284   2.969   4.319  12.163 -0.0762 -0.2863  0.1072
16290TIP3    H170285   3.039   4.333  12.099 -0.7455 -1.2482 -0.8778
16290TIP3    H270286   2.912   4.395  12.153  0.4648  0.1713  0.4415
16291TIP3   OH270287   1.850   6.752  15.301  0.2669 -0.3224 -0.7076
16291TIP3    H170288   1.793   6.793  15.366  0.6675 -0.8863  0.0141
16291TIP3    H270289   1.937   6.787  15.321  0.3605 -0.3501 -1.0677
16292TIP3   OH270290   5.215   2.875   0.257  0.0645 -0.7317 -0.3362
16292TIP3    H170291   5.181   2.854   0.344  1.4331  0.1883  0.4614
16292TIP3    H270292   5.259   2.795   0.228 -0.7447 -1.1741 -0.3896
16293TIP3   OH270293   4.584   2.032   5.943 -0.1233  0.3007 -0.1810
16293TIP3    H170294   4.648   1.993   6.004  0.1314  2.2538  0.8615
16293TIP3    H270295   4.608   2.124   5.939 -1.4312  0.6109 -1.6728
16294TIP3   OH270296   5.933   6.045   2.993 -0.1996  0.6155  0.3000
16294TIP3    H170297   5.909   6.087   3.075  0.8913  0.1119  0.9005
16294TIP3    H270298   5.979   6.113   2.944  0.2225  0.5721  0.6299
16295TIP3   OH270299   3.015   4.594   5.572  0.1787 -0.0697  0.0383
16295TIP3    H170300   2.959   4.518   5.590  1.0192 -0.7094 -0.0031
16295TIP3    H270301   2.955   4.669   5.576 -1.2705 -0.9371 -2.7490
16296TIP3   OH270302   0.167   4.173  16.431  0.4371  0.0727  0.2816
16296TIP3    H170303   0.174   4.108  16.362 -2.5773 -0.6140  0.5025
16296TIP3    H270304   0.109   4.240  16.395 -0.8700 -0.1001  1.9473
16297TIP3   OH270305   2.014   0.474   3.353 -0.1416  0.1995 -0.3030
16297TIP3    H170306   2.103   0.442   3.364 -0.7192 -1.0155  1.2845
16297TIP3    H270307   1.988   0.442   3.267  0.8096  0.1888 -0.5939
16298TIP3   OH270308   3.282   6.209  16.254 -0.9553 -0.4419 -0.0526
16298TIP3    H170309   3.338   6.234  16.181 -0.3693  0.1663  0.5911
16298TIP3    H270310   3.193   6.230  16.225 -0.6661  0.4419 -0.3396
16299TIP3   OH270311   6.065   5.251   2.388 -0.5149  0.0960 -0.1677
16299TIP3    H170312   6.138   5.204   2.427  0.5767  1.1503 -0.8675
16299TIP3    H270313   6.044   5.201   2.309  1.9821  1.7281 -2.0361
16300TIP3   OH270314   6.187   1.934  16.468  0.8751  0.0322 -0.3544
16300TIP3    H170315   6.239   1.853  16.470  0.4651 -0.2367  1.6241
16300TIP3    H270316   6.182   1.957  16.375 -0.6901 -3.3184 -1.2463
16301TIP3   OH270317   6.425   4.709   4.881  0.1754 -0.1556 -0.1393
16301TIP3    H170318   6.391   4.774   4.819 -0.8237 -1.9717 -1.6111
16301TIP3    H270319   6.445   4.632   4.827 -1.5507 -2.1454  1.8145
16302TIP3   OH270320   6.221   5.059  13.399  0.4343  0.8093  0.3660
16302TIP3    H170321   6.299   5.004  13.400  0.8924  1.2948 -2.0840
16302TIP3    H270322   6.155   5.009  13.448  2.2097  0.3550  2.4134
16303TIP3   OH270323   0.491   0.866  11.164  0.6812 -0.0823  0.2789
16303TIP3    H170324   0.465   0.941  11.218  0.3391  0.9756 -1.2947
16303TIP3    H270325   0.492   0.792  11.225  0.9031  1.1638  1.8494
16304TIP3   OH270326   6.639   1.382  12.057 -0.1056  0.4274  0.2345
16304TIP3    H170327   6.718   1.364  12.007  1.4672  1.3062  2.2751
16304TIP3    H270328   6.578   1.418  11.992  0.5104 -1.7503 -1.7062
16305TIP3   OH270329   4.570   0.755   2.490  0.5599 -0.3928  0.1446
16305TIP3    H170330   4.521   0.823   2.535  1.1689 -0.0937  0.3619
16305TIP3    H270331   4.532   0.673   2.521 -0.3465 -0.1574 -0.3081
16306TIP3   OH270332   1.551   0.207   5.198 -0.4724 -0.5694  0.1056
16306TIP3    H170333   1.603   0.202   5.118 -0.9218  3.2002 -0.6444
16306TIP3    H270334   1.615   0.227   5.267 -0.2988 -2.0853  0.4236
16307TIP3   OH270335   6.492   6.523   1.214  0.0723 -0.1252  0.4496
16307TIP3    H170336   6.467   6.534   1.306 -0.1371  1.2050  0.2399
16307TIP3    H270337   6.514   6.611   1.184 -1.4253 -0.2654 -1.2316
16308TIP3   OH270338   5.847   0.911   3.324 -0.2427 -0.7133  0.0719
16308TIP3    H170339   5.859   1.004   3.347 -0.9256 -0.6365  0.1240
16308TIP3    H270340   5.934   0.872   3.338  0.1165 -0.0315 -0.1994
16309TIP3   OH270341   1.703   4.396   1.420 -0.1495 -0.1698  0.3509
16309TIP3    H170342   1.621   4.401   1.370 -0.0159  1.3001  0.2363
16309TIP3    H270343   1.765   4.355   1.360 -0.4860 -0.1616 -0.0081
16310TIP3   OH270344   2.125   3.985  10.545 -0.4218  0.0973  0.3824
16310TIP3    H170345   2.092   3.926  10.477  0.1217  0.5301 -0.2612
16310TIP3    H270346   2.082   4.069  10.528 -1.0244 -0.0405  1.1632
16311TIP3   OH270347   5.934   0.447  16.032 -0.0157 -0.4801 -0.2604
16311TIP3    H170348   5.944   0.445  15.936  1.3981 -2.3424 -0.1210
16311TIP3    H270349   5.862   0.387  16.050 -0.7173  0.3632 -0.1560
16312TIP3   OH270350   5.041   3.054  15.158 -0.1271  0.4826 -0.3183
16312TIP3    H170351   4.971   3.034  15.096  1.2640 -0.5734 -1.6488
16312TIP3    H270352   5.048   3.149  15.156 -0.3820  0.4954 -1.5085
16313TIP3   OH270353   3.616   1.485  16.078 -0.9919 -0.8063  0.3652
16313TIP3    H170354   3.574   1.565  16.045  1.8578  0.4227 -0.5634
16313TIP3    H270355   3.570   1.414  16.035 -0.5466  0.5611 -2.6033
16314TIP3   OH270356   1.309   1.056  10.891 -0.5950 -0.6192 -0.1816
16314TIP3    H170357   1.259   1.127  10.850  1.4470  1.6675  1.0226
16314TIP3    H270358   1.247   1.014  10.951 -1.5398  1.0187  0.0415
16315TIP3   OH270359   2.000   1.837   5.066 -0.0340  0.2470  1.5171
16315TIP3    H170360   1.932   1.904   5.073 -1.0953 -0.7927  1.5473
16315TIP3    H270361   2.017   1.830   4.972 -1.9943 -1.3627  1.1912
16316TIP3   OH270362   2.683   0.709  13.064  0.2233  0.0546  0.1506
16316TIP3    H170363   2.634   0.641  13.018  1.0136  1.0423 -2.3701
16316TIP3    H270364   2.690   0.678  13.154 -1.8076 -1.8366 -0.2663
16317TIP3   OH270365   4.006   6.684  13.050  0.1099  0.6740 -0.2480
16317TIP3    H170366   4.015   6.620  12.980 -0.5886  1.9362 -1.5569
16317TIP3    H270367   4.096   6.712  13.069  0.5044 -1.2588  0.9548
16318TIP3   OH270368   6.378   6.256  11.965  0.4302 -0.0298  0.0989
16318TIP3    H170369   6.370   6.246  12.060  2.0682 -2.2817  0.0852
16318TIP3    H270370   6.424   6.340  11.954 -0.2662  0.5287  1.2526
16319TIP3   OH270371   2.187   2.525   2.869  0.8533 -0.5992  0.6059
16319TIP3    H170372   2.162   2.449   2.921 -0.1983  0.7420  2.1240
16319TIP3    H270373   2.116   2.588   2.881  1.3405  0.3819 -1.2007
16320TIP3   OH270374   1.978   1.442   4.409 -0.0288  0.6628 -0.1255
16320TIP3    H170375   1.970   1.380   4.337 -0.8597 -1.1785  1.4593
16320TIP3    H270376   1.888   1.467   4.430 -0.0828 -0.9453  1.9291
16321TIP3   OH270377   0.027   4.074   1.911 -0.3049  0.7104  0.4097
16321TIP3    H170378   0.073   4.044   1.832  1.4670  3.3354  0.3113
16321TIP3    H270379   0.080   4.041   1.983 -1.0938 -0.4347  0.4826
16322TIP3   OH270380   1.596   2.179  11.166  0.0174 -0.6837  0.2722
16322TIP3    H170381   1.529   2.112  11.153 -0.7511  0.1768 -0.3343
16322TIP3    H270382   1.653   2.143  11.234 -1.1942 -1.3393  0.9864
16323TIP3   OH270383   5.362   5.052   5.819 -0.1246  0.5419 -0.4674
16323TIP3    H170384   5.319   5.115   5.761 -0.0206  1.2514  0.2114
16323TIP3    H270385   5.397   5.105   5.890  0.7253 -0.1856 -0.3251
16324TIP3   OH270386   1.595   3.212   3.771 -0.0284 -0.6360  0.2683
16324TIP3    H170387   1.686   3.222   3.798 -0.9637  1.2062  3.2665
16324TIP3    H270388   1.566   3.301   3.752 -2.4746 -0.2169  4.6153
16325TIP3   OH270389   6.796   3.468  12.407  0.3600  0.0325  0.2753
16325TIP3    H170390   6.735   3.396  12.424  0.5692 -0.1914  0.0825
16325TIP3    H270391   6.739   3.542  12.386  0.1650 -0.4321 -0.9130
16326TIP3   OH270392   6.760   5.863  12.542 -0.0070  0.2391 -0.2493
16326TIP3    H170393   6.682   5.897  12.586 -1.0810 -0.3777 -1.5920
16326TIP3    H270394   6.726   5.795  12.483  1.4902  0.2967 -1.2264
16327TIP3   OH270395   2.296   3.962  11.928  0.0050 -0.8360  0.7398
16327TIP3    H170396   2.349   4.004  11.996 -1.9330  1.7332  0.8513
16327TIP3    H270397   2.250   3.892  11.974  0.2684 -0.4439  1.6250
16328TIP3   OH270398   6.071   6.482   1.627  0.2076 -0.3400 -0.0826
16328TIP3    H170399   6.002   6.540   1.660  0.6891  1.7583 -2.4957
16328TIP3    H270400   6.142   6.490   1.691  0.0428  1.3051 -0.0823
16329TIP3   OH270401   4.748   4.120   1.646  0.2851 -0.1263  0.0641
16329TIP3    H170402   4.713   4.126   1.557 -2.8221  1.3511  1.2308
16329TIP3    H270403   4.730   4.029   1.672  2.0258 -0.8424 -1.0171
16330TIP3   OH270404   2.254   1.141  12.271  0.4543  0.4957  0.3165
16330TIP3    H170405   2.262   1.160  12.365  0.0515  1.3284  0.1957
16330TIP3    H270406   2.160   1.148  12.254  0.6644  1.7220 -0.4144
16331TIP3   OH270407   5.499   5.115   3.900  0.6315 -0.0397 -0.0943
16331TIP3    H170408   5.525   5.200   3.864 -2.0117  0.6964 -0.4747
16331TIP3    H270409   5.485   5.132   3.993  0.0447 -0.0443 -0.1819
16332TIP3   OH270410   4.163   3.444  16.051  0.3376 -0.2664 -1.0786
16332TIP3    H170411   4.139   3.396  16.131 -0.6911 -0.9634 -1.7834
16332TIP3    H270412   4.251   3.414  16.031  1.1857  0.9828  0.5671
16333TIP3   OH270413   3.223   2.827   1.591 -0.0842 -0.2751 -0.0693
16333TIP3    H170414   3.263   2.849   1.675  1.7598 -1.3006 -0.6220
16333TIP3    H270415   3.241   2.902   1.535  0.5380 -0.4541 -0.1212
16334TIP3   OH270416   0.310   4.376   4.076  0.3634  0.5685 -0.0341
16334TIP3    H170417   0.243   4.438   4.050 -0.3598 -0.5617 -0.9422
16334TIP3    H270418   0.390   4.408   4.034 -0.2918  0.1297 -1.6993
16335TIP3   OH270419   3.685   1.151  16.484 -0.2434  0.1359  0.0267
16335TIP3    H170420   3.609   1.128  16.430 -0.0674  1.3293 -0.7599
16335TIP3    H270421   3.686   1.247  16.485  2.1630  0.1864 -1.2964
16336TIP3   OH270422   1.137   3.907  15.819 -0.2350  0.4479 -0.3100
16336TIP3    H170423   1.043   3.926  15.822 -0.3824  0.2341 -2.1919
16336TIP3    H270424   1.178   3.985  15.858 -1.1538  0.8788 -0.1663
16337TIP3   OH270425   3.002   4.669  12.638 -0.0200 -0.2881  0.0967
16337TIP3    H170426   2.959   4.601  12.691 -0.1981  0.1249  0.4961
16337TIP3    H270427   2.960   4.663  12.552  1.4221 -2.0738 -0.5401
16338TIP3   OH270428   6.187   3.161   3.047  0.5819  0.0011  0.4199
16338TIP3    H170429   6.250   3.089   3.037 -0.7517 -1.2688  0.8388
16338TIP3    H270430   6.236   3.228   3.094  1.6295 -0.9649  0.7720
16339TIP3   OH270431   1.949   3.141  12.791 -0.9114 -0.0097  0.1876
16339TIP3    H170432   1.918   3.226  12.823 -0.7995 -0.4534  1.4979
16339TIP3    H270433   2.038   3.158  12.762 -1.6618  0.8444 -1.8524
16340TIP3   OH270434   1.612   4.838  15.372  0.5193  0.6913  0.5389
16340TIP3    H170435   1.517   4.830  15.363  0.6054  0.9080 -0.6817
16340TIP3    H270436   1.646   4.754  15.340  0.7910  1.1039 -0.2916
16341TIP3   OH270437   4.965   3.562   0.222 -0.5405  0.1085  0.7224
16341TIP3    H170438   4.955   3.655   0.199  0.7033  0.0787 -0.0312
16341TIP3    H270439   4.983   3.563   0.316  3.2499  1.0177  0.1626
16342TIP3   OH270440   5.207   1.630  11.741  0.4776 -0.4470 -0.2099
16342TIP3    H170441   5.256   1.565  11.791  1.3646 -2.0726 -3.0075
16342TIP3    H270442   5.117   1.599  11.743 -0.1007  1.0146  2.5276
16343TIP3   OH270443   6.788   2.883  12.712 -0.2118 -0.2430  0.1763
16343TIP3    H170444   6.804   2.881  12.618  0.6935 -0.3811  0.3315
16343TIP3    H270445   6.777   2.792  12.737  3.2856 -0.6302  0.8081
16344TIP3   OH270446   1.701   3.780  11.602 -0.3839 -0.1574  0.2539
16344TIP3    H170447   1.740   3.726  11.670 -0.1417  0.1618  0.3654
16344TIP3    H270448   1.743   3.865  11.610 -1.5612  0.3933  0.7922
16345TIP3   OH270449   6.494   1.368   1.506  0.0952 -0.0655  0.3227
16345TIP3    H170450   6.414   1.343   1.462 -1.0939  0.0168  2.3049
16345TIP3    H270451   6.470   1.375   1.599  2.1668  0.8655  0.8693
16346TIP3   OH270452   6.017   0.008  12.842  0.1752  0.0902  0.4286
16346TIP3    H170453   5.933  -0.036  12.851  0.5604 -1.0068 -0.9249
16346TIP3    H270454   6.023   0.065  12.918 -0.9219 -1.2733  1.5839
16347TIP3   OH270455   2.260   6.196   5.315  0.2324  0.3699  0.1067
16347TIP3    H170456   2.225   6.108   5.304 -2.6974  1.4347  0.1414
16347TIP3    H270457   2.305   6.194   5.400 -0.0361 -0.9927  0.2281
16348TIP3   OH270458   5.341   1.926   0.892 -0.3205 -0.0987  0.0854
16348TIP3    H170459   5.262   1.966   0.856  1.1267  2.6988 -0.2765
16348TIP3    H270460   5.403   1.927   0.819  0.7470 -0.1384  0.9769
16349TIP3   OH270461   1.541   6.794   3.125  0.5270 -0.4034  0.0484
16349TIP3    H170462   1.576   6.804   3.037  0.6148  0.8996  0.2149
16349TIP3    H270463   1.473   6.860   3.132  0.8912 -0.1141  1.1341
16350TIP3   OH270464   5.225   3.824  11.273 -0.4593  0.0546  0.0115
16350TIP3    H170465   5.315   3.833  11.305 -0.7464  1.0066  0.5864
16350TIP3    H270466   5.234   3.817  11.178  0.1646  1.3204 -0.0441
16351TIP3   OH270467   2.043   2.589  14.895  0.3482 -0.7022 -0.7469
16351TIP3    H170468   2.058   2.681  14.918  0.9954 -1.0806  0.4101
16351TIP3    H270469   2.083   2.539  14.966  1.5388 -1.9292 -2.2134
16352TIP3   OH270470   5.591   1.342  11.461 -0.3275 -0.0417  0.2208
16352TIP3    H170471   5.626   1.382  11.541  0.0997 -0.0861  0.0582
16352TIP3    H270472   5.595   1.412  11.396  1.0475 -0.5211 -0.2425
16353TIP3   OH270473   4.528   3.789   5.449  0.2510  0.2552 -0.2359
16353TIP3    H170474   4.480   3.777   5.531  0.7424 -1.4207 -0.1562
16353TIP3    H270475   4.494   3.871   5.413 -0.3827  0.7196  1.3498
16354TIP3   OH270476   0.835   3.032   0.777  0.4512 -0.0817 -0.4772
16354TIP3    H170477   0.830   3.076   0.692 -0.9845  1.5879  0.4085
16354TIP3    H270478   0.748   3.043   0.815  1.4039  0.3063  1.7386
16355TIP3   OH270479   4.358   5.032   4.309  0.8664 -0.0841 -0.0271
16355TIP3    H170480   4.283   4.975   4.329  0.4635  0.5718  0.3612
16355TIP3    H270481   4.412   5.028   4.388  0.2826  0.9306  0.4358
16356TIP3   OH270482   2.787   0.815  12.628  0.2631 -0.0368 -0.2723
16356TIP3    H170483   2.708   0.868  12.638  0.1481 -0.3446  0.5140
16356TIP3    H270484   2.851   0.875  12.591 -0.0600  0.4817 -0.0032
16357TIP3   OH270485   0.146   1.505  15.529  0.3952  0.2713  0.2773
16357TIP3    H170486   0.082   1.461  15.583  0.9579 -0.3097  0.4811
16357TIP3    H270487   0.123   1.598  15.534 -1.1864 -0.0297 -0.6626
16358TIP3   OH270488   0.450   3.092   5.266  0.2211  0.7286 -0.2828
16358TIP3    H170489   0.530   3.040   5.265 -0.0024  0.3674  0.4830
16358TIP3    H270490   0.444   3.127   5.355  0.4043  2.1310 -0.7981
16359TIP3   OH270491   5.981   2.495  13.588 -0.1753  0.2956 -0.6352
16359TIP3    H170492   6.055   2.538  13.630 -0.2523  0.9609 -1.1578
16359TIP3    H270493   5.977   2.533  13.500  0.5882 -1.7562 -1.6280
16360TIP3   OH270494   5.626   4.241  14.685 -0.4504  0.0175 -0.5001
16360TIP3    H170495   5.700   4.213  14.738 -0.6482  2.7070  1.3886
16360TIP3    H270496   5.579   4.160  14.665  2.1339 -1.6088 -0.5502
16361TIP3   OH270497   5.724   3.500  12.096 -0.2710 -0.1431 -0.0200
16361TIP3    H170498   5.807   3.490  12.144 -0.3044 -0.1560  0.0355
16361TIP3    H270499   5.662   3.531  12.162 -0.9256 -2.4375  0.5380
16362TIP3   OH270500   4.856   6.076  16.330  0.0712  0.6875 -0.2882
16362TIP3    H170501   4.827   6.048  16.416 -2.0380  1.3009 -0.7516
16362TIP3    H270502   4.844   5.999  16.274  3.6456 -0.5096  0.2847
16363TIP3   OH270503   5.370   0.293   1.540 -0.0079 -0.1388 -0.1290
16363TIP3    H170504   5.350   0.293   1.634  1.8510 -0.0357  0.3132
16363TIP3    H270505   5.359   0.384   1.513  0.3916  0.0166  0.2233
16364TIP3   OH270506   6.214   4.447  11.531  0.0568  0.2191  0.3838
16364TIP3    H170507   6.240   4.539  11.532  1.0816 -0.0038 -1.3961
16364TIP3    H270508   6.273   4.405  11.593  0.8946  0.4717 -0.2195
16365TIP3   OH270509   0.476   2.805  16.264  0.0617 -0.4471 -0.3368
16365TIP3    H170510   0.384   2.778  16.256 -0.4452  1.5153 -1.8913
16365TIP3    H270511   0.522   2.724  16.287 -1.8018 -1.8585 -1.2294
16366TIP3   OH270512   2.935   4.575   1.107  0.1848 -0.2997 -0.2692
16366TIP3    H170513   2.978   4.657   1.083 -1.0120  0.6355  0.6307
16366TIP3    H270514   2.917   4.531   1.024  0.0107  0.8076 -0.8269
16367TIP3   OH270515   2.157   5.772  10.514 -0.0498  0.3555 -0.2897
16367TIP3    H170516   2.122   5.684  10.514 -2.6133  1.2989  0.0129
16367TIP3    H270517   2.124   5.811  10.433  0.8562  1.1154 -0.3100
16368TIP3   OH270518   1.307   0.075  13.628 -0.1967 -0.4519 -0.1303
16368TIP3    H170519   1.345   0.031  13.552 -1.0280 -0.9910 -0.2481
16368TIP3    H270520   1.219   0.039  13.635 -0.8194  1.0100 -0.0622
16369TIP3   OH270521   0.096   3.242   5.948  0.1142  0.0650 -0.3283
16369TIP3    H170522   0.188   3.230   5.970 -0.1989 -1.0331  0.4731
16369TIP3    H270523   0.096   3.259   5.854  0.9924 -2.2817 -0.8324
16370TIP3   OH270524   4.072   0.296  14.323 -0.2355  0.2149 -0.8256
16370TIP3    H170525   4.087   0.204  14.302 -2.7112 -0.4150 -0.1140
16370TIP3    H270526   4.122   0.311  14.403 -1.6312 -1.1780  0.3432
16371TIP3   OH270527   5.134   6.422   3.844  0.3227 -0.4690  0.5327
16371TIP3    H170528   5.140   6.364   3.768  1.4603  1.6678 -1.1451
16371TIP3    H270529   5.223   6.426   3.878  0.5201  1.0296 -0.0544
16372TIP3   OH270530   5.174   2.075  13.867 -0.1765 -0.2311 -0.2749
16372TIP3    H170531   5.268   2.068  13.854  0.2943  2.7347  0.6964
16372TIP3    H270532   5.160   2.049  13.958  0.2033  1.9816  0.4737
16373TIP3   OH270533   5.923   6.675   4.779  0.0474  0.1220 -0.5304
16373TIP3    H170534   6.003   6.717   4.748 -0.5702  1.0528 -0.8919
16373TIP3    H270535   5.872   6.746   4.818 -0.8477 -0.3668 -0.7938
16374TIP3   OH270536   0.653   2.162   0.523 -0.3959 -0.0185 -0.0298
16374TIP3    H170537   0.726   2.121   0.476 -1.4714 -1.3556 -0.6177
16374TIP3    H270538   0.577   2.108   0.500 -1.2384  0.1956  2.0551
16375TIP3   OH270539   5.746   1.034   0.655 -0.2218 -0.1971  0.4733
16375TIP3    H170540   5.651   1.032   0.644 -0.1572 -1.4993 -0.1134
16375TIP3    H270541   5.760   1.057   0.746 -1.1702 -1.5216  0.9891
16376TIP3   OH270542   2.883   3.179  15.526 -0.2451  0.1414 -0.1303
16376TIP3    H170543   2.806   3.178  15.582 -0.1686  1.1252  0.0087
16376TIP3    H270544   2.852   3.212  15.442 -0.1376 -0.2632 -0.3319
16377TIP3   OH270545   0.973   4.298  14.008  0.5448 -0.1866 -0.0846
16377TIP3    H170546   0.967   4.239  13.934 -1.9379  0.4644 -0.5033
16377TIP3    H270547   1.049   4.352  13.990  0.5875 -0.7242 -1.6436
16378TIP3   OH270548   0.263   3.055   0.975  0.1984  0.4092 -0.1411
16378TIP3    H170549   0.224   3.142   0.960 -3.1069 -0.9608 -0.5005
16378TIP3    H270550   0.348   3.059   0.931  0.3037  3.5114  0.1028
16379TIP3   OH270551   3.443   5.341  15.326 -0.5779  0.1450  0.4761
16379TIP3    H170552   3.386   5.279  15.280  1.4354 -0.3960 -1.4678
16379TIP3    H270553   3.432   5.423  15.278  1.7888 -0.5078 -1.3992
16380TIP3   OH270554   3.206   2.899   3.798 -0.4866 -0.4238  0.3524
16380TIP3    H170555   3.207   2.989   3.831  2.3328  0.0471 -0.8053
16380TIP3    H270556   3.182   2.908   3.706  1.1634 -0.6579 -0.1276
16381TIP3   OH270557   0.716   4.088   1.165 -0.2670  0.1125 -1.0421
16381TIP3    H170558   0.785   4.106   1.230 -0.7239 -2.5688  0.3383
16381TIP3    H270559   0.762   4.047   1.092 -0.3983 -3.2357  0.5666
16382TIP3   OH270560   1.028   4.591   6.525  0.4300  0.0240  0.0982
16382TIP3    H170561   1.014   4.686   6.533 -0.8583 -0.0696 -0.9220
16382TIP3    H270562   1.078   4.569   6.604 -0.3452  1.3387  1.0106
16383TIP3   OH270563   2.290   2.627   4.558  0.3047  0.0411  0.3618
16383TIP3    H170564   2.321   2.651   4.645 -2.8656  1.2339  1.3133
16383TIP3    H270565   2.291   2.531   4.557  1.6664  0.0222  1.1414
16384TIP3   OH270566   0.875   3.060   5.272 -0.1080  0.2807  0.0801
16384TIP3    H170567   0.963   3.042   5.238 -0.5102 -0.4686 -0.6059
16384TIP3    H270568   0.820   3.069   5.194 -0.3072  2.7115  0.4241
16385TIP3   OH270569   4.306   5.209  15.252  0.4226 -0.4426  0.0761
16385TIP3    H170570   4.395   5.193  15.282  0.6201 -1.0160 -0.7586
16385TIP3    H270571   4.258   5.234  15.330  1.4623  0.5586  0.4278
16386TIP3   OH270572   0.303   4.481   4.344  0.1259  0.1013 -0.1023
16386TIP3    H170573   0.287   4.395   4.306  0.4792 -0.1428  0.2889
16386TIP3    H270574   0.377   4.468   4.403 -0.1034  0.5769  0.3015
16387TIP3   OH270575   5.519   1.389   2.413 -0.2414  0.8531  0.8137
16387TIP3    H170576   5.589   1.372   2.476  0.1498 -0.0632  0.1664
16387TIP3    H270577   5.511   1.484   2.410 -0.9487  0.9177  2.9466
16388TIP3   OH270578   2.374   6.064  15.813 -0.0414 -0.0849  0.3956
16388TIP3    H170579   2.399   6.143  15.861  0.2179  0.0254  0.0827
16388TIP3    H270580   2.343   6.003  15.880 -0.5073  0.3785  0.6123
16389TIP3   OH270581   1.813   6.358  12.451 -0.7681  0.0298 -0.1180
16389TIP3    H170582   1.870   6.385  12.522  3.1233 -1.3390 -2.4322
16389TIP3    H270583   1.827   6.423  12.383 -1.9295 -0.4095 -0.8127
16390TIP3   OH270584   6.375   2.290   1.485 -0.3155 -0.2405 -0.1235
16390TIP3    H170585   6.432   2.290   1.562  1.0578 -0.1434 -1.1246
16390TIP3    H270586   6.323   2.370   1.494  1.2611  0.8436 -0.3056
16391TIP3   OH270587   4.757   3.357  16.892  0.6258 -0.3388 -0.0915
16391TIP3    H170588   4.780   3.441  16.933  0.5567 -0.4619  0.2011
16391TIP3    H270589   4.701   3.382  16.817  0.2714 -0.1432  0.2333
16392TIP3   OH270590   0.764   2.572  12.956 -0.8242 -0.1896  0.0104
16392TIP3    H170591   0.848   2.616  12.966 -0.6008 -0.9991  2.0805
16392TIP3    H270592   0.710   2.607  13.026 -2.5321  0.8847 -1.7510
16393TIP3   OH270593   1.063   6.464  11.426  0.1876 -0.0855  0.4079
16393TIP3    H170594   1.097   6.550  11.450 -0.9072  0.6062 -0.4045
16393TIP3    H270595   0.992   6.448  11.488  0.1986 -0.2672  0.3734
16394TIP3   OH270596   2.048   2.006   4.558 -0.0560 -0.0376 -0.0489
16394TIP3    H170597   2.075   1.918   4.531 -0.8476 -0.4451  0.4253
16394TIP3    H270598   2.128   2.058   4.555  0.1414 -0.3887 -1.8295
16395TIP3   OH270599   1.662   4.171  16.602  0.0056  0.3548  0.1530
16395TIP3    H170600   1.583   4.205  16.561 -0.5864 -1.3493 -0.1693
16395TIP3    H270601   1.680   4.234  16.673 -2.6262 -0.0989  1.3547
16396TIP3   OH270602   0.161   1.932  12.196  0.2611  0.4768 -0.3668
16396TIP3    H170603   0.106   1.921  12.274 -0.9796 -2.4769 -1.5013
16396TIP3    H270604   0.248   1.953  12.230  0.2603 -2.6662  1.9976
16397TIP3   OH270605   6.503   2.969   3.865  0.2242  0.2020 -0.2186
16397TIP3    H170606   6.515   3.062   3.843  1.2789 -0.1534 -1.2471
16397TIP3    H270607   6.562   2.955   3.939 -1.7433  0.8909  1.5753
16398TIP3   OH270608   6.726   1.388  11.634 -0.3732 -0.0728 -0.1783
16398TIP3    H170609   6.632   1.368  11.640 -0.4605  0.7645  2.1436
16398TIP3    H270610   6.769   1.305  11.656 -0.5532 -0.4292 -1.1376
16399TIP3   OH270611   5.695   1.691  16.168  0.4047 -0.0896  0.0738
16399TIP3    H170612   5.759   1.721  16.104 -0.7686  4.0609  0.5698
16399TIP3    H270613   5.744   1.687  16.250  0.8968 -0.9480 -0.2527
16400TIP3   OH270614   4.810   4.380   4.846  0.4093  0.1839 -0.1282
16400TIP3    H170615   4.862   4.323   4.789 -1.3391 -1.3341 -0.3223
16400TIP3    H270616   4.796   4.328   4.926  0.4823  1.1658  0.5395
16401TIP3   OH270617   3.626   6.305   4.183  0.2396 -0.6246  0.4293
16401TIP3    H170618   3.633   6.399   4.165  3.0039 -0.8841 -0.2590
16401TIP3    H270619   3.554   6.275   4.128  1.2360  0.6081 -1.6584
16402TIP3   OH270620   1.914   2.806   0.768  0.5174  0.2221  0.2727
16402TIP3    H170621   1.854   2.853   0.710 -0.3043 -1.2866 -0.1684
16402TIP3    H270622   2.000   2.819   0.729  0.1606  0.3948 -0.4881
16403TIP3   OH270623   4.687   5.446  13.701  0.6123 -0.1029 -0.0182
16403TIP3    H170624   4.736   5.365  13.705  1.1201  0.0521 -2.0789
16403TIP3    H270625   4.742   5.510  13.748  0.2078 -0.9027  1.6028
16404TIP3   OH270626   0.993   3.054   5.945  0.2580  0.3157  0.5469
16404TIP3    H170627   1.076   3.062   5.897  0.3066  1.0236  0.7503
16404TIP3    H270628   0.945   3.134   5.924 -1.0469 -0.7513 -0.8150
16405TIP3   OH270629   5.531   0.907   0.168 -0.0760  0.5508 -0.2628
16405TIP3    H170630   5.448   0.952   0.184 -0.7117 -0.6954  0.1214
16405TIP3    H270631   5.549   0.859   0.249 -0.6150 -1.6545 -1.3743
16406TIP3   OH270632   0.576   3.519  16.403 -0.1159  0.3563 -0.4330
16406TIP3    H170633   0.662   3.531  16.363  1.1164 -0.0937  1.9262
16406TIP3    H270634   0.590   3.532  16.496 -2.1877 -1.8251  0.2964
16407TIP3   OH270635   6.095   4.849   1.480  0.4174  0.0982 -0.2047
16407TIP3    H170636   6.052   4.869   1.396  1.7992  2.3654 -0.4384
16407TIP3    H270637   6.023   4.822   1.537 -1.3642  3.2590 -0.7189
16408TIP3   OH270638   4.310   1.004  16.657  0.0733 -0.3173  0.1119
16408TIP3    H170639   4.219   0.998  16.627  0.3780 -2.1792 -0.5661
16408TIP3    H270640   4.350   1.066  16.595  0.0795 -2.1999 -1.9001
16409TIP3   OH270641   4.988   0.404   0.607 -0.0433  0.1522  0.3337
16409TIP3    H170642   5.040   0.485   0.611  0.3522 -0.1500  2.9151
16409TIP3    H270643   5.033   0.344   0.667 -0.6781 -1.8047 -1.0702
16410TIP3   OH270644   6.316   4.077   3.074  0.4579 -0.3792  0.5168
16410TIP3    H170645   6.297   4.091   2.981  1.3682 -0.2810  0.3364
16410TIP3    H270646   6.316   4.164   3.113 -0.2514 -0.4485  0.6782
16411TIP3   OH270647   6.397   5.247  12.765 -0.8049  0.2451  0.5455
16411TIP3    H170648   6.371   5.267  12.675 -0.3394 -0.0504  0.3381
16411TIP3    H270649   6.322   5.202  12.803 -0.5310 -0.8166 -0.1188
16412TIP3   OH270650   6.636   6.805  10.560 -0.1633 -0.2535 -0.0844
16412TIP3    H170651   6.591   6.735  10.608 -0.7390 -1.7517 -2.6456
16412TIP3    H270652   6.699   6.760  10.504 -0.3011  1.3000 -1.5726
16413TIP3   OH270653   5.976   3.705   5.778  0.1882 -0.6840 -0.4196
16413TIP3    H170654   5.928   3.714   5.861  0.9371 -0.9975  0.0547
16413TIP3    H270655   6.048   3.767   5.785  1.4210 -2.1236  0.0243
16414TIP3   OH270656   6.465   5.607   4.624  0.4338  0.4346 -0.1093
16414TIP3    H170657   6.397   5.540   4.624  1.1156 -0.2846 -0.9663
16414TIP3    H270658   6.438   5.669   4.557 -0.5453  1.4184  1.1449
16415TIP3   OH270659   1.281   0.478  12.807 -0.5533  0.0598 -0.1866
16415TIP3    H170660   1.309   0.400  12.854  1.0593 -0.1588 -1.4191
16415TIP3    H270661   1.359   0.534  12.805 -0.7416  0.3083 -2.0606
16416TIP3   OH270662   4.394   6.709   1.749 -0.0494 -0.1542 -0.3551
16416TIP3    H170663   4.445   6.629   1.736  1.1780  0.7338 -1.3267
16416TIP3    H270664   4.361   6.729   1.662  0.4836  0.9044 -0.3303
16417TIP3   OH270665   1.073   2.729  14.958  0.0619 -0.3683 -0.4607
16417TIP3    H170666   1.041   2.782  15.031 -1.0180 -1.3824 -0.1554
16417TIP3    H270667   1.027   2.763  14.882 -0.1624 -0.4611 -0.3676
16418TIP3   OH270668   2.420   3.183   2.947  0.1575 -0.2444  0.0305
16418TIP3    H170669   2.502   3.198   2.994 -0.5540 -0.9394  1.5581
16418TIP3    H270670   2.391   3.097   2.976 -1.3710  0.1974 -0.1009
16419TIP3   OH270671   6.007   5.341   2.921  0.1719  0.7197  0.1316
16419TIP3    H170672   6.038   5.392   2.996  1.1929  0.1922  0.0862
16419TIP3    H270673   6.051   5.381   2.846  1.2221 -0.3735  0.1280
16420TIP3   OH270674   6.448   6.397  15.547  0.3942  0.1893  0.0830
16420TIP3    H170675   6.407   6.311  15.549 -0.3272  0.5362  1.1026
16420TIP3    H270676   6.398   6.449  15.609 -0.2092  1.8246 -1.6549
16421TIP3   OH270677   3.477   4.668   4.882  0.1920  0.3284 -0.5470
16421TIP3    H170678   3.459   4.681   4.976  1.7144  0.3557 -0.2332
16421TIP3    H270679   3.521   4.583   4.878  0.8300  0.6782 -1.1411
16422TIP3   OH270680   6.331   4.119   0.352  0.5411 -0.4997  0.1845
16422TIP3    H170681   6.298   4.085   0.269  2.4010  1.9718 -1.7090
16422TIP3    H270682   6.403   4.059   0.374  0.6309 -0.6437 -0.4717
16423TIP3   OH270683   4.209   6.730   4.818 -0.3034 -0.3472  0.2769
16423TIP3    H170684   4.127   6.773   4.793 -0.8676 -0.4389  1.8424
16423TIP3    H270685   4.264   6.736   4.740 -1.1152  1.3668 -0.2191
16424TIP3   OH270686   5.509   1.210   5.556 -0.0969 -0.3462 -0.5629
16424TIP3    H170687   5.561   1.203   5.477  1.6043 -1.9216  0.5991
16424TIP3    H270688   5.423   1.176   5.531  0.6658 -1.6578 -1.5351
16425TIP3   OH270689   0.418   3.771  11.819 -0.0800  0.0944 -0.1404
16425TIP3    H170690   0.332   3.760  11.860 -0.4570 -0.9836 -1.1826
16425TIP3    H270691   0.464   3.689  11.836  0.3219  0.2275 -0.5565
16426TIP3   OH270692   3.944   4.863   4.004  0.2462 -0.3914  0.1168
16426TIP3    H170693   3.992   4.780   4.004 -0.3032 -0.7468 -1.4659
16426TIP3    H270694   3.998   4.921   3.950 -0.4900 -0.4331 -0.6801
16427TIP3   OH270695   0.557   3.897  15.261 -0.0047 -0.4247 -0.2401
16427TIP3    H170696   0.497   3.939  15.323  0.1275  0.0395 -0.4187
16427TIP3    H270697   0.631   3.870  15.316 -0.2339 -0.7157 -0.0708
16428TIP3   OH270698   6.083   3.413   0.032  0.1337  0.1820 -0.4140
16428TIP3    H170699   6.120   3.496   0.003  1.3730 -0.5648 -1.0867
16428TIP3    H270700   5.991   3.432   0.049 -0.0002  1.3241 -2.1573
16429TIP3   OH270701   5.042   4.903   6.003  0.3827 -0.1877 -0.4218
16429TIP3    H170702   5.053   4.809   5.987  0.5215 -0.4513  1.0896
16429TIP3    H270703   4.973   4.930   5.943 -1.1586 -1.7105  0.6029
16430TIP3   OH270704   1.507   5.861   3.610  0.1368  0.3412  0.2370
16430TIP3    H170705   1.417   5.830   3.623  0.4915 -1.0870 -0.5245
16430TIP3    H270706   1.498   5.949   3.574 -1.1225 -1.2618 -3.9458
16431TIP3   OH270707   1.571   1.679   2.165  0.0023  0.2341 -0.1670
16431TIP3    H170708   1.596   1.745   2.229 -1.3336  0.9933 -0.4061
16431TIP3    H270709   1.508   1.722   2.108 -1.7344 -1.5391  0.3015
16432TIP3   OH270710   4.722   0.319  16.448 -0.0641  0.1850  0.2394
16432TIP3    H170711   4.658   0.371  16.399  1.3353  2.2517  0.4800
16432TIP3    H270712   4.807   0.349  16.417  0.8287 -1.1681  1.2412
16433TIP3   OH270713   4.465   1.894   6.248 -0.2877 -0.5223 -0.0234
16433TIP3    H170714   4.476   1.847   6.331  1.0281 -2.4189 -1.1907
16433TIP3    H270715   4.496   1.983   6.267  1.4305 -1.3125  1.1814
16434TIP3   OH270716   1.751   5.824  13.230 -0.7422  0.0943  0.4924
16434TIP3    H170717   1.692   5.756  13.264 -1.0639  0.0130 -0.2095
16434TIP3    H270718   1.742   5.817  13.135  1.1559 -0.5755  0.3244
16435TIP3   OH270719   6.727   4.017  13.578  0.0366  0.2160 -0.2367
16435TIP3    H170720   6.637   4.045  13.594 -0.0043 -0.9730  2.1377
16435TIP3    H270721   6.739   3.941  13.635  1.9993 -0.8053 -1.8684
16436TIP3   OH270722   3.768   0.755  11.658 -0.1735  0.2680  0.0740
16436TIP3    H170723   3.707   0.733  11.587  1.0547 -0.1958 -0.8700
16436TIP3    H270724   3.761   0.681  11.718  0.3986 -0.4416 -0.6965
16437TIP3   OH270725   6.239   3.695  14.629  1.0673  0.0857 -0.2831
16437TIP3    H170726   6.315   3.730  14.583  2.1643 -1.2598  0.4069
16437TIP3    H270727   6.255   3.715  14.721  0.5476 -0.1482 -0.1378
16438TIP3   OH270728   5.382   3.195  14.096  0.0019  0.7404 -0.5818
16438TIP3    H170729   5.364   3.226  14.007  0.4731 -0.0147 -0.9489
16438TIP3    H270730   5.377   3.100  14.089 -0.6369  0.7002  0.3552
16439TIP3   OH270731   3.380   3.244   3.134  0.5587 -0.6458  0.1622
16439TIP3    H170732   3.289   3.231   3.107  0.9212  1.2529 -2.2447
16439TIP3    H270733   3.381   3.217   3.226 -2.2688 -1.3591  0.0804
16440TIP3   OH270734   5.580   0.992  16.367 -0.2991 -0.7335 -0.0700
16440TIP3    H170735   5.545   0.971  16.453  2.1663 -0.3248  1.1370
16440TIP3    H270736   5.661   0.942  16.361  1.0203  1.3479 -0.9284
16441TIP3   OH270737   3.612   0.756  13.139  0.6737  0.5952  0.0298
16441TIP3    H170738   3.548   0.746  13.069 -0.4036 -2.6148  1.3028
16441TIP3    H270739   3.696   0.737  13.098  0.5132  1.9967 -1.0316
16442TIP3   OH270740   1.596   1.996   6.460 -0.0983 -0.3623 -0.4181
16442TIP3    H170741   1.517   2.040   6.492 -0.8722 -2.3737  0.6883
16442TIP3    H270742   1.562   1.920   6.412  1.1678 -0.7213 -0.7713
16443TIP3   OH270743   5.363   4.217   3.133 -0.1837 -0.1714  0.1340
16443TIP3    H170744   5.426   4.281   3.167 -0.0688 -0.7460  1.0289
16443TIP3    H270745   5.285   4.229   3.188  0.0886 -1.2758  0.7912
16444TIP3   OH270746   5.819   1.881  17.029 -0.7465 -0.5347  0.5867
16444TIP3    H170747   5.834   1.804  17.084 -0.0245 -1.3236 -0.6740
16444TIP3    H270748   5.883   1.945  17.060 -0.3645 -0.9575  0.6813
16445TIP3   OH270749   2.016   5.102   1.415  0.3239  0.1233  0.4373
16445TIP3    H170750   2.043   5.082   1.505 -1.3515 -2.6184  0.4111
16445TIP3    H270751   2.035   5.023   1.366 -2.9614 -0.1643 -0.6043
16446TIP3   OH270752   2.221   5.141  13.225  0.9191  0.2199  0.1839
16446TIP3    H170753   2.136   5.134  13.181 -0.0255  1.7172  1.6436
16446TIP3    H270754   2.199   5.143  13.318  2.3802  2.3556  0.5479
16447TIP3   OH270755   6.158   5.609  12.122  0.4070 -0.1078  0.7082
16447TIP3    H170756   6.229   5.592  12.060 -2.1489 -1.6808 -2.0793
16447TIP3    H270757   6.149   5.705  12.123  0.4887 -0.0183 -1.5570
16448TIP3   OH270758   4.444   0.257  13.704 -0.0061 -0.2884  0.4012
16448TIP3    H170759   4.382   0.197  13.664  1.9967 -1.1653 -1.6137
16448TIP3    H270760   4.442   0.335  13.649  0.8957 -0.4791  0.0660
16449TIP3   OH270761   6.039   0.162  14.074  0.3241  0.7185 -0.4495
16449TIP3    H170762   6.002   0.114  14.148  0.4771  1.6569  0.2593
16449TIP3    H270763   6.062   0.095  14.011  1.3815 -0.2179  0.8830
16450TIP3   OH270764   5.996   6.522  16.927  0.0114  0.3371 -0.5744
16450TIP3    H170765   5.967   6.440  16.887  0.3599  0.0687 -0.2740
16450TIP3    H270766   6.090   6.524  16.914  0.2404 -0.1080  0.8661
16451TIP3   OH270767   4.303   4.607  15.499  0.2182  0.6884  0.2327
16451TIP3    H170768   4.350   4.553  15.563  0.5806  0.3514 -0.3151
16451TIP3    H270769   4.218   4.625  15.541  0.2269 -0.0177  0.5656
16452TIP3   OH270770   2.954   2.810  17.006 -0.1001  0.4430 -0.3560
16452TIP3    H170771   2.998   2.771  17.081  0.6821 -1.4491 -1.7257
16452TIP3    H270772   2.866   2.772  17.007 -0.5445  1.4339  0.3052
16453TIP3   OH270773   0.377   6.584   3.586  0.2248  0.4537 -0.0501
16453TIP3    H170774   0.393   6.635   3.666 -0.0291  3.2221 -1.6285
16453TIP3    H270775   0.373   6.493   3.616 -1.2333  1.4485  3.3138
16454TIP3   OH270776   1.724   3.523   5.725  0.0746 -0.1403  0.2214
16454TIP3    H170777   1.649   3.487   5.680 -0.2882 -0.1096  0.7855
16454TIP3    H270778   1.731   3.613   5.693  0.4911 -0.4468 -0.5811
16455TIP3   OH270779   3.235   2.393  10.813 -0.2696  0.9092  0.6217
16455TIP3    H170780   3.264   2.389  10.722 -1.6198  0.0560  0.1997
16455TIP3    H270781   3.274   2.316  10.855 -0.4029  0.7945  0.5331
16456TIP3   OH270782   2.470   3.437   2.186 -0.5266 -0.1222  0.8241
16456TIP3    H170783   2.492   3.519   2.231  0.6228 -0.8808  1.6961
16456TIP3    H270784   2.523   3.438   2.106 -1.8422  0.7782 -0.0687
16457TIP3   OH270785   3.827   0.608  13.849  0.3208 -0.5163 -0.0921
16457TIP3    H170786   3.784   0.596  13.764  0.7177 -0.5951 -0.2848
16457TIP3    H270787   3.778   0.679  13.891  1.0450  0.5650 -1.0101
16458TIP3   OH270788   6.813   3.790   3.908  0.3093 -0.7560  0.1332
16458TIP3    H170789   6.754   3.845   3.960 -0.4174 -0.2167 -1.2170
16458TIP3    H270790   6.778   3.702   3.918  0.1400 -0.6508  0.5021
16459TIP3   OH270791   6.150   6.281  11.284  0.3033  0.1728  0.6586
16459TIP3    H170792   6.073   6.275  11.228  0.3036 -0.5471  0.7345
16459TIP3    H270793   6.167   6.375  11.291  1.9684  0.2618 -2.7875
16460TIP3   OH270794   6.582   5.377   6.563 -0.0690 -0.2157  0.3659
16460TIP3    H170795   6.616   5.467   6.570  0.5078 -0.4183  0.2506
16460TIP3    H270796   6.510   5.374   6.626 -1.4755  0.9339 -1.0899
16461TIP3   OH270797   0.199   2.569  15.518 -0.1084  0.3177  0.3568
16461TIP3    H170798   0.177   2.562  15.611  1.3009  1.1531  0.7885
16461TIP3    H270799   0.275   2.512  15.506  0.2537  0.8758 -0.0849
16462TIP3   OH270800   0.761   2.180  11.372 -0.6480  0.3531  0.0803
16462TIP3    H170801   0.848   2.145  11.393 -0.9710 -3.4639 -3.4587
16462TIP3    H270802   0.766   2.273  11.392  3.3687 -0.1540  2.4243
16463TIP3   OH270803   2.882   6.676   0.201  0.2375  0.2809  0.2821
16463TIP3    H170804   2.851   6.707   0.286 -2.5480  0.1353 -0.5920
16463TIP3    H270805   2.857   6.583   0.199 -0.1888  0.4030 -0.8537
16464TIP3   OH270806   3.319   1.931  11.355  0.1104 -0.2823  0.1924
16464TIP3    H170807   3.285   1.849  11.320  0.8252 -1.4681  2.0702
16464TIP3    H270808   3.333   1.913  11.448  1.3052  1.6434  0.4485
16465TIP3   OH270809   5.098   1.638  15.655  0.0178  0.3540  0.0277
16465TIP3    H170810   5.086   1.620  15.748  2.0192 -0.0437  0.2502
16465TIP3    H270811   5.089   1.552  15.612  1.5838  0.0929  0.1708
16466TIP3   OH270812   1.490   3.844   0.956 -0.6150 -0.3778 -0.3079
16466TIP3    H170813   1.501   3.938   0.970  0.0818 -0.5721  0.5687
16466TIP3    H270814   1.404   3.825   0.993 -1.7107  0.2479 -2.3842
16467TIP3   OH270815   3.842   2.027   2.972 -0.0357 -0.4886 -0.1111
16467TIP3    H170816   3.826   1.945   3.019 -1.8242  1.3141  2.7759
16467TIP3    H270817   3.917   2.066   3.017  1.2404 -0.7469 -1.9019
16468TIP3   OH270818   2.283   2.710   5.497  0.3110 -0.3710  0.1306
16468TIP3    H170819   2.274   2.663   5.580  1.1149  0.2395  0.5740
16468TIP3    H270820   2.256   2.646   5.430 -0.1149 -0.9407  0.8318
16469TIP3   OH270821   1.808   2.035  16.635 -0.1513 -0.4731  0.4664
16469TIP3    H170822   1.783   2.006  16.547  0.7223 -0.6340  0.2613
16469TIP3    H270823   1.781   2.127  16.638 -1.4235 -0.8266  0.5279
16470TIP3   OH270824   6.735   3.537   4.012 -0.1547 -0.4749 -0.5260
16470TIP3    H170825   6.815   3.486   4.002 -0.7098 -1.1640 -1.7227
16470TIP3    H270826   6.683   3.516   3.934 -0.7835  1.2536 -0.6201
16471TIP3   OH270827   5.954   2.556   3.371  0.1495 -0.1178  0.2192
16471TIP3    H170828   5.947   2.473   3.324  1.3607 -0.5006  0.6706
16471TIP3    H270829   6.006   2.612   3.313  1.0550 -0.3638  0.7654
16472TIP3   OH270830   6.613   5.683   4.205 -0.6174  0.2878 -0.7214
16472TIP3    H170831   6.551   5.646   4.142 -1.3154  0.5409 -0.2010
16472TIP3    H270832   6.564   5.685   4.288  0.3364 -0.1935 -0.1373
16473TIP3   OH270833   4.246   2.585   2.392  0.0814  0.7052 -0.7355
16473TIP3    H170834   4.199   2.535   2.458 -0.1458  0.6709 -0.9234
16473TIP3    H270835   4.338   2.561   2.405 -0.1365 -0.6798 -1.5795
16474TIP3   OH270836   1.958   1.340   0.979 -0.4213 -0.2246 -0.6310
16474TIP3    H170837   2.031   1.367   1.035 -1.4130 -0.6999  0.9773
16474TIP3    H270838   1.998   1.324   0.893  1.4202 -0.7997  0.2763
16475TIP3   OH270839   3.453   3.514   5.534  0.1455 -0.7429  0.5194
16475TIP3    H170840   3.477   3.532   5.443  0.2178 -1.8841  0.3040
16475TIP3    H270841   3.400   3.434   5.530  0.2523 -0.8740  1.4928
16476TIP3   OH270842   6.083   4.190  12.248 -0.3080  0.0896 -0.3918
16476TIP3    H170843   6.041   4.245  12.183  1.3756 -0.6261 -2.1872
16476TIP3    H270844   6.096   4.247  12.324 -2.3191  0.9455 -0.6267
16477TIP3   OH270845   0.970   0.891   3.501 -0.8208 -0.0977  0.8088
16477TIP3    H170846   0.986   0.962   3.439 -1.2901  0.2367  1.0722
16477TIP3    H270847   0.877   0.873   3.493 -0.6847 -0.7739  0.6512
16478TIP3   OH270848   3.158   3.667  16.069  0.8257  0.1225 -0.3300
16478TIP3    H170849   3.135   3.574  16.075  0.3323  0.2483 -0.2124
16478TIP3    H270850   3.179   3.692  16.158  0.0098  0.3570 -0.1936
16479TIP3   OH270851   4.922   5.971   2.891 -0.3735  0.1609 -0.4960
16479TIP3    H170852   4.957   6.044   2.840 -1.1470  1.1378  0.3236
16479TIP3    H270853   4.975   5.896   2.865  0.7159  1.0937 -1.0584
16480TIP3   OH270854   0.410   0.967   4.550  0.7505 -0.1543 -0.1489
16480TIP3    H170855   0.383   0.885   4.591  0.8960  0.0815  0.4227
16480TIP3    H270856   0.357   0.973   4.471  1.9180 -1.6552 -1.1171
16481TIP3   OH270857   5.126   5.808   5.042  0.2211  0.5440 -0.2394
16481TIP3    H170858   5.158   5.725   5.076  0.3947  0.5284 -0.4365
16481TIP3    H270859   5.142   5.803   4.947 -0.1639  0.6229 -0.3110
16482TIP3   OH270860   2.914   2.168   1.588  0.0313  0.5036 -0.1172
16482TIP3    H170861   2.868   2.252   1.587 -0.8599  0.0866  1.7972
16482TIP3    H270862   2.866   2.113   1.526 -0.4791  0.8670 -0.0495
16483TIP3   OH270863   3.046   5.069   0.710 -0.4636  0.2646  0.5113
16483TIP3    H170864   2.953   5.088   0.726 -0.1360  1.2783  1.3394
16483TIP3    H270865   3.063   5.102   0.622 -0.7631  0.5614  0.5635
16484TIP3   OH270866   2.784   4.184   1.903 -0.7211  0.4455  0.1047
16484TIP3    H170867   2.779   4.090   1.887  0.8515 -0.0971  2.3870
16484TIP3    H270868   2.830   4.219   1.826 -1.6874 -0.5339 -0.9676
16485TIP3   OH270869   0.987   1.626   4.821 -0.0681  0.3844  0.6699
16485TIP3    H170870   0.975   1.542   4.777  0.6900  0.7833 -0.3465
16485TIP3    H270871   0.913   1.680   4.792  0.0639  0.4326  0.4271
16486TIP3   OH270872   4.910   4.712  12.841  0.0954 -0.3587 -0.4068
16486TIP3    H170873   4.819   4.710  12.870  0.0469  0.4941 -0.4847
16486TIP3    H270874   4.958   4.663  12.908 -0.2323  0.2911  0.3216
16487TIP3   OH270875   2.831   3.641  14.108  0.1661  0.1215  0.1534
16487TIP3    H170876   2.766   3.702  14.143  0.9241  0.0010  1.8648
16487TIP3    H270877   2.909   3.695  14.095  0.3009 -0.1218 -0.0565
16488TIP3   OH270878   2.115   6.319   0.161  0.0570 -0.6006 -0.0675
16488TIP3    H170879   2.132   6.250   0.097 -0.0405 -0.6419 -0.0492
16488TIP3    H270880   2.031   6.356   0.135  0.9714  0.7974 -1.2300
16489TIP3   OH270881   5.285   3.313   4.408  0.3130 -0.0475 -0.3987
16489TIP3    H170882   5.240   3.334   4.326 -1.4106 -3.0305 -0.3283
16489TIP3    H270883   5.349   3.246   4.384  0.3021 -0.4162  0.5671
16490TIP3   OH270884   1.203   2.091   0.608 -0.1990 -0.1591 -0.1212
16490TIP3    H170885   1.161   2.106   0.692 -1.3494 -1.0573 -0.5128
16490TIP3    H270886   1.131   2.088   0.545  0.7102  1.8486 -1.3885
16491TIP3   OH270887   1.532   5.294  15.199  0.1634 -0.6485  0.1822
16491TIP3    H170888   1.484   5.249  15.269 -1.5915 -2.5666 -2.0742
16491TIP3    H270889   1.542   5.228  15.131  1.1730  1.3153 -1.6857
16492TIP3   OH270890   1.252   5.851  10.580 -0.6609  0.5181 -0.1575
16492TIP3    H170891   1.288   5.922  10.527 -0.4430  1.1995  0.8744
16492TIP3    H270892   1.324   5.824  10.636 -0.6028 -0.8540 -0.8432
16493TIP3   OH270893   3.591   2.352  12.703  0.7842 -0.3183 -0.4201
16493TIP3    H170894   3.528   2.320  12.639 -0.6847  0.8020  0.3989
16493TIP3    H270895   3.618   2.273  12.751  0.3646 -0.8816 -1.0883
16494TIP3   OH270896   0.729   6.515  13.325 -0.5488  0.4734  0.4542
16494TIP3    H170897   0.805   6.546  13.274  0.1821 -1.1758  0.4944
16494TIP3    H270898   0.661   6.501  13.259 -0.2262  0.1970  0.1744
16495TIP3   OH270899   2.115   4.573   2.062  0.0174  0.2709  0.3076
16495TIP3    H170900   2.201   4.530   2.065  1.4509  2.9299  3.3040
16495TIP3    H270901   2.124   4.639   1.994  0.6708  1.0319  1.1086
16496TIP3   OH270902   2.043   0.640   1.148 -0.2343 -0.2945  0.2799
16496TIP3    H170903   2.046   0.707   1.081  0.3364 -0.6639 -0.0683
16496TIP3    H270904   1.968   0.664   1.203 -0.5341  0.1572 -0.3241
16497TIP3   OH270905   5.817   3.685   1.398 -0.3146 -0.4072  0.1459
16497TIP3    H170906   5.751   3.623   1.370  0.8939 -1.4580 -0.4580
16497TIP3    H270907   5.796   3.766   1.351 -0.8301 -0.8952 -0.4688
16498TIP3   OH270908   1.298   3.980  16.570 -0.5743 -0.4237  0.1483
16498TIP3    H170909   1.211   3.947  16.547 -0.8126  0.7964 -0.8166
16498TIP3    H270910   1.290   4.075  16.561  0.9823 -0.3260 -0.4065
16499TIP3   OH270911   3.633   3.764  10.490  0.0776  0.3256  0.4014
16499TIP3    H170912   3.615   3.672  10.509  1.7824  0.1958  1.6507
16499TIP3    H270913   3.548   3.802  10.468 -0.5445 -1.7274 -1.0316
16500TIP3   OH270914   3.971   1.222   4.427  0.0989  0.3229 -0.1185
16500TIP3    H170915   3.908   1.233   4.498  2.5450  0.9421  2.1154
16500TIP3    H270916   4.006   1.310   4.412  0.9013 -0.1003 -0.8258
16501TIP3   OH270917   0.635   2.434  12.451  0.5856  0.1769 -0.2020
16501TIP3    H170918   0.636   2.512  12.396  0.1974  0.0948 -0.3259
16501TIP3    H270919   0.683   2.460  12.531  0.2895  0.5983 -0.1607
16502TIP3   OH270920   5.178   2.364  15.199  0.3883  0.8138 -0.1027
16502TIP3    H170921   5.174   2.272  15.226  0.8945  0.7739 -0.1573
16502TIP3    H270922   5.101   2.404  15.240 -1.1535 -0.1158 -1.9158
16503TIP3   OH270923   3.416   2.916  10.117 -0.0454  0.2309  0.3183
16503TIP3    H170924   3.487   2.889  10.175  1.4550 -0.9548 -1.9351
16503TIP3    H270925   3.454   2.986  10.064 -0.6934 -0.0745 -0.5750
16504TIP3   OH270926   2.344   1.003   1.955 -0.1635 -0.0758 -0.0104
16504TIP3    H170927   2.396   1.059   1.898 -0.2651 -0.1702 -0.1981
16504TIP3    H270928   2.408   0.962   2.013  0.2555 -1.7805 -1.5731
16505TIP3   OH270929   5.138   5.536   4.777  0.2004 -0.4701  0.4507
16505TIP3    H170930   5.143   5.557   4.684 -0.6830  2.3920  0.9451
16505TIP3    H270931   5.227   5.551   4.810  0.3378 -0.7574  0.2154
16506TIP3   OH270932   3.286   6.106  14.149  0.2823  0.2086 -0.3917
16506TIP3    H170933   3.361   6.131  14.203 -0.2416  3.4239 -0.9311
16506TIP3    H270934   3.259   6.188  14.106 -2.6656 -1.0895 -1.2915
16507TIP3   OH270935   3.811   3.820  12.599  0.0330  0.1214  0.2556
16507TIP3    H170936   3.845   3.910  12.604  0.8355 -0.1106 -0.8035
16507TIP3    H270937   3.721   3.827  12.631 -0.2523  1.4915 -0.7524
16508TIP3   OH270938   6.292   4.685  16.009  0.3171  0.5658 -0.1280
16508TIP3    H170939   6.315   4.706  15.918  0.2669  0.3567 -0.1906
16508TIP3    H270940   6.197   4.690  16.012  0.2411 -0.4562 -0.3536
16509TIP3   OH270941   2.261   1.568   5.987  0.6298  0.1758  0.4926
16509TIP3    H170942   2.333   1.571   6.049  2.6223  0.9637 -1.7099
16509TIP3    H270943   2.278   1.641   5.927 -0.5997 -1.1133 -1.5538
16510TIP3   OH270944   3.154   1.794  12.525 -0.8351 -0.3379 -0.3047
16510TIP3    H170945   3.214   1.869  12.531  0.1287 -1.1961  1.6282
16510TIP3    H270946   3.164   1.763  12.435 -0.5615  1.2641 -0.8735
16511TIP3   OH270947   2.420   6.299  12.106  0.2697  0.3045  0.0667
16511TIP3    H170948   2.445   6.214  12.142 -0.9339  0.0282  0.2815
16511TIP3    H270949   2.358   6.334  12.170  0.0515  0.9310 -0.4906
16512TIP3   OH270950   4.724   6.731   5.106  0.0609  0.9324  0.1317
16512TIP3    H170951   4.754   6.673   5.036 -0.5159  1.4302 -0.5468
16512TIP3    H270952   4.720   6.675   5.184 -0.6480  0.0096 -0.5387
16513TIP3   OH270953   0.804   4.634   3.712 -0.0608  0.3144  0.0715
16513TIP3    H170954   0.852   4.709   3.677 -1.9246  0.3563 -2.7043
16513TIP3    H270955   0.846   4.558   3.672  0.1385  0.0641  0.7497
16514TIP3   OH270956   3.975   4.177  11.340 -0.1900 -0.3582  0.4989
16514TIP3    H170957   3.982   4.101  11.398  1.3903 -0.7330 -0.1171
16514TIP3    H270958   3.963   4.251  11.399 -3.1264 -1.1590  1.0702
16515TIP3   OH270959   6.649   3.476  10.776  0.0456 -0.5366  0.2273
16515TIP3    H170960   6.580   3.410  10.768 -0.1334 -0.5546  1.5853
16515TIP3    H270961   6.717   3.447  10.716  0.5124 -2.7064  1.6500
16516TIP3   OH270962   4.563   5.640  14.233 -0.2590 -0.1085  0.2652
16516TIP3    H170963   4.657   5.626  14.220 -0.3099  0.0581 -0.2840
16516TIP3    H270964   4.526   5.552  14.232 -0.1324 -0.1631  0.2993
16517TIP3   OH270965   3.456   0.897  12.492 -0.1071  0.1155 -0.2528
16517TIP3    H170966   3.547   0.913  12.468 -1.0584  1.4732 -3.5022
16517TIP3    H270967   3.441   0.956  12.567  1.6835 -0.2691  0.4545
16518TIP3   OH270968   4.219   3.479  13.443 -0.2906 -0.0874 -0.5196
16518TIP3    H170969   4.307   3.501  13.412  0.2864 -1.0588  0.3963
16518TIP3    H270970   4.171   3.562  13.439  1.1310  0.8281  0.5408
16519TIP3   OH270971   5.977   0.873   5.535 -0.3679 -1.0645 -0.2307
16519TIP3    H170972   5.913   0.888   5.467  0.8460 -0.6282 -1.3139
16519TIP3    H270973   5.997   0.960   5.570 -0.6403 -1.2362  0.3702
16520TIP3   OH270974   2.870   4.043  10.756  0.0551 -0.4210 -0.1760
16520TIP3    H170975   2.904   4.122  10.714 -0.2537  0.2513  0.7858
16520TIP3    H270976   2.789   4.023  10.709  0.1209 -0.1432 -0.4101
16521TIP3   OH270977   2.620   4.484   3.876 -0.3049  0.3425  0.1800
16521TIP3    H170978   2.534   4.514   3.848  0.0018 -0.3868 -1.7100
16521TIP3    H270979   2.602   4.415   3.941 -1.1181  0.7133  0.3525
16522TIP3   OH270980   5.413   5.164   2.230 -0.0492  0.1540  0.4023
16522TIP3    H170981   5.394   5.124   2.315 -0.0181  0.2430  0.4514
16522TIP3    H270982   5.377   5.253   2.237  1.0946  0.6077  0.7870
16523TIP3   OH270983   0.100   4.731  13.570 -0.1209 -0.0202  0.5909
16523TIP3    H170984   0.068   4.657  13.621  0.1653 -0.8461 -0.3915
16523TIP3    H270985   0.160   4.692  13.506 -1.9573  0.6788 -1.7059
16524TIP3   OH270986   6.363   4.299   3.862  1.2564  0.3553  0.7865
16524TIP3    H170987   6.295   4.348   3.909  1.8526  0.8479  1.1638
16524TIP3    H270988   6.418   4.263   3.932  0.3355 -1.6262  0.5538
16525TIP3   OH270989   4.159   2.071  12.622 -0.5356  0.2979 -0.1740
16525TIP3    H170990   4.212   2.065  12.702  0.6666 -0.7699 -1.0086
16525TIP3    H270991   4.073   2.100  12.652 -0.2648 -0.6041  1.5760
16526TIP3   OH270992   3.284   6.127   4.722 -0.0532 -0.4976 -0.0400
16526TIP3    H170993   3.337   6.158   4.795  0.2608 -1.4212  0.1304
16526TIP3    H270994   3.245   6.207   4.685 -1.5935 -0.1443  2.1518
16527TIP3   OH270995   6.023   3.325  15.716  0.1972  0.0757  0.3945
16527TIP3    H170996   6.001   3.232  15.703  2.2920 -0.5243  0.8491
16527TIP3    H270997   5.999   3.367  15.633 -1.3472 -0.7143  0.3893
16528TIP3   OH270998   5.535   2.343  12.480  0.3184  0.2905  0.1621
16528TIP3    H170999   5.515   2.407  12.548 -0.0568 -1.0686  1.3723
16528TIP3    H271000   5.488   2.264  12.506  0.9664 -0.5693 -1.1533
16529TIP3   OH271001   0.769   4.137   2.300 -0.4798 -0.2416 -0.2625
16529TIP3    H171002   0.851   4.167   2.338 -0.3272 -0.4821 -0.3977
16529TIP3    H271003   0.709   4.210   2.311 -0.1989 -0.0011 -0.3149
16530TIP3   OH271004   6.777   3.472  11.692  0.1292 -0.4706 -0.0832
16530TIP3    H171005   6.778   3.449  11.785 -0.3794  0.5116  0.1700
16530TIP3    H271006   6.700   3.527  11.681  2.2115  2.6166 -0.2758
16531TIP3   OH271007   5.602   2.866   2.652  0.2899 -0.3743  0.2086
16531TIP3    H171008   5.648   2.933   2.702 -1.6066  0.8964  0.3652
16531TIP3    H271009   5.632   2.783   2.690  2.0675  0.3960  0.5639
16532TIP3   OH271010   2.468   6.062  14.605  0.2613  0.3550  0.1572
16532TIP3    H171011   2.555   6.066  14.645  0.9906  0.5662 -1.3859
16532TIP3    H271012   2.480   6.010  14.526 -1.3346 -0.8297  0.6387
16533TIP3   OH271013   2.632   1.081  13.916 -0.0966 -1.0250 -0.1367
16533TIP3    H171014   2.619   1.072  13.821 -0.0818  0.6209 -0.3161
16533TIP3    H271015   2.718   1.123  13.924  0.0248 -1.4003  0.6315
16534TIP3   OH271016   1.067   4.463  12.636 -0.2576 -0.4358 -0.1086
16534TIP3    H171017   1.039   4.483  12.725 -0.9793  0.1647 -0.4579
16534TIP3    H271018   1.155   4.428  12.646 -0.0978  0.1773  0.7907
16535TIP3   OH271019   5.213   3.631  14.435  0.0638  0.4848  0.3203
16535TIP3    H171020   5.273   3.697  14.468  1.0225  0.5710 -1.4545
16535TIP3    H271021   5.268   3.568  14.389 -1.1680  0.7589 -1.6794
16536TIP3   OH271022   4.383   0.127   4.188  0.2958  0.2199 -0.1152
16536TIP3    H171023   4.452   0.089   4.242  0.1599 -1.9157 -1.3180
16536TIP3    H271024   4.308   0.068   4.201 -0.4494  0.9939 -0.8465
16537TIP3   OH271025   1.858   1.318  15.651  0.2685 -0.0636 -0.3560
16537TIP3    H171026   1.916   1.306  15.575 -0.8387  1.0159 -1.4276
16537TIP3    H271027   1.793   1.249  15.643  0.6059 -0.4385  0.0792
16538TIP3   OH271028   1.048   5.745   1.384  0.1981  0.2275  0.0279
16538TIP3    H171029   1.141   5.733   1.368  0.6415 -1.7796  3.1552
16538TIP3    H271030   1.007   5.735   1.298  2.6654 -1.2795 -1.0922
16539TIP3   OH271031   6.014   5.580   1.633 -0.3152 -0.0617  0.0481
16539TIP3    H171032   6.096   5.629   1.643 -0.7983  0.6614  0.5599
16539TIP3    H271033   5.960   5.635   1.576 -0.8324 -0.0180  0.5664
16540TIP3   OH271034   3.669   4.396   3.686  0.1531 -0.1165 -0.1841
16540TIP3    H171035   3.697   4.481   3.721  0.8386 -1.0896  1.8177
16540TIP3    H271036   3.747   4.341   3.691 -1.0012 -1.7475  1.6840
16541TIP3   OH271037   0.787   5.445  13.975 -0.0941  0.0239  0.7093
16541TIP3    H171038   0.811   5.531  13.940 -0.0023 -0.3280 -0.1180
16541TIP3    H271039   0.870   5.397  13.977 -0.4823 -0.8392 -1.1326
16542TIP3   OH271040   3.729   3.689   5.008 -0.0678 -0.2378  0.1986
16542TIP3    H171041   3.712   3.630   5.082 -2.1289 -0.6148 -0.5144
16542TIP3    H271042   3.677   3.767   5.027  0.2360  0.1003 -0.3296
16543TIP3   OH271043   5.070   4.841   1.643  0.2254 -0.0336  0.7140
16543TIP3    H171044   5.044   4.929   1.618 -1.1750 -0.4402  0.6635
16543TIP3    H271045   5.093   4.798   1.561 -1.4706 -0.4434  0.4075
16544TIP3   OH271046   4.108   2.730  15.541 -0.2914  0.6422 -0.1843
16544TIP3    H171047   4.122   2.825  15.537  0.6860  0.5061 -0.3270
16544TIP3    H271048   4.114   2.701  15.450  0.4661  0.3112 -0.0339
16545TIP3   OH271049   0.670   6.427  11.928  0.2137  0.2915  0.2544
16545TIP3    H171050   0.634   6.341  11.947 -0.6786  0.6080  0.0688
16545TIP3    H271051   0.643   6.445  11.838 -0.6369  1.2472  0.6776
16546TIP3   OH271052   4.001   6.104  11.573 -0.5051 -0.0726  0.3658
16546TIP3    H171053   3.930   6.077  11.631  0.3409 -1.5134  0.7923
16546TIP3    H271054   4.080   6.065  11.611  0.2357 -0.1389 -1.1375
16547TIP3   OH271055   3.706   5.490  15.853  0.2038  0.2012  0.2500
16547TIP3    H171056   3.650   5.455  15.923  0.3873  0.0350  0.3145
16547TIP3    H271057   3.658   5.471  15.772  0.2093 -0.0241  0.2988
16548TIP3   OH271058   0.108   5.533  11.543 -0.4197 -0.5013 -0.2833
16548TIP3    H171059   0.107   5.437  11.545  1.2892 -0.5645 -0.8973
16548TIP3    H271060   0.031   5.556  11.491  0.5632 -1.6655 -2.3741
16549TIP3   OH271061   4.849   4.633   6.361 -0.3205  0.0325  0.3623
16549TIP3    H171062   4.910   4.559   6.356 -0.2884  0.1182 -0.7047
16549TIP3    H271063   4.900   4.703   6.402 -0.2153 -0.3951  0.9709
16550TIP3   OH271064   6.424   4.593  16.807  0.1467 -0.3226  0.9448
16550TIP3    H171065   6.471   4.604  16.890  1.3076 -0.9291  0.3946
16550TIP3    H271066   6.403   4.682  16.779  0.2228 -0.0915  1.6206
16551TIP3   OH271067   6.033   1.162   5.546 -0.2883  0.4371 -0.1622
16551TIP3    H171068   6.074   1.182   5.631  1.2430 -0.1558 -0.7159
16551TIP3    H271069   6.083   1.215   5.483 -1.5119  0.9940 -0.6998
16552TIP3   OH271070   1.596   5.103   2.488  0.2792  0.2253 -0.2035
16552TIP3    H171071   1.654   5.027   2.483  1.8948  1.2175  1.9697
16552TIP3    H271072   1.540   5.086   2.564 -2.4682 -0.7174 -2.2476
16553TIP3   OH271073   0.358   2.573  12.183  0.1884  0.0525 -0.4630
16553TIP3    H171074   0.304   2.652  12.178  0.1093  0.0794  0.5540
16553TIP3    H271075   0.448   2.606  12.184  0.1564  0.1342 -0.0658
16554TIP3   OH271076   6.291   0.460  16.663 -0.3673 -1.3306 -0.2151
16554TIP3    H171077   6.244   0.520  16.605  1.2322  0.0388 -0.1468
16554TIP3    H271078   6.374   0.444  16.618  0.4836 -1.0566  1.2005
16555TIP3   OH271079   0.239   3.153  12.629  0.3197  0.6394 -0.2613
16555TIP3    H171080   0.238   3.087  12.559 -0.6463 -0.9424  1.1674
16555TIP3    H271081   0.256   3.235  12.584  0.1436 -0.3764 -2.3044
16556TIP3   OH271082   1.688   3.760  10.374  0.1605 -0.2218  0.0632
16556TIP3    H171083   1.632   3.683  10.384 -1.6589  1.1424  0.9423
16556TIP3    H271084   1.634   3.833  10.404  0.4873  1.9607 -3.8758
16557TIP3   OH271085   0.315   2.341  16.733 -0.0522  0.7498 -0.0630
16557TIP3    H171086   0.276   2.324  16.647 -1.3666  0.0041  0.6468
16557TIP3    H271087   0.261   2.290  16.794  2.1541 -0.5103  0.9818
16558TIP3   OH271088   2.686   3.407  11.380  0.0873  0.9897  0.2034
16558TIP3    H171089   2.678   3.416  11.285 -1.1591  1.0725  0.3038
16558TIP3    H271090   2.772   3.444  11.401  1.2711 -0.8255 -1.1188
16559TIP3   OH271091   3.813   6.711   3.706 -0.2983 -0.0802  0.8032
16559TIP3    H171092   3.745   6.766   3.666 -0.2799 -1.3786 -1.1614
16559TIP3    H271093   3.783   6.697   3.796 -1.1463  1.7168  0.8359
16560TIP3   OH271094   2.801   5.191  14.681 -0.0044 -0.1961  0.0020
16560TIP3    H171095   2.790   5.142  14.600 -0.4134  0.1115 -0.1322
16560TIP3    H271096   2.760   5.276  14.664 -1.8157 -0.7914  1.1632
16561TIP3   OH271097   3.196   1.681  13.851  0.8335 -0.5849  0.1825
16561TIP3    H171098   3.167   1.593  13.826  1.3375 -0.6376 -0.2173
16561TIP3    H271099   3.117   1.723  13.885  0.7432 -1.4478  1.1018
16562TIP3   OH271100   6.750   6.084  13.325  0.7206 -0.1804  0.3633
16562TIP3    H171101   6.786   6.165  13.288  0.4294  0.3475  1.2062
16562TIP3    H271102   6.678   6.113  13.382 -0.5332 -1.1639 -0.6684
16563TIP3   OH271103   2.503   6.054   5.227 -0.3481 -0.2357 -0.0166
16563TIP3    H171104   2.430   6.077   5.285 -0.0796 -2.3413  1.2674
16563TIP3    H271105   2.462   6.000   5.159 -0.4117  0.9220 -0.9060
16564TIP3   OH271106   3.368   1.536   1.371 -0.0940 -0.3054 -0.2501
16564TIP3    H171107   3.284   1.552   1.328  0.4092  3.0335 -0.3036
16564TIP3    H271108   3.431   1.526   1.299 -0.0077  0.3900 -0.2848
16565TIP3   OH271109   3.850   4.920   1.496 -0.8953 -0.0330  0.4419
16565TIP3    H171110   3.909   4.853   1.531  1.4360  1.2915 -0.6665
16565TIP3    H271111   3.880   4.932   1.406 -2.9240  0.7215 -0.1694
16566TIP3   OH271112   4.141   4.511   5.834 -0.1781 -0.4980 -0.2841
16566TIP3    H171113   4.061   4.466   5.862 -0.4561  0.3760  0.3465
16566TIP3    H271114   4.204   4.494   5.905  0.4028 -1.6565 -1.0331
16567TIP3   OH271115   4.142   0.092   3.593  0.2537 -0.1532 -1.3491
16567TIP3    H171116   4.121   0.115   3.684  0.2515 -2.3326 -0.7612
16567TIP3    H271117   4.227   0.134   3.578 -0.5070  1.6595 -0.9572
16568TIP3   OH271118   4.292   2.913   4.826 -0.6880  0.1348 -0.1889
16568TIP3    H171119   4.379   2.920   4.866  0.5284 -0.6263 -2.5352
16568TIP3    H271120   4.259   2.829   4.857  0.3733 -0.6043 -0.9990
16569TIP3   OH271121   2.738   0.880   1.448 -0.3590  0.4075  0.7127
16569TIP3    H171122   2.712   0.817   1.381 -1.3161  0.4241  1.0512
16569TIP3    H271123   2.825   0.910   1.421 -0.2887 -0.3614  0.0525
16570TIP3   OH271124   5.498   2.204  11.256  0.1438  0.6663  0.0403
16570TIP3    H171125   5.449   2.154  11.321 -1.6186 -2.4139 -3.2712
16570TIP3    H271126   5.574   2.148  11.235 -1.8267 -0.9968 -3.7059
16571TIP3   OH271127   0.779   2.650  15.192  0.5019 -0.0109  0.0386
16571TIP3    H171128   0.740   2.620  15.110  1.4648 -1.4865  0.0739
16571TIP3    H271129   0.830   2.727  15.167 -0.2695  0.3453 -0.4836
16572TIP3   OH271130   5.666   5.427   5.139  0.5770 -0.4750  0.1297
16572TIP3    H171131   5.646   5.362   5.072 -0.4742 -0.5927  0.5451
16572TIP3    H271132   5.709   5.498   5.091  1.5136 -1.3482 -0.3600
16573TIP3   OH271133   1.349   2.757  15.940  0.3129  0.0591 -0.0925
16573TIP3    H171134   1.371   2.725  15.853  1.0000  0.7463 -0.1830
16573TIP3    H271135   1.301   2.685  15.981 -1.7415  0.4381 -1.7093
16574TIP3   OH271136   2.748   1.527  15.590  0.2579 -0.0556 -0.0741
16574TIP3    H171137   2.789   1.595  15.537  2.2882  0.1749  1.6585
16574TIP3    H271138   2.802   1.522  15.669 -1.6717 -1.4915  1.2689
16575TIP3   OH271139   3.321   2.257   1.492 -0.1142  0.3426  0.3491
16575TIP3    H171140   3.340   2.291   1.579 -1.5428 -0.6027  1.0706
16575TIP3    H271141   3.319   2.162   1.503 -0.5906  0.2205 -0.6504
16576TIP3   OH271142   0.625   5.027   5.090 -0.2596 -0.4963 -0.0233
16576TIP3    H171143   0.559   4.985   5.035  0.4797 -1.5780 -0.1063
16576TIP3    H271144   0.657   5.100   5.038  0.1673 -1.2846 -0.8933
16577TIP3   OH271145   5.317   6.657  15.054 -0.2864  0.0606 -0.3800
16577TIP3    H171146   5.377   6.723  15.088 -0.2680 -0.1039 -0.0915
16577TIP3    H271147   5.233   6.703  15.045 -0.6019 -0.1900  1.0252
16578TIP3   OH271148   3.452   0.147  13.501  0.2125 -0.1095 -0.0778
16578TIP3    H171149   3.511   0.133  13.427 -0.6185  2.7924 -1.4121
16578TIP3    H271150   3.507   0.189  13.568  0.7736 -2.0269  0.7400
16579TIP3   OH271151   1.795   5.035   4.918 -0.3292 -0.0547  0.3637
16579TIP3    H171152   1.741   5.001   4.989 -0.0681  2.3690  1.8426
16579TIP3    H271153   1.834   4.957   4.878 -2.7511 -1.6928  0.9700
16580TIP3   OH271154   1.155   2.249   5.459  0.6641 -0.0583 -0.2451
16580TIP3    H171155   1.132   2.341   5.452  1.7522  0.3205  0.7639
16580TIP3    H271156   1.087   2.203   5.410 -2.0642  0.9604  2.2714
16581TIP3   OH271157   2.869   6.678  12.299 -0.7467 -0.0723  0.5871
16581TIP3    H171158   2.830   6.761  12.270 -0.4403 -0.3998 -0.8363
16581TIP3    H271159   2.794   6.621  12.317 -1.0182 -0.6681 -2.0338
16582TIP3   OH271160   1.960   5.779   5.186 -0.1368 -0.5452 -0.2793
16582TIP3    H171161   1.879   5.733   5.162 -0.5065 -0.5302  0.8908
16582TIP3    H271162   2.029   5.727   5.146 -0.6299 -1.4123 -0.0330
16583TIP3   OH271163   3.885   6.758  10.800  0.2351 -0.2819 -0.3608
16583TIP3    H171164   3.892   6.823  10.731 -0.3569  0.8953  0.6367
16583TIP3    H271165   3.975   6.732  10.819  0.6027  1.2751  0.1453
16584TIP3   OH271166   2.483   6.738   1.076  0.4319  0.5039  0.2591
16584TIP3    H171167   2.501   6.661   1.129 -0.9024 -0.4312 -0.5654
16584TIP3    H271168   2.422   6.707   1.009  0.3390  2.1423 -0.4698
16585TIP3   OH271169   2.617   3.509   4.189 -0.3181  0.4828  0.2297
16585TIP3    H171170   2.547   3.571   4.210 -1.2942 -1.4109  3.2009
16585TIP3    H271171   2.667   3.501   4.270  1.3420 -0.7018 -0.8504
16586TIP3   OH271172   6.801   0.973   1.479  0.8478 -0.0460  0.5361
16586TIP3    H171173   6.727   1.031   1.462  0.2276 -0.3745  1.9897
16586TIP3    H271174   6.808   0.919   1.400  2.0679  2.5660 -1.2919
16587TIP3   OH271175   2.871   6.194   4.904 -0.0481  0.6176  0.4747
16587TIP3    H171176   2.922   6.119   4.872 -0.0233  1.3587 -1.3950
16587TIP3    H271177   2.896   6.203   4.996  1.4006 -0.5012  0.2308
16588TIP3   OH271178   3.939   3.261   6.559  0.2314  0.5292 -0.3231
16588TIP3    H171179   3.860   3.234   6.605 -0.4905  0.6876 -1.4360
16588TIP3    H271180   3.965   3.184   6.508 -0.1799  0.9747 -1.2473
16589TIP3   OH271181   2.690   1.458   5.890  0.1108 -0.2314  0.4560
16589TIP3    H171182   2.673   1.378   5.938 -1.4331 -0.4532 -0.3879
16589TIP3    H271183   2.786   1.465   5.886  0.2800 -0.8515  2.4081
16590TIP3   OH271184   5.118   5.045   6.626  0.5328  0.1202 -0.0697
16590TIP3    H171185   5.195   5.069   6.677  0.0950  1.4793 -0.0281
16590TIP3    H271186   5.066   5.125   6.620  0.1255 -0.2251 -1.8826
16591TIP3   OH271187   1.691   3.098  14.418 -0.0828  0.2747  0.4816
16591TIP3    H171188   1.632   3.040  14.467 -0.5093  0.6672  0.4339
16591TIP3    H271189   1.772   3.096  14.468 -0.3472  0.2607  0.9213
16592TIP3   OH271190   1.818   3.744  14.083  0.0300 -0.1012 -0.1691
16592TIP3    H171191   1.900   3.724  14.037 -0.6073 -0.8811 -1.0156
16592TIP3    H271192   1.825   3.836  14.107  2.4490 -0.8399  2.4776
16593TIP3   OH271193   0.068   3.852  12.146 -0.3440 -0.3571  0.1157
16593TIP3    H171194  -0.017   3.881  12.113 -0.8038 -1.4071  0.3310
16593TIP3    H271195   0.080   3.902  12.227 -0.7344 -0.1648  0.0566
16594TIP3   OH271196   3.811   3.652   4.743 -0.0801 -0.2890  0.3868
16594TIP3    H171197   3.751   3.661   4.817  1.5149 -1.8458  1.9516
16594TIP3    H271198   3.777   3.578   4.693  0.0980 -0.6836  0.8448
16595TIP3   OH271199   4.240   1.931   0.311 -0.1406 -0.6777  0.3872
16595TIP3    H171200   4.181   2.003   0.291  2.7455  1.5690 -0.8585
16595TIP3    H271201   4.279   1.956   0.395  0.2717 -1.2174  0.3609
16596TIP3   OH271202   6.513   5.777  11.608  0.3144  1.1074 -0.2700
16596TIP3    H171203   6.430   5.802  11.649 -0.5187 -0.3229 -1.0386
16596TIP3    H271204   6.579   5.796  11.676 -0.7517  1.1522  0.7890
16597TIP3   OH271205   5.893   0.620   2.715 -0.5429  0.1693 -0.2135
16597TIP3    H171206   5.814   0.633   2.663 -0.8414  0.7672  0.3646
16597TIP3    H271207   5.926   0.709   2.731  1.0760 -0.1182 -1.6669
16598TIP3   OH271208   2.488   2.590   0.176  0.0531  0.5003 -0.7316
16598TIP3    H171209   2.488   2.496   0.157  0.0427  0.6131 -1.2829
16598TIP3    H271210   2.494   2.594   0.272 -0.5649 -0.0671 -0.6636
16599TIP3   OH271211   6.172   2.893  16.324  0.0447  0.0985 -0.1304
16599TIP3    H171212   6.207   2.807  16.347  0.5409  0.1005 -0.8341
16599TIP3    H271213   6.174   2.895  16.228 -2.5810 -0.1866 -0.2729
16600TIP3   OH271214   0.183   4.615   3.709 -0.2129 -0.3366  0.0213
16600TIP3    H171215   0.137   4.616   3.625 -0.2254  2.4371 -0.0152
16600TIP3    H271216   0.262   4.562   3.693 -0.0245  0.4493 -1.8710
16601TIP3   OH271217   5.691   1.969  12.024 -0.3138  0.8065  0.1652
16601TIP3    H171218   5.729   1.922  11.949 -0.6900  0.0253  0.4459
16601TIP3    H271219   5.601   1.987  11.997  0.1737  2.4772 -0.4206
16602TIP3   OH271220   0.802   4.464  13.750  0.3564 -0.1398 -0.3484
16602TIP3    H171221   0.730   4.403  13.763 -0.8754  1.0999 -1.1168
16602TIP3    H271222   0.881   4.413  13.770 -0.7893 -0.9842  2.5072
16603TIP3   OH271223   4.763   5.191  12.233  0.1464  0.1523 -0.8187
16603TIP3    H171224   4.789   5.101  12.211 -2.4242 -0.4616 -1.7986
16603TIP3    H271225   4.796   5.244  12.161 -0.2726 -0.3985 -1.4324
16604TIP3   OH271226   0.448   3.545   1.192  0.3264 -0.6305 -0.6784
16604TIP3    H171227   0.480   3.457   1.213  2.1133  0.0032 -0.6001
16604TIP3    H271228   0.418   3.580   1.275 -3.7403 -2.3173 -1.1582
16605TIP3   OH271229   1.220   4.698  10.583  0.7104 -0.4314 -0.6117
16605TIP3    H171230   1.177   4.758  10.522 -1.9562 -0.6300  0.9186
16605TIP3    H271231   1.240   4.752  10.660  1.0492 -0.8501 -0.4011
16606TIP3   OH271232   0.854   5.863   0.430 -0.6345 -0.3116 -0.1069
16606TIP3    H171233   0.763   5.845   0.452 -0.3335  0.3094  1.8825
16606TIP3    H271234   0.879   5.793   0.370 -2.7715  0.2752 -1.8276
16607TIP3   OH271235   5.097   2.606   3.092 -0.1523  0.4706  0.4575
16607TIP3    H171236   5.014   2.621   3.138  1.1007  1.4566  2.5710
16607TIP3    H271237   5.154   2.567   3.159  0.3415 -2.8206 -1.6642
16608TIP3   OH271238   0.013   2.036   1.261 -0.5068  0.4977 -0.0109
16608TIP3    H171239  -0.041   2.113   1.241 -0.8402  0.3860  0.4361
16608TIP3    H271240   0.103   2.068   1.261 -0.4713  0.4951 -1.7239
16609TIP3   OH271241   0.165   2.347  15.791 -0.1305  0.4487 -0.0100
16609TIP3    H171242   0.245   2.336  15.842  0.7995  1.5017 -1.1747
16609TIP3    H271243   0.191   2.330  15.701 -1.6656 -1.0338 -0.2262
16610TIP3   OH271244   1.728   5.235   2.008  0.1461 -0.7625  0.1190
16610TIP3    H171245   1.716   5.141   1.989  1.7329 -1.3193  1.6422
16610TIP3    H271246   1.745   5.239   2.102 -0.8415  1.1990  0.2763
16611TIP3   OH271247   1.063   1.896  16.914  0.4574 -0.0233 -0.2653
16611TIP3    H171248   1.068   1.872  16.821 -1.6594 -1.4132 -0.0852
16611TIP3    H271249   0.970   1.897  16.934  0.8755 -2.0779  2.3930
16612TIP3   OH271250   4.914   0.293  10.870 -0.3065 -0.2969 -0.6725
16612TIP3    H171251   4.871   0.370  10.834  1.1814  0.4111 -1.0037
16612TIP3    H271252   4.903   0.301  10.964 -1.0316 -0.2282 -0.7563
16613TIP3   OH271253   2.347   3.539   1.241  0.4432  0.2493 -0.7976
16613TIP3    H171254   2.285   3.470   1.263  1.1687 -1.1771 -2.9232
16613TIP3    H271255   2.296   3.601   1.188 -0.0694  1.1103  0.6524
16614TIP3   OH271256   1.305   3.462   1.483  0.3627 -0.5822  0.1466
16614TIP3    H171257   1.388   3.509   1.495 -0.3596  0.5214  0.9661
16614TIP3    H271258   1.326   3.371   1.504  1.2134 -0.1983  1.0022
16615TIP3   OH271259   0.992   5.864   4.080  0.2723  0.1105 -0.0149
16615TIP3    H171260   0.977   5.953   4.046  1.7796  0.2123 -0.5170
16615TIP3    H271261   1.073   5.873   4.132  0.9499 -1.1348 -0.8162
16616TIP3   OH271262   5.240   0.856   6.326 -0.1339  0.3174  0.1751
16616TIP3    H171263   5.333   0.873   6.319 -0.3043  2.1415  1.5299
16616TIP3    H271264   5.229   0.817   6.413 -0.6586  0.3184  0.1169
16617TIP3   OH271265   1.419   6.292  10.957 -0.1279  0.4056 -0.4290
16617TIP3    H171266   1.400   6.206  10.919 -1.5530  0.2250  0.6116
16617TIP3    H271267   1.504   6.317  10.920  0.0423 -1.1967 -1.1776
16618TIP3   OH271268   0.464   2.280  16.148 -0.1503  0.4791  0.4824
16618TIP3    H171269   0.484   2.187  16.146  1.1810  0.7441 -0.2513
16618TIP3    H271270   0.537   2.320  16.195 -1.4637  1.0247  2.1801
16619TIP3   OH271271   1.767   6.384   1.601 -0.5781  0.4021 -0.2512
16619TIP3    H171272   1.738   6.396   1.691 -0.0431  1.9849 -0.2689
16619TIP3    H271273   1.686   6.390   1.550 -1.1352 -2.1716  0.1917
16620TIP3   OH271274   1.423   4.336  14.536 -0.0527 -0.1927 -0.0122
16620TIP3    H171275   1.350   4.379  14.490  0.3970 -0.8365 -1.3617
16620TIP3    H271276   1.494   4.400  14.533 -0.4094  0.2605  0.9149
16621TIP3   OH271277   0.826   5.686  10.533 -0.2629  0.0205 -0.0846
16621TIP3    H171278   0.878   5.658  10.458  0.0723  1.9037 -0.6062
16621TIP3    H271279   0.861   5.772  10.556 -2.3771  0.8552  0.2607
16622TIP3   OH271280   0.663   4.739  14.359 -0.3131  0.4277  0.0997
16622TIP3    H171281   0.609   4.690  14.297  0.3249 -1.6329  1.0720
16622TIP3    H271282   0.710   4.802  14.305 -2.1910  0.9554 -1.0225
16623TIP3   OH271283   1.236   3.504  16.014  0.4760  0.2851 -0.3600
16623TIP3    H171284   1.199   3.583  15.975 -1.3933  0.4439  1.5720
16623TIP3    H271285   1.308   3.536  16.068  0.2883  0.5623 -0.2722
16624TIP3   OH271286   5.925   4.556   3.858  0.1520 -0.1921 -0.0629
16624TIP3    H171287   5.863   4.628   3.842 -1.1054 -1.5410 -1.6235
16624TIP3    H271288   5.872   4.489   3.902  1.5439  0.1225  2.2662
16625TIP3   OH271289   6.189   2.915  13.473 -0.1841 -0.1760  0.1063
16625TIP3    H171290   6.235   2.993  13.442 -2.9102  0.8587 -1.7027
16625TIP3    H271291   6.217   2.845  13.413 -0.6279  0.3579 -0.7515
16626TIP3   OH271292   5.591   3.414  16.126  0.3698  0.0410  0.2338
16626TIP3    H171293   5.532   3.365  16.069  0.6708 -0.0812  0.0267
16626TIP3    H271294   5.658   3.351  16.150  0.7107  0.3286  0.0401
16627TIP3   OH271295   1.049   5.086   0.542  0.6091 -0.7209 -0.0890
16627TIP3    H171296   1.015   5.039   0.467  1.1452 -0.0026 -0.7952
16627TIP3    H271297   0.996   5.165   0.548  2.0703  0.3975 -1.1848
16628TIP3   OH271298   3.134   2.723  14.699 -0.2443 -0.4962 -0.2924
16628TIP3    H171299   3.147   2.795  14.638 -2.8464  0.1786 -0.1650
16628TIP3    H271300   3.205   2.661  14.679  0.6902  1.0195 -1.9586
16629TIP3   OH271301   3.835   6.542  14.629 -0.6541  0.3669 -0.2589
16629TIP3    H171302   3.900   6.545  14.559 -0.7590  3.4678 -0.3622
16629TIP3    H271303   3.769   6.480  14.598  0.6142 -0.3387 -1.6628
16630TIP3   OH271304   5.634   3.113   2.848  0.1798  0.5887  0.6641
16630TIP3    H171305   5.695   3.180   2.817 -0.0950 -0.0358 -1.4178
16630TIP3    H271306   5.549   3.141   2.814  0.0467 -0.7175 -0.1487
16631TIP3   OH271307   5.731   6.131  15.005  0.3277  1.0201  0.4385
16631TIP3    H171308   5.680   6.178  14.939  3.2147  0.7565 -2.2595
16631TIP3    H271309   5.806   6.188  15.022  1.3680 -0.4425  0.9035
16632TIP3   OH271310   3.204   5.631   1.927  0.5184  0.2240 -0.2596
16632TIP3    H171311   3.155   5.641   1.846  0.3396 -1.8907 -0.4653
16632TIP3    H271312   3.225   5.721   1.954  0.4767  0.9762 -2.5504
16633TIP3   OH271313   0.819   5.525  13.664 -0.2523 -0.5985  0.0791
16633TIP3    H171314   0.891   5.462  13.663 -1.2188 -1.7394  0.4341
16633TIP3    H271315   0.846   5.591  13.728  1.9322  0.8171 -2.1204
16634TIP3   OH271316   6.072   3.111   6.016  0.8176 -0.2621  0.3146
16634TIP3    H171317   6.031   3.169   5.952 -0.9394 -1.9957 -0.2147
16634TIP3    H271318   6.165   3.134   6.014  0.8158 -0.1987 -2.8385
16635TIP3   OH271319   0.441   0.626   1.626  0.4233  0.6621 -0.0500
16635TIP3    H171320   0.464   0.611   1.534 -2.6266  0.4518 -0.8881
16635TIP3    H271321   0.427   0.538   1.662  0.9154  0.7708  0.4125
16636TIP3   OH271322   6.366   4.567   5.495 -0.1520 -0.8848 -0.2006
16636TIP3    H171323   6.313   4.647   5.491  1.2355  0.0565 -3.0753
16636TIP3    H271324   6.431   4.585   5.563 -0.2626  0.2080 -0.3573
16637TIP3   OH271325   1.250   0.836   1.464 -0.0965  1.1112  0.1607
16637TIP3    H171326   1.336   0.844   1.422 -0.2064  1.0557 -0.0801
16637TIP3    H271327   1.193   0.894   1.412 -0.1604  1.2958  0.4378
16638TIP3   OH271328   5.640   2.978  12.533 -0.4122 -0.0913 -0.3337
16638TIP3    H171329   5.606   3.042  12.470 -0.0761 -0.6228 -1.0602
16638TIP3    H271330   5.563   2.928  12.561 -0.5879  0.2553 -0.1816
16639TIP3   OH271331   4.592   0.778   1.949 -0.1012  0.0094  0.0230
16639TIP3    H171332   4.526   0.844   1.968 -0.0899 -0.0052  0.1120
16639TIP3    H271333   4.673   0.827   1.935 -0.2243  0.0614 -0.5244
16640TIP3   OH271334   3.615   1.936  11.595 -0.6245  0.2230  0.1631
16640TIP3    H171335   3.656   2.019  11.569  1.0848 -0.3393  0.8856
16640TIP3    H271336   3.630   1.878  11.521  0.6534 -0.2124  0.7360
16641TIP3   OH271337   5.170   3.643   5.319  0.2777 -0.0662  0.0975
16641TIP3    H171338   5.246   3.696   5.296 -1.4898  1.6211 -2.4924
16641TIP3    H271339   5.144   3.675   5.406  1.0716  1.1379 -0.0774
16642TIP3   OH271340   4.020   3.469   4.595  0.2692 -0.5716  0.5329
16642TIP3    H171341   4.053   3.559   4.607  1.5355 -1.1237  1.4780
16642TIP3    H271342   3.926   3.476   4.611  0.4757  0.4593  1.4351
16643TIP3   OH271343   1.612   3.309  11.973  0.5980  0.4963  0.7475
16643TIP3    H171344   1.541   3.327  12.035 -0.0689  1.2742 -0.2148
16643TIP3    H271345   1.663   3.389  11.970  2.3670 -0.4940  2.4454
16644TIP3   OH271346   1.169   4.130   3.742  0.2327 -0.1940 -0.4736
16644TIP3    H171347   1.259   4.113   3.713 -0.2770 -1.0678 -1.6600
16644TIP3    H271348   1.128   4.043   3.746 -1.2155  0.3280 -2.3357
16645TIP3   OH271349   1.057   1.256   1.280 -0.6350 -0.0869 -0.1377
16645TIP3    H171350   1.004   1.290   1.208 -1.2903 -1.8957 -0.5789
16645TIP3    H271351   0.993   1.227   1.346 -0.0643  0.9865  0.9326
16646TIP3   OH271352   5.940   2.557  15.740  0.1528  0.3316 -0.0117
16646TIP3    H171353   5.922   2.624  15.675  0.1775 -0.6369 -1.0326
16646TIP3    H271354   5.861   2.503  15.742  0.9019 -0.8190 -0.6987
16647TIP3   OH271355   6.779   6.053  16.754  0.0168 -0.2094 -0.2330
16647TIP3    H171356   6.737   6.079  16.672  2.4160  2.8729 -0.6910
16647TIP3    H271357   6.852   5.997  16.727  1.0262  1.0974 -0.3338
16648TIP3   OH271358   4.792   0.414  15.128 -0.2922 -0.3375  0.0744
16648TIP3    H171359   4.699   0.414  15.151  0.4168 -1.5189  3.6410
16648TIP3    H271360   4.793   0.421  15.033 -4.0601 -1.6376 -0.2475
16649TIP3   OH271361   0.177   4.245  14.851 -0.0577  0.1900  0.0865
16649TIP3    H171362   0.258   4.294  14.862  0.9565 -1.1867 -0.9723
16649TIP3    H271363   0.118   4.282  14.917  2.3672 -0.8285  3.0314
16650TIP3   OH271364   1.014   0.052   2.919 -0.0297 -0.0910  0.2554
16650TIP3    H171365   1.015   0.108   2.997 -0.8047 -0.4763  0.5569
16650TIP3    H271366   1.050   0.108   2.849 -0.3748  0.6434  0.6468
16651TIP3   OH271367   1.395   4.113  14.233 -0.6034  0.3618  0.4292
16651TIP3    H171368   1.394   4.072  14.146  0.4091 -0.4099  0.7584
16651TIP3    H271369   1.428   4.202  14.218 -0.8012  0.3598 -0.0209
16652TIP3   OH271370   6.725   3.098  16.765  0.0224  0.2196  0.4898
16652TIP3    H171371   6.676   3.084  16.684  1.2604  0.2511 -0.3004
16652TIP3    H271372   6.732   3.193  16.773  0.0706  0.2130  0.5294
16653TIP3   OH271373   0.532   2.700   1.627  0.1497  0.6025  0.3597
16653TIP3    H171374   0.563   2.733   1.712 -0.6842 -1.7039  1.6333
16653TIP3    H271375   0.455   2.648   1.648 -1.5293  1.8790 -2.1422
16654TIP3   OH271376   3.330   2.754   4.577 -0.0839  0.7195  0.1463
16654TIP3    H171377   3.356   2.836   4.534  0.4438  0.3911 -0.1777
16654TIP3    H271378   3.407   2.697   4.568 -1.1562 -0.5430 -1.4473
16655TIP3   OH271379   5.555   5.582   3.273 -0.2346  0.1051 -0.1889
16655TIP3    H171380   5.546   5.647   3.344 -1.8886  0.6193 -0.8211
16655TIP3    H271381   5.510   5.622   3.199 -0.3446 -1.3219 -0.9115
16656TIP3   OH271382   5.870   2.450   0.688 -0.3272  0.4232 -0.5037
16656TIP3    H171383   5.825   2.408   0.761 -0.3895  1.8468  0.3245
16656TIP3    H271384   5.834   2.408   0.610 -1.1454 -0.2989  0.2459
16657TIP3   OH271385   1.771   1.825   4.114  0.0079 -0.2782 -0.0813
16657TIP3    H171386   1.719   1.874   4.050  1.5430  2.1821  0.4131
16657TIP3    H271387   1.832   1.773   4.061  0.1800  0.4739 -0.6316
16658TIP3   OH271388   3.249   6.520  15.577  0.7437  0.2621  0.1845
16658TIP3    H171389   3.262   6.457  15.507 -1.8437  0.7932 -0.8979
16658TIP3    H271390   3.323   6.507  15.636  2.3120 -1.1051 -1.9608
16659TIP3   OH271391   4.143   4.072  16.723  0.4339 -0.3582  0.6316
16659TIP3    H171392   4.090   4.062  16.644  2.2562 -1.4946 -0.5408
16659TIP3    H271393   4.093   4.029  16.792 -1.2576  0.7781  0.1618
16660TIP3   OH271394   4.330   2.695   3.596  0.2799 -0.2277  0.0130
16660TIP3    H171395   4.274   2.679   3.672 -0.8467  0.0314 -0.7444
16660TIP3    H271396   4.270   2.705   3.523  1.3669 -1.9209 -1.2158
16661TIP3   OH271397   1.851   1.125  11.023  0.0830 -0.4588 -0.3468
16661TIP3    H171398   1.931   1.131  10.971  0.1772 -0.8599 -0.2503
16661TIP3    H271399   1.780   1.124  10.958  0.0388  1.5385 -0.3955
16662TIP3   OH271400   0.808   5.713   0.120 -1.1970  0.0460  0.6003
16662TIP3    H171401   0.764   5.785   0.075 -0.6089  1.0593  1.5821
16662TIP3    H271402   0.859   5.669   0.051 -0.0044  1.7951  0.2889
16663TIP3   OH271403   4.669   4.524   0.218 -0.1212 -0.8720  0.0219
16663TIP3    H171404   4.686   4.590   0.150 -0.4772 -0.9240 -0.1257
16663TIP3    H271405   4.575   4.507   0.210  0.1490 -2.1967 -0.6773
16664TIP3   OH271406   4.819   5.823  13.438 -0.1270  0.6176  0.2804
16664TIP3    H171407   4.799   5.733  13.411  0.9707  0.4005  0.1432
16664TIP3    H271408   4.750   5.876  13.398  0.7071  0.1472 -1.9060
16665TIP3   OH271409   1.448   4.226   3.674  0.0155 -0.4899 -0.5051
16665TIP3    H171410   1.471   4.147   3.722  0.6928 -0.2164 -0.3678
16665TIP3    H271411   1.471   4.206   3.583 -3.1857 -1.7871 -1.1709
16666TIP3   OH271412   6.536   3.148   0.561  0.2369 -0.8029 -0.0238
16666TIP3    H171413   6.618   3.135   0.609  1.2485  2.0091 -0.7512
16666TIP3    H271414   6.545   3.235   0.523 -2.9347 -0.5869 -0.5437
16667TIP3   OH271415   0.348   6.290  15.209  0.1409 -0.2317 -0.2745
16667TIP3    H171416   0.418   6.236  15.173  0.8567 -1.4931  2.7556
16667TIP3    H271417   0.383   6.379  15.206  0.6582 -0.4518 -1.4251
16668TIP3   OH271418   1.238   3.840   3.832 -0.4519  0.2200  0.2193
16668TIP3    H171419   1.245   3.774   3.901  0.2403 -0.3552 -0.3892
16668TIP3    H271420   1.174   3.804   3.770 -0.7254  0.5218  0.3225
16669TIP3   OH271421   0.552   3.837  14.493 -0.3419  0.0030  0.2153
16669TIP3    H171422   0.628   3.895  14.502 -1.1244  2.0330 -3.8906
16669TIP3    H271423   0.589   3.752  14.469  0.7524  0.8908 -1.4646
16670TIP3   OH271424   4.984   6.046   5.956 -0.9426 -0.0470  0.8106
16670TIP3    H171425   4.995   6.095   6.038  1.6522  1.5627 -0.3661
16670TIP3    H271426   5.072   6.019   5.932 -1.5465 -0.0780 -1.6722
16671TIP3   OH271427   2.140   2.277  14.061  0.0067 -0.7037  0.1897
16671TIP3    H171428   2.156   2.247  14.150 -0.3106  1.3040  0.9672
16671TIP3    H271429   2.045   2.288  14.056  0.1495  0.5547  0.0861
16672TIP3   OH271430   2.477   0.384   3.198 -0.0649  0.0539 -0.0809
16672TIP3    H171431   2.515   0.466   3.230 -0.8827  0.6677 -0.6409
16672TIP3    H271432   2.544   0.318   3.215  2.0385  1.3517 -2.5809
16673TIP3   OH271433   3.586   0.725  11.445 -0.2496  0.2341 -0.1821
16673TIP3    H171434   3.510   0.711  11.501 -0.5302  2.4437  0.0792
16673TIP3    H271435   3.562   0.799  11.389  0.5456 -1.0221 -2.3023
16674TIP3   OH271436   0.364   4.519  10.610 -0.4410  0.1970 -0.2434
16674TIP3    H171437   0.400   4.494  10.524 -1.5201  0.3588 -0.7644
16674TIP3    H271438   0.320   4.602  10.593  0.6549  1.0368  0.8305
16675TIP3   OH271439   1.440   2.972  13.585 -0.1798  0.0038  1.0027
16675TIP3    H171440   1.473   3.057  13.615 -0.7119  0.4417  0.3795
16675TIP3    H271441   1.487   2.956  13.503 -0.6384  0.0533  0.7330
16676TIP3   OH271442   2.152   3.931   1.674 -0.0932 -0.7296 -0.5521
16676TIP3    H171443   2.207   3.860   1.708 -0.5118 -0.4224  0.8548
16676TIP3    H271444   2.170   4.005   1.732  1.0183  0.6499 -2.5435
16677TIP3   OH271445   3.877   2.352   1.707 -0.2720 -0.2615 -0.1879
16677TIP3    H171446   3.782   2.358   1.722  0.0080 -1.6808  2.7094
16677TIP3    H271447   3.917   2.374   1.791  1.8772 -1.7310 -0.7281
16678TIP3   OH271448   3.192   0.933  10.467  0.6939  0.2426 -0.2823
16678TIP3    H171449   3.201   0.874  10.542 -0.2185  0.7259  0.2433
16678TIP3    H271450   3.157   1.014  10.506  0.6420  0.6528 -1.1713
16679TIP3   OH271451   2.099   6.646  16.581  0.1096 -0.1013  0.2307
16679TIP3    H171452   2.176   6.621  16.530  1.0656  3.0484 -0.1502
16679TIP3    H271453   2.027   6.645  16.518  0.8306  1.4769 -0.6998
16680TIP3   OH271454   0.601   1.948  13.450 -0.2692 -0.5568  0.7818
16680TIP3    H171455   0.619   1.939  13.356 -0.7078  0.0744  0.6291
16680TIP3    H271456   0.598   1.858  13.483 -1.5956 -0.8737 -0.1019
16681TIP3   OH271457   5.840   4.260   4.321 -0.4040  0.0778  0.0024
16681TIP3    H171458   5.789   4.341   4.321  0.5512  0.7550 -2.0581
16681TIP3    H271459   5.927   4.286   4.352 -0.1298 -0.1771 -0.5311
16682TIP3   OH271460   6.347   0.700  15.386  0.0219  0.4553  0.4789
16682TIP3    H171461   6.284   0.757  15.430  0.4476 -0.3171  2.1691
16682TIP3    H271462   6.394   0.758  15.327 -0.2321  1.6669  1.4220
16683TIP3   OH271463   3.430   4.236   4.749  0.6487 -1.0845 -0.1923
16683TIP3    H171464   3.337   4.260   4.750  0.6192 -0.3376  4.8463
16683TIP3    H271465   3.429   4.140   4.740 -0.6135 -1.1223  0.1127
16684TIP3   OH271466   0.050   4.626  17.060 -1.1082  0.2183  0.3448
16684TIP3    H171467  -0.007   4.702  17.067 -2.3563 -0.7861  1.6161
16684TIP3    H271468   0.011   4.561  17.117 -0.6372 -1.7725 -1.4776
16685TIP3   OH271469   3.959   0.408  13.012 -0.1719 -0.2501  0.0562
16685TIP3    H171470   3.953   0.312  13.013 -3.6950 -0.1671 -1.1222
16685TIP3    H271471   3.994   0.430  13.098 -0.9282 -2.5611  1.0486
16686TIP3   OH271472   2.367   6.276  15.982 -0.6496 -0.2766  0.1254
16686TIP3    H171473   2.383   6.370  15.988  0.7120 -0.4565 -0.5080
16686TIP3    H271474   2.271   6.268  15.986 -0.7652  1.0931  0.5502
16687TIP3   OH271475   2.220   0.904  16.009 -0.9526 -0.3526 -0.7056
16687TIP3    H171476   2.225   0.964  16.083  1.5025 -1.2481 -0.0453
16687TIP3    H271477   2.162   0.948  15.946 -1.4211  1.3897  0.8583
16688TIP3   OH271478   3.136   5.408  16.221  0.0230  0.1419 -0.0636
16688TIP3    H171479   3.073   5.468  16.181  0.2128 -0.6423 -1.6059
16688TIP3    H271480   3.139   5.435  16.313  0.1767  2.5608 -0.7071
16689TIP3   OH271481   1.621   5.533   4.587 -0.1842 -0.2485  0.2474
16689TIP3    H171482   1.579   5.615   4.612 -0.0250 -0.0132 -0.2373
16689TIP3    H271483   1.576   5.466   4.639 -1.2594 -0.0270 -0.3624
16690TIP3   OH271484   5.536   0.086   4.477  0.4867  0.2808 -0.0420
16690TIP3    H171485   5.453   0.127   4.451  0.2988 -0.3816 -0.5027
16690TIP3    H271486   5.565   0.039   4.399 -0.2543 -2.0221  0.9807
16691TIP3   OH271487   4.323   0.489   5.408 -0.1063 -0.7259  0.1772
16691TIP3    H171488   4.235   0.452   5.401 -0.2872 -0.2252 -0.2936
16691TIP3    H271489   4.365   0.467   5.325  0.1861 -0.9030  0.3728
16692TIP3   OH271490   3.093   0.231  11.141 -0.5472  0.1678  0.7995
16692TIP3    H171491   3.062   0.140  11.134 -0.7195  0.2646  0.3060
16692TIP3    H271492   3.174   0.234  11.090 -0.6467  0.3403  0.6514
16693TIP3   OH271493   2.408   1.409  14.190 -0.0882 -0.1120  0.5964
16693TIP3    H171494   2.343   1.476  14.167 -0.5132  0.2575  2.7138
16693TIP3    H271495   2.356   1.340  14.231  0.5909 -0.9248  0.1133
16694TIP3   OH271496   1.315   3.621   5.045 -0.6421 -0.3722 -0.8013
16694TIP3    H171497   1.233   3.646   5.001 -0.5967  3.1285  0.7454
16694TIP3    H271498   1.289   3.604   5.135  0.3286  1.4074 -0.1362
16695TIP3   OH271499   5.261   2.249   5.808 -0.0111 -0.0135  0.8014
16695TIP3    H171500   5.249   2.331   5.857  1.2925 -0.1827  1.4244
16695TIP3    H271501   5.284   2.184   5.874  0.4028 -0.5632  0.1329
16696TIP3   OH271502   2.445   5.289   2.807 -0.3131 -0.6690  0.2977
16696TIP3    H171503   2.514   5.325   2.863 -1.5698 -0.7398  1.9748
16696TIP3    H271504   2.475   5.305   2.718  0.4050  2.1756  0.9544
16697TIP3   OH271505   5.269   4.788  15.511  0.8939 -0.3532  0.0187
16697TIP3    H171506   5.246   4.699  15.538  0.4119 -0.7314 -1.5069
16697TIP3    H271507   5.223   4.800  15.427  0.4276  1.5643  0.4892
16698TIP3   OH271508   2.299   0.304   3.799  0.5110 -0.0293 -0.0577
16698TIP3    H171509   2.352   0.257   3.863  1.2220 -1.5029 -1.6457
16698TIP3    H271510   2.222   0.249   3.786  1.6914 -1.2617 -2.4720
16699TIP3   OH271511   4.127   2.986  13.493 -0.2578  0.1331  0.4891
16699TIP3    H171512   4.151   3.018  13.580  1.7537 -0.1820  0.1030
16699TIP3    H271513   4.152   3.058  13.434  2.1490 -1.1353 -0.1640
16700TIP3   OH271514   2.781   6.120  14.444 -0.0700  0.3237 -0.0989
16700TIP3    H171515   2.745   6.079  14.366  0.4069  1.2781 -0.8379
16700TIP3    H271516   2.876   6.110  14.435  0.0312  1.2116 -0.0924
16701TIP3   OH271517   0.059   2.443   0.678  0.3748 -0.6099  0.3768
16701TIP3    H171518  -0.011   2.456   0.614  0.7886 -2.8676 -0.6366
16701TIP3    H271519   0.014   2.441   0.762 -0.8285 -2.0281 -0.2471
16702TIP3   OH271520   5.270   1.810   0.349 -0.0042 -0.4490  0.0443
16702TIP3    H171521   5.209   1.789   0.419  0.7878 -0.8696  0.6178
16702TIP3    H271522   5.232   1.771   0.271 -1.3506  0.7839  0.0382
16703TIP3   OH271523   1.348   6.100  16.469  0.7470 -0.2589  0.4362
16703TIP3    H171524   1.336   6.170  16.532 -0.0109  1.5370 -1.5821
16703TIP3    H271525   1.425   6.125  16.419  1.3528 -1.6589  0.6092
16704TIP3   OH271526   2.618   2.407   2.364  0.1255  0.2333 -0.4260
16704TIP3    H171527   2.650   2.414   2.274 -1.5760  1.1804 -1.0081
16704TIP3    H271528   2.689   2.441   2.418  1.3393 -0.7369 -1.3522
16705TIP3   OH271529   6.808   0.172   5.275  0.1099  0.0532  0.3151
16705TIP3    H171530   6.895   0.134   5.284  0.3240  0.7564  1.4548
16705TIP3    H271531   6.749   0.097   5.272  0.8235 -0.5132 -2.0981
16706TIP3   OH271532   3.916   2.625  16.304  0.3296  0.6649 -0.1278
16706TIP3    H171533   4.009   2.630  16.283  1.0499  0.6911  2.6877
16706TIP3    H271534   3.901   2.697  16.366 -1.3431  0.0786  0.2001
16707TIP3   OH271535   2.094   0.791   2.056 -0.3021  0.4927 -0.2618
16707TIP3    H171536   2.153   0.728   2.097  0.7156  1.6593  0.1092
16707TIP3    H271537   2.131   0.808   1.970 -1.1430 -0.1621 -0.7756
16708TIP3   OH271538   4.210   2.840  10.648 -0.2829  0.4436  0.3930
16708TIP3    H171539   4.273   2.798  10.707 -0.4118 -0.1098  0.1420
16708TIP3    H271540   4.264   2.892  10.589  0.0567 -0.8867 -0.5306
16709TIP3   OH271541   0.977   0.707  12.251  0.5220  0.0159 -0.0764
16709TIP3    H171542   0.895   0.677  12.290  1.7398 -3.2146  0.3164
16709TIP3    H271543   0.994   0.644  12.180  2.2227  1.1661 -0.7500
16710TIP3   OH271544   3.127   5.186  16.811  0.1042  0.2240 -0.0212
16710TIP3    H171545   3.158   5.216  16.725 -0.8584 -0.4234 -0.6190
16710TIP3    H271546   3.040   5.224  16.819  0.5340  1.0279  1.0951
16711TIP3   OH271547   1.889   3.384  12.139 -0.4599 -0.0032 -0.1278
16711TIP3    H171548   1.958   3.427  12.188  0.5544  0.1614 -1.6229
16711TIP3    H271549   1.819   3.449  12.132 -0.1611  0.3458  0.1548
16712TIP3   OH271550   5.176   4.507  16.614 -0.5573 -0.4336  0.1034
16712TIP3    H171551   5.167   4.414  16.593 -0.9422 -0.4770  0.4376
16712TIP3    H271552   5.266   4.529  16.591 -0.2522 -1.0666  0.6778
16713TIP3   OH271553   4.294   5.875  16.350  0.0953  0.1261 -0.2701
16713TIP3    H171554   4.225   5.876  16.416 -0.1444  0.7757 -0.5223
16713TIP3    H271555   4.372   5.847  16.397 -0.2462 -0.1948  0.1133
16714TIP3   OH271556   0.587   5.647   4.475  0.0298 -0.1553 -0.1491
16714TIP3    H171557   0.636   5.649   4.393 -1.1040 -0.2446 -0.8487
16714TIP3    H271558   0.654   5.647   4.543  0.9912 -0.1552 -1.0732
16715TIP3   OH271559   0.320   0.731  15.108 -0.5276  0.8203 -0.4107
16715TIP3    H171560   0.312   0.774  15.023  1.9170  0.5744 -0.8288
16715TIP3    H271561   0.365   0.648  15.089  0.8782  1.1630  1.2021
16716TIP3   OH271562   5.187   1.880   6.673 -0.1821  0.2630 -0.1103
16716TIP3    H171563   5.198   1.904   6.581 -0.6291  0.4547 -0.1145
16716TIP3    H271564   5.194   1.962   6.721 -1.2436  0.3562 -0.0878
16717TIP3   OH271565   5.562   1.386  12.104  0.0339  0.4240 -0.7995
16717TIP3    H171566   5.570   1.433  12.021 -0.6712 -0.5270 -1.4284
16717TIP3    H271567   5.647   1.342  12.114 -0.1544 -0.1018 -1.4354
16718TIP3   OH271568   5.592   2.535   3.107  0.3359  0.1837 -0.2119
16718TIP3    H171569   5.674   2.584   3.104  1.1504 -0.9886  1.5575
16718TIP3    H271570   5.589   2.496   3.194 -2.2405  0.3650 -0.1205
16719TIP3   OH271571   6.357   6.493  11.346  0.0636  0.1952  0.0487
16719TIP3    H171572   6.442   6.498  11.390  0.6752 -1.2048 -0.9004
16719TIP3    H271573   6.344   6.580  11.308  0.6351  0.6918  0.9709
16720TIP3   OH271574   1.881   0.920  13.890  0.2990  0.6526 -0.1855
16720TIP3    H171575   1.947   0.888  13.952 -0.3153  0.9031  0.6099
16720TIP3    H271576   1.798   0.893  13.928 -0.1179  1.2944 -0.6303
16721TIP3   OH271577   2.884   0.672  15.122  0.0780 -0.8042  0.5603
16721TIP3    H171578   2.980   0.673  15.118  0.0610 -1.3710 -0.0330
16721TIP3    H271579   2.856   0.661  15.031 -0.5984  1.4917  0.4252
16722TIP3   OH271580   1.788   4.772   4.800 -0.1050 -0.0379 -0.3443
16722TIP3    H171581   1.785   4.699   4.862 -0.3479 -0.2855 -0.6368
16722TIP3    H271582   1.696   4.797   4.788 -0.1393 -0.5106 -1.1876
16723TIP3   OH271583   4.632   3.918   1.435  0.5113  0.1100 -0.2111
16723TIP3    H171584   4.566   3.976   1.396  1.0293  0.5920 -0.3929
16723TIP3    H271585   4.586   3.872   1.505 -0.0614  0.3087 -0.4502
16724TIP3   OH271586   5.846   4.600   3.408  0.3465  0.4690  0.3360
16724TIP3    H171587   5.792   4.672   3.440 -0.5400 -0.4100  0.8685
16724TIP3    H271588   5.820   4.525   3.460  1.6085 -0.1462  0.1270
16725TIP3   OH271589   3.573   6.658  15.047 -0.5045 -0.3177  0.6349
16725TIP3    H171590   3.613   6.701  15.123 -1.2878 -0.4846  1.1475
16725TIP3    H271591   3.639   6.594  15.019 -0.2204 -0.2662  1.1769
16726TIP3   OH271592   6.154   0.307  11.539 -0.0733 -0.5965 -0.1812
16726TIP3    H171593   6.124   0.355  11.616  0.6823  1.0972 -0.8926
16726TIP3    H271594   6.244   0.281  11.560  0.1996  0.0336 -0.5571
16727TIP3   OH271595   3.007   2.765   3.946  0.4182  0.0691 -0.5017
16727TIP3    H171596   3.058   2.820   3.887  0.4260  1.0357  0.3916
16727TIP3    H271597   2.934   2.820   3.975 -0.0427 -0.6581 -0.2365
16728TIP3   OH271598   6.748   1.495   1.573 -0.2684  0.3128 -0.9729
16728TIP3    H171599   6.787   1.504   1.486 -0.1215  2.0221 -0.7715
16728TIP3    H271600   6.659   1.464   1.556 -0.0132 -0.0566 -1.6783
16729TIP3   OH271601   0.907   2.544   2.589  0.2874 -0.2933  0.9201
16729TIP3    H171602   0.919   2.516   2.498 -1.9679 -0.1235  0.5108
16729TIP3    H271603   0.898   2.463   2.638  2.6065 -0.4251  1.2344
16730TIP3   OH271604   6.383   2.759  15.139 -0.4536  0.0504  1.0154
16730TIP3    H171605   6.325   2.713  15.199 -0.7585  0.3263  0.9325
16730TIP3    H271606   6.346   2.743  15.052 -0.0376 -0.3132  0.9039
16731TIP3   OH271607   3.797   4.517   0.401  0.2081 -0.5911  0.0938
16731TIP3    H171608   3.823   4.496   0.491 -0.9001 -1.5693  0.1992
16731TIP3    H271609   3.750   4.440   0.370 -0.7474  0.3155 -0.8122
16732TIP3   OH271610   3.845   1.805   2.739 -0.6290  0.5274  0.0169
16732TIP3    H171611   3.859   1.854   2.657 -0.7238  1.1538  0.3650
16732TIP3    H271612   3.767   1.753   2.723  1.1895 -2.0057 -1.5035
16733TIP3   OH271613   3.279   6.681  11.168  0.3482  0.0388 -0.5632
16733TIP3    H171614   3.187   6.705  11.158  0.7856  1.5956 -1.1988
16733TIP3    H271615   3.321   6.761  11.198  1.8577  0.0214 -2.4589
16734TIP3   OH271616   6.001   2.698   0.793 -0.1890  0.5886  0.1870
16734TIP3    H171617   5.988   2.638   0.720  1.1719  1.3163 -0.7024
16734TIP3    H271618   6.073   2.754   0.765 -0.3692  1.6049  1.6477
16735TIP3   OH271619   0.208   5.976  13.027  0.9899  0.0620 -0.7483
16735TIP3    H171620   0.177   5.892  12.992  2.5157 -1.2384  0.8103
16735TIP3    H271621   0.224   5.958  13.120 -0.0768  2.5405 -0.0120
16736TIP3   OH271622   3.940   0.620  16.599 -0.6394 -0.1301  0.0212
16736TIP3    H171623   3.962   0.542  16.548  1.6892  0.3655  0.1196
16736TIP3    H271624   3.862   0.656  16.557 -1.9942 -2.6477  0.1790
16737TIP3   OH271625   0.637   3.610   4.415 -0.5573 -0.3271 -0.0000
16737TIP3    H171626   0.542   3.617   4.425 -0.7378  0.2639 -1.7632
16737TIP3    H271627   0.671   3.614   4.504 -2.1377  0.2642  0.6089
16738TIP3   OH271628   6.120   4.167  14.975 -0.4236  0.6257 -0.0249
16738TIP3    H171629   6.168   4.187  15.055  1.5857  2.0865 -1.4584
16738TIP3    H271630   6.035   4.208  14.987 -0.5627 -0.1157  1.7576
16739TIP3   OH271631   5.865   6.414   4.406  0.5946 -0.3776  0.3398
16739TIP3    H171632   5.770   6.404   4.402  0.4366  0.7449  0.9487
16739TIP3    H271633   5.881   6.506   4.386  1.5829 -0.6183 -0.0499
16740TIP3   OH271634   3.175   5.991  15.148 -0.4039 -0.5509 -0.3118
16740TIP3    H171635   3.241   5.929  15.177  0.8892  1.8377  2.4107
16740TIP3    H271636   3.221   6.048  15.087 -0.0099  0.7221  1.0960
16741TIP3   OH271637   3.741   2.051   2.693  0.2129 -0.3308  0.0022
16741TIP3    H171638   3.667   2.110   2.711  1.3639  0.4301  2.8312
16741TIP3    H271639   3.763   2.015   2.779  3.3492 -0.2321 -0.6684
16742TIP3   OH271640   4.147   1.002   4.341 -0.0671 -0.3827  0.2199
16742TIP3    H171641   4.079   0.972   4.280 -1.1892 -0.3255  1.4089
16742TIP3    H271642   4.115   1.086   4.374  0.7538 -0.1872  0.5304
16743TIP3   OH271643   0.798   5.806  11.444 -0.5683 -0.0967 -0.4857
16743TIP3    H171644   0.810   5.766  11.530 -1.5757  1.4136  0.4063
16743TIP3    H271645   0.854   5.755  11.385  2.3000  0.4967  1.5498
16744TIP3   OH271646   5.042   5.613  12.288  0.8026  0.3143 -0.1943
16744TIP3    H171647   5.130   5.634  12.259 -0.1113  1.6136 -2.2631
16744TIP3    H271648   5.004   5.564  12.215 -0.2998  0.0479  0.5348
16745TIP3   OH271649   3.027   2.264  14.871  0.2750  0.2682 -0.2623
16745TIP3    H171650   2.935   2.282  14.853  0.0783 -1.0301 -0.6832
16745TIP3    H271651   3.028   2.235  14.962  0.6941  2.9160  0.6592
16746TIP3   OH271652   0.337   0.344   1.968  0.2111  0.1107 -0.4396
16746TIP3    H171653   0.313   0.279   1.901 -1.4015 -0.9689  1.0894
16746TIP3    H271654   0.301   0.426   1.935 -0.1808 -0.3111 -1.0972
16747TIP3   OH271655   0.606   1.610  15.166  0.3789 -0.5955  0.1612
16747TIP3    H171656   0.670   1.633  15.233  0.4756  2.0400 -0.7138
16747TIP3    H271657   0.645   1.642  15.084 -0.9128 -1.2849 -0.7524
16748TIP3   OH271658   3.464   5.163  11.156  0.6253 -0.5805 -0.2816
16748TIP3    H171659   3.420   5.186  11.238 -0.6358  0.2670 -1.1626
16748TIP3    H271660   3.434   5.074  11.137  1.0787 -0.8583  0.2578
16749TIP3   OH271661   6.086   2.923  11.339 -0.0365 -1.1414 -0.2986
16749TIP3    H171662   6.151   2.982  11.376 -0.6876  0.6854 -1.8604
16749TIP3    H271663   6.135   2.845  11.315  0.8617 -1.2810  1.8122
16750TIP3   OH271664   5.251   0.725   6.591 -0.1529 -0.0761  0.3762
16750TIP3    H171665   5.346   0.734   6.599 -0.0977 -0.3269  0.0206
16750TIP3    H271666   5.217   0.760   6.673  0.2281  0.3207  0.3691
16751TIP3   OH271667   1.530   6.136   0.335 -0.2569  0.5567  0.1179
16751TIP3    H171668   1.445   6.132   0.379 -0.5454  2.0358 -0.2499
16751TIP3    H271669   1.537   6.052   0.288 -0.4435 -0.5712  2.0050
16752TIP3   OH271670   6.506   6.439  14.615  0.2092  0.1099 -0.5900
16752TIP3    H171671   6.502   6.394  14.530 -0.3990  1.4938 -1.3304
16752TIP3    H271672   6.599   6.439  14.637  0.3859 -0.2267 -1.2825
16753TIP3   OH271673   3.333   3.944   0.385  0.0736 -0.4110  0.0170
16753TIP3    H171674   3.331   3.986   0.471  1.3126  0.3862 -0.3176
16753TIP3    H271675   3.423   3.912   0.377 -0.3091 -1.3722 -0.5744
16754TIP3   OH271676   2.200   0.350   5.256  0.1827 -0.1754 -0.2344
16754TIP3    H171677   2.175   0.278   5.315 -0.0787 -1.2105 -1.5611
16754TIP3    H271678   2.222   0.422   5.315 -1.9463 -0.5268  1.1089
16755TIP3   OH271679   1.651   4.005   3.384 -0.4922  0.7545 -0.0105
16755TIP3    H171680   1.558   4.012   3.404 -0.8179 -1.4309 -0.5154
16755TIP3    H271681   1.668   4.075   3.321 -1.6619  1.5021  0.4780
16756TIP3   OH271682   0.088   5.037  13.414 -0.0950 -0.6122  0.4854
16756TIP3    H171683   0.023   5.060  13.480 -0.3585  1.4014 -0.4053
16756TIP3    H271684   0.045   4.969  13.361 -1.1857  0.1565  0.3630
16757TIP3   OH271685   5.925   5.010  13.259  0.4045  0.1439 -0.3441
16757TIP3    H171686   5.954   4.969  13.341 -0.1169  0.1383 -0.1624
16757TIP3    H271687   5.908   4.936  13.201 -1.3316  0.0297  0.2436
16758TIP3   OH271688   6.573   6.400  12.781 -0.8059  0.0545 -0.5635
16758TIP3    H171689   6.600   6.475  12.727  1.0161  0.0183  0.2234
16758TIP3    H271690   6.532   6.440  12.857  0.6788  0.3339  0.1316
16759TIP3   OH271691   1.410   5.581  13.105 -0.4494  1.0658 -0.4399
16759TIP3    H171692   1.319   5.551  13.093 -0.6260  0.6252  1.6737
16759TIP3    H271693   1.413   5.666  13.062 -1.6407  0.7224 -1.2447
16760TIP3   OH271694   3.859   6.369   2.560 -0.3868  0.0474  0.7360
16760TIP3    H171695   3.829   6.322   2.638  2.4807 -1.1857  1.2489
16760TIP3    H271696   3.903   6.446   2.595  1.0587 -0.6001  0.4109
16761TIP3   OH271697   0.243   3.519  11.689 -0.0680  0.3485  0.5045
16761TIP3    H171698   0.225   3.592  11.749  0.9726 -1.1539  2.7837
16761TIP3    H271699   0.159   3.474  11.683 -0.5779  1.3781 -0.4767
16762TIP3   OH271700   2.997   2.384  11.149 -0.0328  0.2148  0.1819
16762TIP3    H171701   3.002   2.295  11.184  0.2720 -0.6266 -1.8247
16762TIP3    H271702   2.914   2.418  11.182 -1.2585 -1.6687 -0.7400
16763TIP3   OH271703   5.773   1.750  12.794 -0.1139 -0.7105 -0.3632
16763TIP3    H171704   5.800   1.723  12.882  0.4440 -0.3101 -0.4056
16763TIP3    H271705   5.679   1.735  12.792 -1.0317  3.2223  1.8596
16764TIP3   OH271706   0.573   5.618  12.804 -0.2145 -0.1226 -0.2612
16764TIP3    H171707   0.567   5.551  12.737  0.2957 -0.1210 -0.3121
16764TIP3    H271708   0.648   5.671  12.779 -1.1884  1.0744 -0.7595
16765TIP3   OH271709   5.149   1.064   2.521 -0.4433 -0.3633  0.0001
16765TIP3    H171710   5.233   1.106   2.542  0.5599 -2.0174 -0.4936
16765TIP3    H271711   5.086   1.108   2.578  0.7582  0.8779  0.4515
16766TIP3   OH271712   5.297   3.435  14.800  0.5918  0.2550 -0.3369
16766TIP3    H171713   5.353   3.390  14.863 -0.4512 -0.6832 -0.0403
16766TIP3    H271714   5.213   3.446  14.847  0.6622  2.0856 -0.5793
16767TIP3   OH271715   4.107   0.014   2.498  0.0562  0.0277  0.1288
16767TIP3    H171716   4.187   0.028   2.549 -0.3388 -0.4956  0.9025
16767TIP3    H271717   4.128   0.049   2.411  1.0279  0.1482  0.4017
16768TIP3   OH271718   5.903   3.386   5.084 -0.0568 -0.4701  0.3796
16768TIP3    H171719   5.839   3.371   5.153 -0.7741  1.2718  0.1725
16768TIP3    H271720   5.971   3.321   5.099 -0.5829 -0.6580  2.2213
16769TIP3   OH271721   3.739   5.219  13.375 -0.1250 -0.1907 -0.1513
16769TIP3    H171722   3.832   5.241  13.383 -0.4216  1.1006  0.0449
16769TIP3    H271723   3.697   5.302  13.354 -1.3998 -0.5057  1.0257
16770TIP3   OH271724   4.497   6.173   2.292  0.8530  0.1797 -0.2519
16770TIP3    H171725   4.575   6.208   2.335  1.9730 -0.5516 -1.6275
16770TIP3    H271726   4.425   6.201   2.348  1.9389  2.2716  0.2088
16771TIP3   OH271727   1.695   6.295   1.879  0.2361 -0.1675  0.1740
16771TIP3    H171728   1.601   6.305   1.898  0.1017  0.3567 -0.6989
16771TIP3    H271729   1.702   6.208   1.840  0.1207 -0.2281  0.2880
16772TIP3   OH271730   0.536   2.925  14.350 -0.3233  0.0424  0.0930
16772TIP3    H171731   0.512   2.867  14.422 -1.2251  0.7654  0.3773
16772TIP3    H271732   0.470   2.909  14.283 -0.2106  0.2875 -0.0794
16773TIP3   OH271733   4.516   3.074  12.527  0.7824  0.5959 -0.5979
16773TIP3    H171734   4.587   3.041  12.472  0.9155  0.1461 -0.1683
16773TIP3    H271735   4.454   3.113  12.465  0.4939 -0.7010 -1.1737
16774TIP3   OH271736   0.232   6.752  13.058 -0.4103 -0.7502 -0.2101
16774TIP3    H171737   0.190   6.826  13.016  0.9897  1.4278  1.9885
16774TIP3    H271738   0.308   6.732  13.003 -0.8704 -0.6463 -0.8840
16775TIP3   OH271739   4.584   4.279  11.693  0.1908 -0.1949  0.1365
16775TIP3    H171740   4.664   4.323  11.663  0.9159 -1.9170 -0.5350
16775TIP3    H271741   4.593   4.189  11.664 -0.9433 -0.9936  2.0577
16776TIP3   OH271742   3.019   1.351  15.208  0.0502  0.6484 -0.1782
16776TIP3    H171743   3.061   1.332  15.124  1.0579  1.4753  0.1155
16776TIP3    H271744   3.033   1.445  15.220  0.7258  0.3745  1.3345
16777TIP3   OH271745   4.445   2.132  13.765  0.0311  0.7422  0.8078
16777TIP3    H171746   4.492   2.101  13.842 -1.3891 -1.3758  0.9193
16777TIP3    H271747   4.382   2.195  13.800 -0.0104  0.4573  1.2625
16778TIP3   OH271748   6.490   5.937  14.050  0.3178 -0.3248  0.6721
16778TIP3    H171749   6.582   5.937  14.024  0.0641  1.7090 -0.3728
16778TIP3    H271750   6.483   6.009  14.114 -0.5340 -0.5281  0.8228
16779TIP3   OH271751   3.770   4.120  15.938 -0.2012  0.1117 -0.5859
16779TIP3    H171752   3.806   4.033  15.954  0.6103  0.5873  0.2847
16779TIP3    H271753   3.692   4.125  15.992  0.2321  0.2253  0.0356
16780TIP3   OH271754   4.866   4.947  15.135 -0.0900 -0.0300  0.1153
16780TIP3    H171755   4.909   4.871  15.094  0.2676  0.8531 -1.2029
16780TIP3    H271756   4.774   4.939  15.108 -0.4564 -0.9638  1.5025
16781TIP3   OH271757   1.182   1.071  12.227 -0.3070 -0.1816  0.0372
16781TIP3    H171758   1.240   0.998  12.205 -0.9562 -1.0326  1.0241
16781TIP3    H271759   1.205   1.093  12.317 -1.0733 -0.1202  0.2271
16782TIP3   OH271760   4.285   1.306   5.716 -0.0021 -0.1643 -0.2646
16782TIP3    H171761   4.295   1.399   5.695  0.3502 -0.2361 -0.4235
16782TIP3    H271762   4.238   1.305   5.799  2.1190  0.2209  1.0216
16783TIP3   OH271763   2.196   5.061   4.826  0.3717 -0.5091 -0.2969
16783TIP3    H171764   2.160   4.973   4.815 -0.1116 -0.3762  0.1865
16783TIP3    H271765   2.151   5.113   4.759 -1.1776 -0.1111  0.9716
16784TIP3   OH271766   6.318   2.572  14.272  0.2508 -0.3845 -0.3732
16784TIP3    H171767   6.376   2.524  14.331  0.7828 -1.0597 -1.4076
16784TIP3    H271768   6.241   2.516  14.264 -0.2757  0.2040  0.4893
16785TIP3   OH271769   1.181   3.106  10.796  0.1054 -0.6605  0.3805
16785TIP3    H171770   1.274   3.118  10.777  0.5246 -1.9480  1.4245
16785TIP3    H271771   1.164   3.163  10.871 -0.3320  0.6796 -0.7040
16786TIP3   OH271772   3.502   4.523   1.215  0.6948  0.4348  0.3228
16786TIP3    H171773   3.441   4.500   1.285  1.9767  0.7920  1.5932
16786TIP3    H271774   3.454   4.587   1.162 -0.8152 -0.8987  0.0088
16787TIP3   OH271775   5.129   4.859  12.919 -0.2717 -0.2969  0.4375
16787TIP3    H171776   5.198   4.794  12.904 -0.8270 -0.4415 -1.8253
16787TIP3    H271777   5.051   4.820  12.880 -0.7246  1.4947 -0.5479
16788TIP3   OH271778   5.624   5.269  15.269  0.5355 -0.4857 -0.0790
16788TIP3    H171779   5.700   5.324  15.289 -0.3559  0.1564  1.7688
16788TIP3    H271780   5.564   5.284  15.342 -1.1834 -1.3290 -1.2530
16789TIP3   OH271781   6.386   0.761  12.351  0.2531  0.4098 -0.1023
16789TIP3    H171782   6.426   0.839  12.313 -0.3105  0.3459 -0.8576
16789TIP3    H271783   6.446   0.734  12.420  1.4005  0.4478 -1.0534
16790TIP3   OH271784   5.801   3.226  16.131 -0.3508  0.2306 -0.0985
16790TIP3    H171785   5.763   3.152  16.179 -0.9281 -0.4763 -1.5981
16790TIP3    H271786   5.892   3.230  16.161 -0.5769 -0.4529  0.7140
16791TIP3   OH271787   3.132   0.230  16.063  0.3727 -0.2481 -0.3870
16791TIP3    H171788   3.152   0.147  16.018  2.9172 -0.2685  0.6421
16791TIP3    H271789   3.053   0.211  16.114 -0.1664 -1.4454 -1.5909
16792TIP3   OH271790   3.722   2.262  12.398  0.2039 -0.0738 -0.2905
16792TIP3    H171791   3.732   2.337  12.457  1.9909 -0.5992  0.1236
16792TIP3    H271792   3.779   2.282  12.325  1.5241 -1.4886  0.3180
16793TIP3   OH271793   5.122   3.771  12.034  0.2372  0.2074  0.2827
16793TIP3    H171794   5.090   3.839  12.094  1.5362  0.2222  0.9984
16793TIP3    H271795   5.190   3.815  11.983 -0.0359 -0.1338 -0.3795
16794TIP3   OH271796   3.597   0.792   5.649 -0.1052  0.2532 -0.5766
16794TIP3    H171797   3.531   0.821   5.586 -0.0101 -0.2482 -0.9159
16794TIP3    H271798   3.643   0.872   5.674 -0.9019  0.6246 -0.2586
16795TIP3   OH271799   3.274   5.339  15.811 -0.1544 -0.3454 -0.0499
16795TIP3    H171800   3.255   5.318  15.719 -1.1982  0.0677  0.0551
16795TIP3    H271801   3.234   5.425  15.824 -1.4828 -1.1031  1.2212
16796TIP3   OH271802   5.088   2.962  15.406 -0.8607  0.1474 -0.0234
16796TIP3    H171803   5.001   2.953  15.445 -0.1504  2.3905  2.3486
16796TIP3    H271804   5.073   3.012  15.326 -1.7045  1.5336  0.9398
16797TIP3   OH271805   2.522   1.355   0.414 -0.0420  0.4262 -0.2105
16797TIP3    H171806   2.461   1.378   0.344 -1.5220  0.6168  1.1018
16797TIP3    H271807   2.466   1.330   0.487  1.4176  1.8682  1.4710
16798TIP3   OH271808   1.867   5.800  16.270  0.2555  0.3543 -0.2419
16798TIP3    H171809   1.903   5.746  16.199 -0.5354  0.3350 -0.6354
16798TIP3    H271810   1.790   5.752  16.300  0.9230  0.0631  1.0530
16799TIP3   OH271811   1.362   3.852  14.043 -0.9204  0.0811 -0.5953
16799TIP3    H171812   1.389   3.809  13.962 -1.3836  0.5377 -0.9938
16799TIP3    H271813   1.425   3.820  14.109 -1.1746 -1.1042 -0.9026
16800TIP3   OH271814   6.606   2.349  15.496 -0.3387  0.1227  0.5810
16800TIP3    H171815   6.604   2.432  15.545  3.8630 -0.5340  2.2645
16800TIP3    H271816   6.551   2.290  15.548 -0.3664  0.9002  1.4827
16801TIP3   OH271817   4.990   3.564  15.226 -0.4417 -0.4346  0.0366
16801TIP3    H171818   5.011   3.603  15.140 -2.7269  0.2799 -0.2838
16801TIP3    H271819   4.950   3.636  15.275  1.9294 -0.4936  2.2177
16802TIP3   OH271820   2.572   3.595  14.634 -0.3976 -0.3806  0.4341
16802TIP3    H171821   2.578   3.690  14.633  0.9146 -0.4207 -1.2646
16802TIP3    H271822   2.653   3.566  14.591 -1.8546 -2.1732 -1.2675
16803TIP3   OH271823   2.506   3.819   0.216 -0.7388  0.2118  0.0848
16803TIP3    H171824   2.425   3.846   0.258 -1.2988  0.1766 -0.9380
16803TIP3    H271825   2.489   3.829   0.122  0.3376 -0.0757 -0.1566
16804TIP3   OH271826   6.782   2.639  15.962 -0.0496  0.2500  0.2623
16804TIP3    H171827   6.762   2.631  16.056  0.3423  0.0946  0.3336
16804TIP3    H271828   6.854   2.579  15.948 -0.0969  0.2855 -0.1415
16805TIP3   OH271829   4.489   3.665  16.339  0.5065  0.2317 -0.3310
16805TIP3    H171830   4.569   3.621  16.369  0.6872  0.3053 -0.6980
16805TIP3    H271831   4.422   3.596  16.341  0.3596  0.3892  0.8482
16806TIP3   OH271832   3.430   1.580  13.666 -0.2187 -0.2733  0.1045
16806TIP3    H171833   3.429   1.635  13.587 -0.3331  0.6415  0.7226
16806TIP3    H271834   3.373   1.626  13.728  2.4074  0.8517  1.8858
16807TIP3   OH271835   3.214   4.313  13.961 -0.3923 -0.3037  0.0813
16807TIP3    H171836   3.152   4.382  13.938 -1.0361 -0.6419  0.7658
16807TIP3    H271837   3.283   4.358  14.010 -0.9018 -0.1626  0.6834
16808TIP3   OH271838   2.316   2.725   1.539  0.2169 -0.5834 -0.0472
16808TIP3    H171839   2.287   2.691   1.454 -0.2470  1.6071 -0.8571
16808TIP3    H271840   2.334   2.648   1.591 -1.5866 -2.0435 -1.4353
16809TIP3   OH271841   6.518   6.216  16.525  0.0162  0.2585 -0.1183
16809TIP3    H171842   6.505   6.202  16.619 -0.5582  0.5156 -0.1578
16809TIP3    H271843   6.481   6.302  16.508  0.2629  0.2816 -0.5557
16810TIP3   OH271844   4.724   0.681  13.211 -0.0256  0.1528  0.0258
16810TIP3    H171845   4.724   0.615  13.142  0.5678  0.6254 -0.4404
16810TIP3    H271846   4.807   0.669  13.256 -0.0614  0.3605  0.1495
16811TIP3   OH271847   6.663   6.261  12.527  0.3311  0.7363  0.1051
16811TIP3    H171848   6.732   6.233  12.587 -1.1086  0.0370  1.5007
16811TIP3    H271849   6.585   6.265  12.581 -1.2015 -0.6969 -1.8681
16812TIP3   OH271850   5.041   1.566  13.761 -0.4636  0.4514  0.4212
16812TIP3    H171851   5.068   1.475  13.777 -0.3636  0.6698  1.5626
16812TIP3    H271852   4.968   1.558  13.699  0.4462 -0.3119 -0.5979
16813TIP3   OH271853   0.720   1.622  14.922 -0.3481 -0.1697 -0.3319
16813TIP3    H171854   0.792   1.644  14.863  0.1415  2.2255  0.9987
16813TIP3    H271855   0.655   1.579  14.867 -0.2960  2.6340 -2.8253
16814TIP3   OH271856   6.177   6.198   3.200 -0.2042  0.0804 -0.1309
16814TIP3    H171857   6.227   6.279   3.202 -0.0774  0.0015  1.6070
16814TIP3    H271858   6.236   6.133   3.238 -0.7640 -0.5383 -0.3042
16815TIP3   OH271859   5.124   4.748  11.439 -0.5146  0.0135 -0.7140
16815TIP3    H171860   5.160   4.660  11.432 -1.8858 -0.6821  0.3626
16815TIP3    H271861   5.177   4.791  11.506  0.4520  0.1858 -1.5693
16816TIP3   OH271862   5.333   2.699   5.271 -0.0347  0.0112 -0.2039
16816TIP3    H171863   5.321   2.771   5.333 -1.0785  0.3887 -0.8319
16816TIP3    H271864   5.349   2.623   5.326 -0.2930  0.4655  0.5106
16817TIP3   OH271865   5.600   3.963   0.744 -0.2652 -0.1143  0.8256
16817TIP3    H171866   5.682   4.002   0.713 -1.4599  1.2130 -0.8567
16817TIP3    H271867   5.616   3.944   0.836  2.7301 -2.1482  0.0298
16818TIP3   OH271868   2.278   5.236   1.042 -0.1362  0.5342  0.3280
16818TIP3    H171869   2.261   5.272   1.129 -0.3979 -1.7367  1.2654
16818TIP3    H271870   2.348   5.292   1.007  0.9085  0.7024  2.5290
16819TIP3   OH271871   2.864   0.045  16.102  0.3221  0.0897  0.8166
16819TIP3    H171872   2.842   0.068  16.012  1.1850 -0.0437  0.5630
16819TIP3    H271873   2.852   0.126  16.152  0.5532  0.3520  0.4466
16820TIP3   OH271874   4.589   0.101  13.295 -0.1410 -0.6587 -0.2377
16820TIP3    H171875   4.660   0.159  13.266 -0.8219 -0.3717 -1.3849
16820TIP3    H271876   4.582   0.035  13.225 -1.1811 -0.5182 -0.2767
16821TIP3   OH271877   3.841   4.970  15.846  0.4658 -0.0090  0.4254
16821TIP3    H171878   3.898   4.997  15.918  1.7585  2.1697 -1.3213
16821TIP3    H271879   3.894   4.979  15.768 -2.2192  2.2940 -1.3465
16822TIP3   OH271880   5.922   4.040  10.814 -0.5946  0.0996 -0.3240
16822TIP3    H171881   5.865   4.012  10.743 -0.1105 -0.2664 -0.5674
16822TIP3    H271882   5.985   4.100  10.772  0.4019 -0.9997 -0.4332
16823TIP3   OH271883   5.227   4.562  11.067  0.2922 -0.0609 -0.4489
16823TIP3    H171884   5.197   4.490  11.123  1.2480 -0.8053 -0.8451
16823TIP3    H271885   5.208   4.532  10.978 -0.6681  0.8466 -0.5637
16824TIP3   OH271886   2.384   2.286  14.967  0.0386  0.0416 -0.0117
16824TIP3    H171887   2.435   2.256  15.043  0.8879 -0.3301 -0.7015
16824TIP3    H271888   2.441   2.268  14.892 -0.4392  1.1754 -0.6683
16825TIP3   OH271889   3.985   6.296   3.917  0.4689 -0.3207  0.3059
16825TIP3    H171890   3.945   6.257   3.839  1.5300 -1.4606  0.3018
16825TIP3    H271891   3.947   6.248   3.990  2.0748 -1.7124  0.2822
16826TIP3   OH271892   6.507   0.962   6.031  0.3577 -0.4248  0.1164
16826TIP3    H171893   6.557   0.903   6.087  0.1452 -0.3783  0.3610
16826TIP3    H271894   6.502   1.044   6.081  0.7784 -0.1542 -0.2889
16827TIP3   OH271895   5.041   5.161  14.612 -0.0946  0.0043 -0.7540
16827TIP3    H171896   4.979   5.111  14.665  0.3288 -1.0546 -1.2173
16827TIP3    H271897   5.102   5.199  14.676 -0.6287  0.2237 -0.3707
16828TIP3   OH271898   0.972   6.060   0.262 -0.1451 -0.0456 -0.4865
16828TIP3    H171899   0.912   6.024   0.327 -0.2422 -0.1721 -0.6454
16828TIP3    H271900   1.055   6.016   0.279 -0.2580 -0.3356 -0.6673
16829TIP3   OH271901   2.179   3.946   1.984 -0.6774 -0.3626 -0.1749
16829TIP3    H171902   2.259   3.896   1.965  0.0919  1.4369 -2.0327
16829TIP3    H271903   2.211   4.034   2.003 -2.2627  0.8155 -2.6070
16830TIP3   OH271904   1.259   5.791   0.799  0.1428  0.4080 -0.3024
16830TIP3    H171905   1.198   5.801   0.872  1.3332  1.5517  0.5780
16830TIP3    H271906   1.315   5.717   0.824  0.7854  1.0321  0.1364
16831TIP3   OH271907   6.096   1.434   5.412  0.0460  0.2870  0.3457
16831TIP3    H171908   6.047   1.499   5.462 -0.4160  0.1183  0.1212
16831TIP3    H271909   6.184   1.436   5.449 -0.5876 -0.7319  2.0278
16832TIP3   OH271910   2.528   2.145  13.930  0.2609  0.0069  0.5021
16832TIP3    H171911   2.483   2.227  13.910 -0.0499 -0.6550 -1.8220
16832TIP3    H271912   2.473   2.103  13.997 -0.7252  0.7426  0.1749
16833TIP3   OH271913   4.851   4.112   5.793 -0.0753  0.3111 -0.3539
16833TIP3    H171914   4.778   4.073   5.840 -0.4267 -0.9541 -1.8833
16833TIP3    H271915   4.929   4.085   5.842 -0.4870 -0.0803  0.0911
16834TIP3   OH271916   5.387   5.550  15.851 -0.3057 -0.0571  0.0702
16834TIP3    H171917   5.417   5.582  15.936  0.1443 -0.0945 -0.0708
16834TIP3    H271918   5.459   5.569  15.792 -0.8617  0.5088 -0.4278
16835TIP3   OH271919   2.265   1.416   2.744 -0.5033 -0.0185  0.2453
16835TIP3    H171920   2.203   1.489   2.741 -1.1426 -0.4164  2.3095
16835TIP3    H271921   2.341   1.450   2.791 -0.7785 -0.6453  1.1593
16836TIP3   OH271922   1.614   5.327  16.556  0.4714 -0.5001 -0.5121
16836TIP3    H171923   1.659   5.399  16.512 -0.0731 -0.0562 -0.3498
16836TIP3    H271924   1.521   5.345  16.543  0.3053 -0.5197  0.5618
16837TIP3   OH271925   2.633   1.967   1.363  0.3912 -0.4778 -0.0707
16837TIP3    H171926   2.538   1.974   1.364  0.3183 -1.1268  1.5454
16837TIP3    H271927   2.651   1.889   1.417  1.8645  0.1899  0.4417
16838TIP3   OH271928   0.931   6.754   1.950  0.1742  0.8066 -0.1970
16838TIP3    H171929   0.871   6.790   2.015  1.9915  1.2390  1.3060
16838TIP3    H271930   0.910   6.801   1.869 -3.3429 -0.9541 -0.5418
16839TIP3   OH271931   0.497   0.594   4.151  0.1983  0.5882  0.3462
16839TIP3    H171932   0.507   0.639   4.235  0.2126  1.8954 -0.3302
16839TIP3    H271933   0.440   0.650   4.100  0.9978  0.3385 -0.8824
16840TIP3   OH271934   1.618   0.582  12.312  0.3938 -0.0396  0.1365
16840TIP3    H171935   1.567   0.612  12.387 -2.5331  0.1950 -1.7682
16840TIP3    H271936   1.556   0.530  12.260  2.8244 -1.8330 -1.1870
16841TIP3   OH271937   6.515   4.657   4.308  0.2638  0.3515 -0.4042
16841TIP3    H171938   6.611   4.657   4.305  0.3457 -2.1379  0.1685
16841TIP3    H271939   6.489   4.620   4.224 -0.1687  0.3848 -0.2847
16842TIP3   OH271940   3.156   3.372   3.278 -0.1458 -0.4496  0.3798
16842TIP3    H171941   3.092   3.307   3.309  0.6105 -0.8057  1.2461
16842TIP3    H271942   3.124   3.397   3.192 -1.8433 -0.1133  1.0494
16843TIP3   OH271943   2.299   2.403   0.107 -0.0052 -0.3122 -0.3417
16843TIP3    H171944   2.319   2.491   0.075  0.2400 -0.0966  0.3970
16843TIP3    H271945   2.203   2.402   0.114 -0.1680 -0.7261 -2.0855
16844TIP3   OH271946   5.882   5.577   6.585  0.7613 -0.5419 -0.3095
16844TIP3    H171947   5.808   5.633   6.561  0.9874 -1.0116 -2.2060
16844TIP3    H271948   5.933   5.630   6.647 -1.1329 -0.2094  1.0391
16845TIP3   OH271949   2.682   3.119   5.224  0.2090  0.2617  0.0115
16845TIP3    H171950   2.752   3.059   5.247  0.3449  0.5294  0.2974
16845TIP3    H271951   2.602   3.077   5.256  0.1935 -0.2096 -0.6256
16846TIP3   OH271952   4.283   3.173  15.362  0.5596  0.1040  0.0220
16846TIP3    H171953   4.372   3.198  15.338  0.4454 -0.6514 -1.2605
16846TIP3    H271954   4.228   3.205  15.291 -0.1718  0.3566  0.6865
16847TIP3   OH271955   5.803   6.708  16.208 -0.1707  0.3034  0.1298
16847TIP3    H171956   5.820   6.649  16.134 -0.2501 -0.0516  0.3909
16847TIP3    H271957   5.847   6.790  16.185  0.5215 -0.0816  0.0739
16848TIP3   OH271958   0.825   4.880  12.699  0.1200  0.1209  0.6635
16848TIP3    H171959   0.790   4.817  12.763 -3.2502  0.7411 -0.3791
16848TIP3    H271960   0.836   4.961  12.749 -0.7814  0.1311  0.8618
16849TIP3   OH271961   0.104   0.697  15.634  0.2547  0.2089 -0.0259
16849TIP3    H171962   0.169   0.676  15.701 -1.1124 -4.4443  0.1596
16849TIP3    H271963   0.020   0.693  15.679 -0.5613 -0.7951 -1.5341
16850TIP3   OH271964   3.057   4.807   5.373 -0.4384  0.1082 -0.0804
16850TIP3    H171965   2.981   4.749   5.377  0.0514 -0.4979  0.7936
16850TIP3    H271966   3.069   4.837   5.463 -0.9441  1.9514 -0.5850
16851TIP3   OH271967   4.285   4.789  11.144 -0.4216  0.4960  0.4046
16851TIP3    H171968   4.316   4.879  11.135  0.5182  0.1636  0.1270
16851TIP3    H271969   4.327   4.757  11.224 -1.0622  0.4190  0.7177
16852TIP3   OH271970   4.538   1.644   5.160 -0.1418 -0.5415  0.4469
16852TIP3    H171971   4.551   1.678   5.249  2.7314 -2.4796  0.9098
16852TIP3    H271972   4.561   1.717   5.103  1.7663 -0.3636  1.3705
16853TIP3   OH271973   0.441   2.373   1.394  0.2720 -0.1450 -0.2834
16853TIP3    H171974   0.346   2.383   1.389  0.0699  0.8698  2.9869
16853TIP3    H271975   0.454   2.279   1.406  0.1708 -1.0009 -5.0206
16854TIP3   OH271976   0.510   1.088   3.235 -0.2995  0.3034 -1.0329
16854TIP3    H171977   0.589   1.052   3.194  0.3142  1.8187 -1.2590
16854TIP3    H271978   0.442   1.025   3.214  0.9631 -1.3888 -0.2645
16855TIP3   OH271979   2.927   6.265  14.691  0.2630  0.0924  0.1362
16855TIP3    H171980   2.971   6.286  14.774  0.9889 -0.8834  0.0288
16855TIP3    H271981   2.980   6.308  14.625 -0.1032  0.5676  0.1537
16856TIP3   OH271982   5.028   6.455  11.068 -0.2518  0.7013 -0.3747
16856TIP3    H171983   5.030   6.509  10.988  0.7554  1.9429  0.4536
16856TIP3    H271984   5.046   6.366  11.037  0.0308  1.1451 -1.5473
16857TIP3   OH271985   2.889   5.394  11.806  0.0198  0.1009  0.1979
16857TIP3    H171986   2.873   5.485  11.781  0.4709  0.6991  1.8971
16857TIP3    H271987   2.836   5.343  11.745 -1.7546  1.5905  0.3795
16858TIP3   OH271988   3.710   5.476   5.038  0.2529 -0.3968  0.1510
16858TIP3    H171989   3.618   5.454   5.020 -0.0157  2.3644 -2.7973
16858TIP3    H271990   3.712   5.495   5.131 -1.6865 -2.4145  0.6834
16859TIP3   OH271991   0.704   1.537  16.446  0.2975  0.4246 -0.0038
16859TIP3    H171992   0.715   1.622  16.403  0.2550  0.3661 -0.1310
16859TIP3    H271993   0.741   1.549  16.533  2.6786 -0.1827 -0.8714
16860TIP3   OH271994   5.220   2.118   0.249  0.1245 -0.1896 -0.0844
16860TIP3    H171995   5.193   2.054   0.183 -0.2761 -0.1248  0.0146
16860TIP3    H271996   5.255   2.191   0.198  0.1033 -0.2694 -0.2143
16861TIP3   OH271997   6.597   1.805  12.544  1.0576 -0.2339 -0.2190
16861TIP3    H171998   6.557   1.719  12.555  0.2321  0.1027 -0.5596
16861TIP3    H271999   6.671   1.789  12.485  2.0477 -1.0271  1.1876
16862TIP3   OH272000   6.370   0.292  14.874  0.5244 -0.0887  0.0170
16862TIP3    H172001   6.349   0.242  14.795 -1.1941  0.7665 -0.1137
16862TIP3    H272002   6.347   0.235  14.946  0.4204 -0.2138 -0.1155
16863TIP3   OH272003   2.619   1.370  13.878 -0.5471  0.8673 -0.1839
16863TIP3    H172004   2.571   1.332  13.952 -0.6162  1.6302  0.1711
16863TIP3    H272005   2.625   1.298  13.815  1.9722 -0.7243  1.6644
16864TIP3   OH272006   0.545   1.102  13.528  0.4180  0.4895 -0.0192
16864TIP3    H172007   0.598   1.023  13.543  0.9221  0.7766 -0.2578
16864TIP3    H272008   0.507   1.121  13.614  1.3493  0.7286  0.3570
16865TIP3   OH272009   3.171   0.275   2.717 -0.0293  0.1414  0.2630
16865TIP3    H172010   3.123   0.333   2.656 -1.9762 -1.9614 -0.3631
16865TIP3    H272011   3.176   0.191   2.671  1.0498 -0.7302  1.8715
16866TIP3   OH272012   4.866   5.874  14.814  0.4867  0.1839 -0.6673
16866TIP3    H172013   4.833   5.956  14.778 -2.1910  0.9029  2.9410
16866TIP3    H272014   4.948   5.898  14.858  1.5565  0.0959 -2.4848
16867TIP3   OH272015   3.479   4.536   2.259  0.0653 -0.0298 -0.0617
16867TIP3    H172016   3.464   4.520   2.166  1.7503  1.4596 -0.6552
16867TIP3    H272017   3.461   4.629   2.271 -0.9917 -0.3852  1.3202
16868TIP3   OH272018   0.669   5.925   6.395  0.3998 -0.3006  0.1534
16868TIP3    H172019   0.706   6.004   6.435  0.5197 -0.8512  1.1832
16868TIP3    H272020   0.576   5.942   6.389  0.6462  0.6632 -1.4331
16869TIP3   OH272021   6.221   2.094   4.610  0.4236 -0.1745  0.0765
16869TIP3    H172022   6.138   2.114   4.652  1.3007  1.5693  1.1110
16869TIP3    H272023   6.275   2.057   4.681  1.4854  1.5549  0.2358
16870TIP3   OH272024   6.794   3.240  14.140  0.4787  0.5237 -0.5925
16870TIP3    H172025   6.741   3.162  14.124  0.7348 -0.1968  1.7281
16870TIP3    H272026   6.836   3.224  14.224  1.8276  2.4874 -0.8247
16871TIP3   OH272027   1.063   1.307  12.901 -0.2301 -0.4191  0.4034
16871TIP3    H172028   1.105   1.347  12.977  1.0517  0.7176 -0.8236
16871TIP3    H272029   1.137   1.280  12.845 -1.1089 -0.3226 -0.8593
16872TIP3   OH272030   6.209   4.152  16.269  0.0930 -0.5742 -0.2835
16872TIP3    H172031   6.284   4.098  16.241  0.2329  0.1148 -1.2816
16872TIP3    H272032   6.161   4.170  16.189 -2.2771 -2.5923  0.5484
16873TIP3   OH272033   5.673   3.398  13.319  0.0644  0.0065 -0.1441
16873TIP3    H172034   5.604   3.432  13.376  0.6977 -1.2305  1.4675
16873TIP3    H272035   5.694   3.470  13.260 -1.4280  0.9588  0.4241
16874TIP3   OH272036   3.174   6.737   3.798 -0.2780  0.2091  0.0416
16874TIP3    H172037   3.253   6.768   3.755  0.4790 -2.7145 -0.9112
16874TIP3    H272038   3.152   6.655   3.753 -2.0930 -0.6384  2.2374
16875TIP3   OH272039   2.487   0.407   5.073  0.5048  0.1941 -0.2241
16875TIP3    H172040   2.451   0.319   5.058 -2.2114  1.0420  0.6870
16875TIP3    H272041   2.471   0.454   4.991  0.4755  0.2803 -0.1694
16876TIP3   OH272042   0.876   4.568   0.835  0.4284  0.2170  0.4234
16876TIP3    H172043   0.795   4.611   0.862  0.2517  0.3665 -0.3300
16876TIP3    H272044   0.877   4.485   0.882 -0.0829  0.2882  0.5590
16877TIP3   OH272045   5.575   4.030  11.695  0.0146 -0.5200  0.1449
16877TIP3    H172046   5.578   3.943  11.656 -0.6165 -0.1570 -0.7347
16877TIP3    H272047   5.652   4.033  11.752 -0.0755 -1.7290  0.3757
16878TIP3   OH272048   3.168   4.546   3.410 -0.3254  0.0718 -0.1240
16878TIP3    H172049   3.087   4.508   3.442 -0.6607  0.4312 -0.5280
16878TIP3    H272050   3.207   4.589   3.486  0.4010 -1.6073  0.5083
16879TIP3   OH272051   3.530   5.961  17.074 -0.1361 -0.8521 -0.2411
16879TIP3    H172052   3.441   5.926  17.067 -0.4620  0.1458 -1.4462
16879TIP3    H272053   3.541   5.980  17.167 -0.7030 -2.1560  0.1243
16880TIP3   OH272054   5.151   2.282   3.357 -0.2189 -0.7610  0.0709
16880TIP3    H172055   5.066   2.249   3.386 -1.0518  2.2758  1.4676
16880TIP3    H272056   5.176   2.346   3.423  1.4773  0.9933 -2.0979
16881TIP3   OH272057   1.402   5.033  16.563  0.1485  0.5565 -0.3551
16881TIP3    H172058   1.451   4.959  16.526  0.3957  0.3248  0.4162
16881TIP3    H272059   1.429   5.108  16.509 -0.6452 -0.0124 -1.6044
16882TIP3   OH272060   0.843   3.678  11.872  0.2852  0.2898  0.2988
16882TIP3    H172061   0.758   3.658  11.913  0.5765 -0.7769  0.4165
16882TIP3    H272062   0.848   3.616  11.799  1.1703  0.0230  0.5806
16883TIP3   OH272063   0.780   6.820   1.501  0.2082 -0.3937  0.2713
16883TIP3    H172064   0.829   6.752   1.455  0.5271 -0.8193  1.2100
16883TIP3    H272065   0.688   6.800   1.483  0.2956 -1.1269  0.5892
16884TIP3   OH272066   2.204   0.363  16.835  0.3085  0.7464 -0.2335
16884TIP3    H172067   2.113   0.358  16.805  0.4235 -3.0163 -0.3865
16884TIP3    H272068   2.197   0.401  16.923 -1.7928 -1.4373  0.6754
16885TIP3   OH272069   3.500   3.721  16.370  0.0050 -0.0671 -0.8178
16885TIP3    H172070   3.516   3.733  16.464 -0.3306 -1.1208 -0.6119
16885TIP3    H272071   3.575   3.671  16.340 -0.6863 -1.1722 -0.7580
16886TIP3   OH272072   6.272   2.636  16.423 -0.5279 -0.6278  0.4685
16886TIP3    H172073   6.346   2.588  16.387 -1.5613 -0.4755 -2.1668
16886TIP3    H272074   6.199   2.573  16.421 -1.2237  0.1621 -0.2931
16887TIP3   OH272075   2.021   4.102   2.835  0.0720 -0.0180  0.0125
16887TIP3    H172076   1.937   4.076   2.872  0.5818 -0.9933  0.5123
16887TIP3    H272077   2.077   4.026   2.846  1.5314  1.1772  1.2278
16888TIP3   OH272078   1.342   4.183  12.500 -0.0264  0.2297  0.4459
16888TIP3    H172079   1.347   4.260  12.557 -0.2385  1.5239 -1.2021
16888TIP3    H272080   1.267   4.201  12.444  0.3098 -0.9017 -0.3797
16889TIP3   OH272081   4.009   4.760  15.445  0.0039  0.5765 -0.0615
16889TIP3    H172082   4.015   4.666  15.429 -2.0626  0.2493  0.7400
16889TIP3    H272083   4.042   4.800  15.364  1.7478 -0.7762 -0.0918
16890TIP3   OH272084   3.074   5.709  14.901 -0.2187  0.5352 -0.2622
16890TIP3    H172085   3.009   5.778  14.892 -0.9864  0.2220  2.0322
16890TIP3    H272086   3.080   5.670  14.814 -1.1640  2.2448 -1.1465
16891TIP3   OH272087   2.219   5.764  15.665 -0.0102 -0.6619  0.2330
16891TIP3    H172088   2.172   5.810  15.595  1.4268 -0.0073 -0.3346
16891TIP3    H272089   2.165   5.778  15.743 -1.3194 -0.8811 -0.6056
16892TIP3   OH272090   0.275   2.612   5.667 -0.4140  0.7301 -0.5919
16892TIP3    H172091   0.245   2.678   5.730  0.0346  1.4192 -1.0784
16892TIP3    H272092   0.208   2.613   5.599 -1.4298 -0.7431  0.3359
16893TIP3   OH272093   6.642   3.690  16.661  0.2407  0.4053  0.5179
16893TIP3    H172094   6.587   3.735  16.597  0.4026 -0.4719 -0.2596
16893TIP3    H272095   6.666   3.608  16.619  2.1284  0.7529  0.8541
16894TIP3   OH272096   3.038   1.202  13.515 -0.7324 -0.1319  0.5992
16894TIP3    H172097   2.968   1.252  13.473  0.2239  1.2820  0.6201
16894TIP3    H272098   3.097   1.269  13.551  1.2047 -1.2428 -0.3584
16895TIP3   OH272099   0.234   0.269   3.268  0.3279 -0.2685  0.0750
16895TIP3    H172100   0.288   0.311   3.335 -0.4841  0.5765  0.2311
16895TIP3    H272101   0.152   0.248   3.312  0.5175 -1.5691 -0.1503
16896TIP3   OH272102   2.479   1.009   0.848 -0.0666 -0.3573 -0.4775
16896TIP3    H172103   2.447   1.058   0.772 -2.6651  2.0033  1.8955
16896TIP3    H272104   2.531   1.073   0.897  2.1162 -2.0279 -0.4548
16897TIP3   OH272105   1.222   2.260  14.931 -0.5732 -0.0390 -0.0041
16897TIP3    H172106   1.219   2.234  14.838  1.8778  1.4019 -0.5695
16897TIP3    H272107   1.233   2.355  14.929  3.8828 -0.3102  1.5250
16898TIP3   OH272108   2.579   4.463   4.928 -0.1875  0.1273  0.1138
16898TIP3    H172109   2.617   4.496   4.846 -0.2341 -1.0360 -0.4011
16898TIP3    H272110   2.498   4.514   4.939 -2.4336 -2.4252 -2.8240
16899TIP3   OH272111   0.100   2.360   5.214  0.2031  0.2413  0.3294
16899TIP3    H172112   0.108   2.328   5.303  0.8821 -0.5060  0.0073
16899TIP3    H272113   0.156   2.437   5.211  1.4227 -0.6321  0.1392
16900TIP3   OH272114   0.840   0.729   4.583  0.0562  0.2027 -0.6364
16900TIP3    H172115   0.828   0.824   4.576 -0.5360  0.1409 -0.4884
16900TIP3    H272116   0.863   0.701   4.495 -0.8040  0.3407 -0.9076
16901TIP3   OH272117   3.636   5.278   4.280  0.0046 -0.0670 -0.3399
16901TIP3    H172118   3.647   5.205   4.340 -0.2246 -1.4627 -1.8956
16901TIP3    H272119   3.674   5.247   4.197 -1.8724  0.7655 -1.6012
16902TIP3   OH272120   0.374   4.378   0.907  0.6901  0.2874  0.7239
16902TIP3    H172121   0.308   4.447   0.894  0.3850 -0.2116 -0.5555
16902TIP3    H272122   0.333   4.299   0.870  1.5658 -0.2779  0.9389
16903TIP3   OH272123   2.931   1.913  12.898 -0.0383 -0.2405  0.0889
16903TIP3    H172124   2.867   1.853  12.860  1.9715 -2.5878  0.2115
16903TIP3    H272125   2.944   1.980  12.830 -0.2812 -1.4991 -1.2397
16904TIP3   OH272126   0.997   3.505  17.092 -0.3438 -0.1062 -0.0843
16904TIP3    H172127   0.948   3.572  17.140 -0.1124 -0.5279  0.7603
16904TIP3    H272128   1.088   3.519  17.119 -0.5213 -2.0314  1.7023
16905TIP3   OH272129   2.867   4.248  15.222  0.5554 -0.0129  0.5203
16905TIP3    H172130   2.875   4.194  15.143  0.9067  0.7755  0.0107
16905TIP3    H272131   2.957   4.271  15.243  0.4501 -0.1028  1.0812
16906TIP3   OH272132   5.978   0.341  11.826 -0.6254 -0.4216 -0.4642
16906TIP3    H172133   5.895   0.353  11.871  0.8056 -0.8886  2.5482
16906TIP3    H272134   6.032   0.415  11.854  0.4553 -0.9080 -1.1668
16907TIP3   OH272135   2.896   1.863  14.286 -0.6455  0.0780 -0.0773
16907TIP3    H172136   2.902   1.958  14.292 -0.3258  0.0871 -0.4410
16907TIP3    H272137   2.825   1.839  14.345 -1.4430  0.6424 -0.7760
16908TIP3   OH272138   4.646   6.058  14.121  0.0691 -0.0142 -0.4594
16908TIP3    H172139   4.570   6.115  14.107  1.6232  2.0764 -0.9794
16908TIP3    H272140   4.658   6.013  14.038  1.0951  1.9128 -1.4227
16909TIP3   OH272141   0.670   1.186  10.213 -0.7488 -0.2009 -0.2066
16909TIP3    H172142   0.707   1.099  10.231 -1.6841 -0.9424 -1.6962
16909TIP3    H272143   0.741   1.233  10.170 -0.9798 -1.0691 -1.5883
16910TIP3   OH272144   3.162   0.226  13.004 -0.0148  0.4981 -0.3857
16910TIP3    H172145   3.113   0.155  12.964 -0.1710 -0.3631  1.2498
16910TIP3    H272146   3.214   0.263  12.933  0.1908 -1.3682 -1.2504
16911TIP3   OH272147   2.002   1.895  15.487  0.6301 -0.4011 -0.5665
16911TIP3    H172148   1.930   1.849  15.530  1.1166  1.7581  2.8759
16911TIP3    H272149   1.962   1.933  15.409 -1.6781 -0.2682  0.5810
16912TIP3   OH272150   5.198   5.421   1.955 -0.8382  0.3982 -0.2671
16912TIP3    H172151   5.250   5.486   1.906  0.5633 -0.5282 -0.0555
16912TIP3    H272152   5.141   5.474   2.011  0.7419  1.4810  0.3965
16913TIP3   OH272153   1.513   3.723  13.842 -0.4518  0.9731  0.3046
16913TIP3    H172154   1.465   3.700  13.763  0.1677 -2.8623  0.8588
16913TIP3    H272155   1.605   3.719  13.817 -0.2282 -0.7684  1.2331
16914TIP3   OH272156   1.261   5.243  11.688  0.3165  0.0732  0.4332
16914TIP3    H172157   1.201   5.171  11.671 -0.0917  0.5987 -0.4436
16914TIP3    H272158   1.336   5.202  11.731  0.4084 -1.0014 -0.6709
16915TIP3   OH272159   2.716   2.587  14.431  0.1393 -0.2360  0.5506
16915TIP3    H172160   2.797   2.547  14.461  1.4209  1.6073 -0.2913
16915TIP3    H272161   2.719   2.676  14.465 -1.3140  0.0191  0.0910
16916TIP3   OH272162   1.154   5.856  12.049  0.2639  0.0134 -0.5218
16916TIP3    H172163   1.236   5.821  12.015  0.2424 -1.0441  0.4427
16916TIP3    H272164   1.180   5.911  12.122  0.0644 -1.9550  1.1273
16917TIP3   OH272165   2.565   1.820   2.107  0.5852 -0.2627  0.1346
16917TIP3    H172166   2.558   1.859   2.020  0.6455 -1.4290 -0.4157
16917TIP3    H272167   2.586   1.893   2.165  0.5835  0.5234 -0.8366
16918TIP3   OH272168   4.672   4.241  12.942  0.4653 -0.5883 -0.0604
16918TIP3    H172169   4.628   4.179  12.883  0.5690  0.8919 -1.7923
16918TIP3    H272170   4.762   4.243  12.910  0.6251 -0.0791  0.4235
16919TIP3   OH272171   3.790   6.725   4.054 -0.1435 -0.2064 -0.4144
16919TIP3    H172172   3.830   6.812   4.065  0.9736 -0.7686  0.2348
16919TIP3    H272173   3.820   6.676   4.131 -2.0692 -0.7058  0.0701
16920TIP3   OH272174   3.780   2.465   3.624  0.1486 -0.0465  0.0877
16920TIP3    H172175   3.812   2.504   3.706 -0.6374 -1.7134  1.2580
16920TIP3    H272176   3.857   2.422   3.586  0.5636  0.9093 -0.1685
16921TIP3   OH272177   5.265   4.231   5.277 -0.2919  0.6877  0.1966
16921TIP3    H172178   5.307   4.235   5.191  0.0501  0.4793  0.3504
16921TIP3    H272179   5.211   4.153   5.274  2.1333 -1.1626  1.2229
16922TIP3   OH272180   1.970   6.044  14.695  0.8717  0.0578 -0.3340
16922TIP3    H172181   1.958   5.965  14.747 -0.1934  0.3797 -0.0780
16922TIP3    H272182   2.063   6.042  14.671  1.6148  0.2918  2.2088
16923TIP3   OH272183   6.512   5.552  15.561  0.0202 -0.2608 -0.2440
16923TIP3    H172184   6.566   5.511  15.493 -0.9795  1.3360 -2.1431
16923TIP3    H272185   6.570   5.617  15.601  0.1369 -0.0186 -0.7907
16924TIP3   OH272186   3.086   0.524   1.071 -0.5309  0.6550  0.4267
16924TIP3    H172187   2.999   0.544   1.035  0.2489  2.3124 -0.6336
16924TIP3    H272188   3.127   0.469   1.004 -0.7131 -0.0792  0.9026
16925TIP3   OH272189   6.230   5.433  12.344  0.4082  0.3507  0.1396
16925TIP3    H172190   6.214   5.489  12.267  3.3971  0.7429 -0.3424
16925TIP3    H272191   6.220   5.344  12.311  1.5255  0.5157 -0.7417
16926TIP3   OH272192   3.040   6.234   2.411  0.4611  0.4504  0.1704
16926TIP3    H172193   2.964   6.273   2.367 -0.4333 -0.7305  0.6134
16926TIP3    H272194   3.008   6.213   2.499  1.3061 -0.0572  0.3674
16927TIP3   OH272195   4.349   3.198  12.317  0.1940  0.4405  0.6327
16927TIP3    H172196   4.409   3.206  12.243 -0.5033  0.3462  0.0428
16927TIP3    H272197   4.317   3.287  12.332  0.0691  0.4028  0.5935
16928TIP3   OH272198   4.703   6.652  11.713  0.0610 -0.9335  0.8361
16928TIP3    H172199   4.652   6.611  11.783  0.8751 -1.1949  1.2877
16928TIP3    H272200   4.729   6.737  11.748  0.3551 -1.0076  0.8040
16929TIP3   OH272201   0.512   4.752   3.097  0.0740  0.1418 -0.5926
16929TIP3    H172202   0.585   4.783   3.044  0.2628  1.7112  0.4937
16929TIP3    H272203   0.549   4.743   3.185 -1.0205  1.0021 -0.0180
16930TIP3   OH272204   1.289   3.019   4.606 -0.0502 -0.3474 -0.2011
16930TIP3    H172205   1.350   2.950   4.579 -1.8959 -1.8558 -0.6860
16930TIP3    H272206   1.282   3.008   4.701  1.9305  1.1696  0.1886
16931TIP3   OH272207   3.260   3.831  13.624 -0.5369 -0.2944 -0.3309
16931TIP3    H172208   3.256   3.788  13.709 -0.3651 -1.4794 -0.9033
16931TIP3    H272209   3.353   3.839  13.605 -0.5238 -2.6559 -1.6491
16932TIP3   OH272210   0.787   0.482  13.832  0.1732  0.3365  0.7997
16932TIP3    H172211   0.855   0.534  13.789 -0.8044  0.0129 -1.2812
16932TIP3    H272212   0.806   0.392  13.807  0.2010 -0.0129  2.0044
16933TIP3   OH272213   5.458   3.851   0.419  0.3485 -0.3057 -0.8442
16933TIP3    H172214   5.499   3.825   0.337  0.1148 -0.6845 -0.8445
16933TIP3    H272215   5.480   3.944   0.429  2.6854 -0.8820  0.0166
16934TIP3   OH272216   0.014   6.182   2.795 -0.4762 -0.3940 -0.3566
16934TIP3    H172217   0.055   6.137   2.868 -1.7461 -0.9395  0.0407
16934TIP3    H272218   0.088   6.212   2.741  0.4991  0.3226  1.2954
16935TIP3   OH272219   5.224   3.052   0.050  0.3645  0.1685  0.6156
16935TIP3    H172220   5.254   3.001   0.125  1.1263 -1.1099 -0.5191
16935TIP3    H272221   5.296   3.046  -0.014 -0.8836 -0.0792 -0.8188
16936TIP3   OH272222   1.203   5.445  16.865  0.2151  0.4670  0.1936
16936TIP3    H172223   1.196   5.496  16.784  0.9305  0.2881  0.0151
16936TIP3    H272224   1.288   5.469  16.902  1.4455 -1.9708 -0.8594
16937TIP3   OH272225   6.243   2.422  15.610 -0.3660 -0.2919 -0.5719
16937TIP3    H172226   6.248   2.517  15.602  0.3041 -0.4840 -3.7596
16937TIP3    H272227   6.254   2.405  15.703  0.8868  2.6691 -0.0778
16938TIP3   OH272228   1.802   1.718  14.796 -0.4325  0.2575  0.0118
16938TIP3    H172229   1.870   1.701  14.861 -0.2324 -0.1008 -0.2925
16938TIP3    H272230   1.726   1.745  14.848 -0.9396 -2.0206  0.5627
16939TIP3   OH272231   0.028   4.405  14.375 -0.0642  1.0038 -0.2464
16939TIP3    H172232   0.074   4.330  14.337 -2.6343 -0.9912  0.2598
16939TIP3    H272233   0.008   4.461  14.300  1.0346  0.7094 -0.7867
16940TIP3   OH272234   2.457   0.344  12.430 -0.1578  0.5460 -0.1027
16940TIP3    H172235   2.517   0.405  12.387  0.1258  0.3800  0.0559
16940TIP3    H272236   2.469   0.360  12.523 -1.6269  1.7278 -0.0926
16941TIP3   OH272237   4.684   0.050   1.246  0.2227 -0.4220  0.1783
16941TIP3    H172238   4.769   0.050   1.203  0.4989 -1.2836  0.6908
16941TIP3    H272239   4.702   0.072   1.338  0.4839 -4.2599  1.2225
16942TIP3   OH272240   0.724   4.195  14.059 -0.2299  0.2347 -0.3711
16942TIP3    H172241   0.694   4.104  14.062  2.0560 -0.6742 -1.9935
16942TIP3    H272242   0.819   4.189  14.066 -0.0103  2.4950 -0.7459
16943TIP3   OH272243   1.623   1.901  14.564  0.0916  0.6033 -0.0524
16943TIP3    H172244   1.616   1.957  14.641  0.8141  1.1429 -0.3647
16943TIP3    H272245   1.705   1.855  14.575  0.4499  1.0591 -0.7287
16944TIP3   OH272246   3.706   4.390   1.094 -0.0877 -0.1317  0.0920
16944TIP3    H172247   3.638   4.425   1.151  0.2525  1.1241 -0.2485
16944TIP3    H272248   3.765   4.343   1.153 -0.4614  0.0097  0.5834
16945TIP3   OH272249   0.143   1.125   0.289  0.5340 -0.2796  0.1547
16945TIP3    H172250   0.199   1.198   0.318  0.7934  0.0506 -1.0791
16945TIP3    H272251   0.184   1.047   0.326 -0.9183  0.2994  3.2669
16946TIP3   OH272252   6.060   2.155  11.439 -0.1032 -0.0347  0.1439
16946TIP3    H172253   6.058   2.151  11.535 -0.8099  1.7141  0.2544
16946TIP3    H272254   5.976   2.195  11.415 -0.3968 -1.4270 -1.2968
16947TIP3   OH272255   3.827   4.035  14.476 -0.0112  0.0136  0.0055
16947TIP3    H172256   3.912   4.002  14.505  0.1991  0.6925  0.1825
16947TIP3    H272257   3.781   4.058  14.557  0.9349  2.7952 -0.1323
16948TIP3   OH272258   0.068   5.462  14.880  0.4711  0.6039 -0.0761
16948TIP3    H172259   0.006   5.534  14.870  0.0998  0.1618 -1.0841
16948TIP3    H272260   0.152   5.499  14.850  0.0155  0.2535 -1.8972
16949TIP3   OH272261   6.628   5.236  13.703 -0.1918  0.2809 -0.4409
16949TIP3    H172262   6.627   5.166  13.768 -1.0297  2.8715  2.5859
16949TIP3    H272263   6.538   5.238  13.669 -0.3413  0.2513 -0.0588
16950TIP3   OH272264   4.847   2.684   5.477 -0.0085 -0.1868 -0.0271
16950TIP3    H172265   4.858   2.690   5.572  0.5725  0.0759 -0.1098
16950TIP3    H272266   4.893   2.760   5.442 -2.2892  1.1294 -0.3863
16951TIP3   OH272267   2.329   1.931  12.903  0.4722 -0.4297 -0.0201
16951TIP3    H172268   2.359   1.908  12.815 -0.4655  0.4664 -0.5962
16951TIP3    H272269   2.409   1.959  12.949  0.8617 -0.2124 -0.8083
16952TIP3   OH272270   0.789   4.551   2.776  0.2446  0.8121 -0.4639
16952TIP3    H172271   0.871   4.524   2.818 -0.4576 -0.4206  0.1670
16952TIP3    H272272   0.800   4.528   2.684  0.0044 -0.9081 -0.0952
16953TIP3   OH272273   6.199   2.133   3.605  0.4472 -0.4218 -0.1325
16953TIP3    H172274   6.265   2.141   3.674  0.5550 -0.7120 -0.2009
16953TIP3    H272275   6.250   2.126   3.524  0.3444 -1.0257 -0.1488
16954TIP3   OH272276   0.989   4.052  13.872 -0.3434 -0.0794  0.4876
16954TIP3    H172277   1.022   4.058  13.962  2.4899  1.0661 -0.5309
16954TIP3    H272278   0.990   3.958  13.853 -1.5325 -0.3888  1.7964
16955TIP3   OH272279   4.824   6.014  15.298 -0.0877  0.3366  0.6996
16955TIP3    H172280   4.756   5.969  15.349  0.6063 -0.2449  1.1364
16955TIP3    H272281   4.821   6.104  15.329 -1.4872  0.6196 -0.1744
16956TIP3   OH272282   0.683   0.815   3.824  0.0231 -0.2203 -0.4249
16956TIP3    H172283   0.657   0.726   3.802  0.4875 -0.3087 -0.6206
16956TIP3    H272284   0.716   0.852   3.742  0.8666 -0.2361 -0.0956
16957TIP3   OH272285   2.999   4.405  16.610 -0.0841  0.0417  0.4151
16957TIP3    H172286   3.071   4.371  16.663  0.8649  2.6861  0.9854
16957TIP3    H272287   2.934   4.433  16.674 -1.2411 -1.3883 -0.0723
16958TIP3   OH272288   6.289   1.539  11.278  0.3481  0.0137 -0.1443
16958TIP3    H172289   6.233   1.487  11.221 -0.5412 -0.5202  1.1802
16958TIP3    H272290   6.281   1.628  11.246  1.5534 -0.5498 -2.1797
16959TIP3   OH272291   5.009   1.232  11.681  0.1765 -0.6484  0.3876
16959TIP3    H172292   5.014   1.280  11.598 -1.6633 -0.9674  0.0624
16959TIP3    H272293   5.095   1.191  11.689  0.3145 -0.8420 -1.5040
16960TIP3   OH272294   2.185   2.710   2.396 -0.1115 -0.1541  0.1190
16960TIP3    H172295   2.237   2.637   2.363  0.4357 -0.5779  1.8607
16960TIP3    H272296   2.095   2.677   2.394 -0.1406 -0.0682 -1.1552
16961TIP3   OH272297   6.095   0.453   4.440  0.9370 -0.8405  0.1192
16961TIP3    H172298   6.163   0.497   4.388 -0.7501 -0.4633 -1.9085
16961TIP3    H272299   6.068   0.518   4.505  0.4256  0.1230 -1.0260
16962TIP3   OH272300   0.816   5.457  14.771  0.9492 -0.8261  0.1996
16962TIP3    H172301   0.847   5.391  14.710  2.6488 -1.1702  1.3415
16962TIP3    H272302   0.759   5.409  14.832  1.4684 -1.0741  0.4993
16963TIP3   OH272303   4.499   2.598  15.151 -0.3851  0.1117 -0.2134
16963TIP3    H172304   4.592   2.594  15.174 -0.4836  0.5826  0.3061
16963TIP3    H272305   4.472   2.506  15.145 -0.0651 -0.0340  0.4160
16964TIP3   OH272306   6.778   2.901  12.417  0.3612  0.4186 -0.3695
16964TIP3    H172307   6.685   2.910  12.439  0.8662  0.8388  1.8019
16964TIP3    H272308   6.789   2.808  12.399 -0.7321  0.5748 -2.0829
16965TIP3   OH272309   1.813   6.542   6.510  0.2536  0.4866 -0.4166
16965TIP3    H172310   1.743   6.476   6.503 -1.2810  1.6738  2.0992
16965TIP3    H272311   1.883   6.496   6.556  0.1177 -0.0194 -0.7022
16966TIP3   OH272312   5.883   3.843  11.315 -0.2656 -0.2712  0.2685
16966TIP3    H172313   5.979   3.849  11.316  0.0343 -3.2844 -0.5107
16966TIP3    H272314   5.857   3.888  11.234  0.7097 -1.0032 -0.4880
16967TIP3   OH272315   1.601   6.793   2.360  0.2375 -0.3367  0.1297
16967TIP3    H172316   1.565   6.877   2.332 -0.8436 -0.0175  2.2560
16967TIP3    H272317   1.695   6.801   2.346  0.2590  1.5668  1.0588
16968TIP3   OH272318   0.773   3.274   5.613 -0.2605  0.1876  0.5788
16968TIP3    H172319   0.747   3.348   5.668 -1.1081 -0.3715  0.9532
16968TIP3    H272320   0.767   3.308   5.523  1.7869  1.3160  0.7920
16969TIP3   OH272321   3.467   5.030   0.662  0.3353  0.2815 -0.5268
16969TIP3    H172322   3.501   5.044   0.750 -0.6021 -0.7114  0.0241
16969TIP3    H272323   3.401   5.099   0.651 -0.3680 -0.2944  0.0130
16970TIP3   OH272324   4.158   1.706  14.707  0.6267  0.0560 -0.3462
16970TIP3    H172325   4.226   1.772  14.693  0.4807  0.5510  1.1204
16970TIP3    H272326   4.201   1.636  14.756 -0.0062  0.6281  1.1010
16971TIP3   OH272327   1.426   0.720   3.698  0.4582 -0.2215  0.6025
16971TIP3    H172328   1.341   0.752   3.668 -0.1963 -1.1730  1.3565
16971TIP3    H272329   1.462   0.673   3.623  0.5324  0.5726  0.1338
16972TIP3   OH272330   4.555   2.568  11.327  0.5628 -0.5353 -0.2253
16972TIP3    H172331   4.477   2.583  11.273  0.8230  0.8704 -0.2476
16972TIP3    H272332   4.542   2.481  11.364 -1.8033  0.2433  1.0388
16973TIP3   OH272333   1.836   6.305   1.226  0.5021 -0.4333  0.9701
16973TIP3    H172334   1.830   6.398   1.248 -1.1296 -0.2364 -0.1289
16973TIP3    H272335   1.927   6.292   1.200  0.3874  1.2582 -0.4445
16974TIP3   OH272336   3.252   2.650   1.994 -0.1664  0.1124  0.4172
16974TIP3    H172337   3.274   2.719   1.932 -0.9867 -0.0063 -0.0228
16974TIP3    H272338   3.219   2.578   1.939  0.7672 -0.6779  0.8554
16975TIP3   OH272339   3.322   3.296  12.263 -0.5335  0.4443  0.0064
16975TIP3    H172340   3.264   3.347  12.206 -1.3851  0.1291  0.5662
16975TIP3    H272341   3.350   3.357  12.331 -1.1702  0.2991  0.4062
16976TIP3   OH272342   2.294   2.510   1.728 -0.2166  0.2024  0.0401
16976TIP3    H172343   2.230   2.450   1.688 -0.4977  1.5384 -1.6064
16976TIP3    H272344   2.378   2.482   1.692 -0.4684  1.3981 -1.5734
16977TIP3   OH272345   3.415   2.740  10.523 -0.6067 -0.6382  0.1213
16977TIP3    H172346   3.412   2.729  10.618  0.7454 -2.1103  0.0332
16977TIP3    H272347   3.331   2.706  10.493 -3.2472  4.1747  1.0168
16978TIP3   OH272348   0.886   5.887  10.839  0.0617 -0.2325 -0.3984
16978TIP3    H172349   0.865   5.981  10.836  0.8788 -0.0542 -0.9352
16978TIP3    H272350   0.892   5.861  10.747  0.7770 -0.5838 -0.2634
16979TIP3   OH272351   2.861   6.020   4.270 -0.2569 -0.0162  0.1565
16979TIP3    H172352   2.767   6.036   4.278 -0.4244 -0.9006  0.0647
16979TIP3    H272353   2.900   6.107   4.266 -1.3453  0.4573 -3.0813
16980TIP3   OH272354   6.583   0.436  13.455  0.6481  0.0551 -0.3575
16980TIP3    H172355   6.503   0.410  13.409  1.9136 -2.5506 -1.3085
16980TIP3    H272356   6.634   0.355  13.462  2.2536  1.1464  2.2214
16981TIP3   OH272357   2.449   3.473  11.513  0.1271 -0.4164  0.4810
16981TIP3    H172358   2.408   3.541  11.459 -0.7951 -0.4513  1.1164
16981TIP3    H272359   2.528   3.449  11.465 -0.3551 -0.0154 -0.5473
16982TIP3   OH272360   0.805   3.590  15.090 -0.0621 -0.3728 -0.2968
16982TIP3    H172361   0.732   3.539  15.055  0.5107 -0.4120 -1.4958
16982TIP3    H272362   0.877   3.527  15.097  0.2819 -0.0117 -0.5447
16983TIP3   OH272363   5.642   3.309  15.393 -0.2933 -0.2353 -0.4009
16983TIP3    H172364   5.714   3.259  15.431  0.4020 -0.9438 -2.5076
16983TIP3    H272365   5.598   3.348  15.468  2.4332  0.4768  0.9499
16984TIP3   OH272366   1.888   6.532  15.738  0.1860  0.2242 -0.2653
16984TIP3    H172367   1.842   6.542  15.655  0.4998  1.0571 -0.3459
16984TIP3    H272368   1.963   6.591  15.731 -0.4197  1.2036  1.0563
16985TIP3   OH272369   2.892   0.003  11.856  0.5366  0.0377 -0.6982
16985TIP3    H172370   2.925  -0.082  11.885 -0.8789 -0.4693 -0.5159
16985TIP3    H272371   2.927   0.013  11.767  1.3776 -0.3444 -0.4246
16986TIP3   OH272372   1.066   1.977  10.549 -0.3693 -0.1126 -0.1704
16986TIP3    H172373   0.980   1.965  10.509 -1.0688  2.5592  0.3565
16986TIP3    H272374   1.121   2.007  10.477 -0.2122 -0.4604 -0.2016
16987TIP3   OH272375   2.260   3.748   1.072  0.5657  0.2441  0.0258
16987TIP3    H172376   2.218   3.816   1.020 -0.0684 -0.2600 -0.1325
16987TIP3    H272377   2.295   3.794   1.149 -0.3514  0.6544  0.2104
16988TIP3   OH272378   4.712   0.317  12.636 -0.3298 -0.0974 -0.4510
16988TIP3    H172379   4.699   0.235  12.587 -3.7016  0.0048  0.0404
16988TIP3    H272380   4.791   0.301  12.687  0.6460 -1.9859 -2.3491
16989TIP3   OH272381   0.287   0.729  14.229  0.3458  0.5059  0.6418
16989TIP3    H172382   0.367   0.683  14.256  0.8634  1.3425  0.6059
16989TIP3    H272383   0.319   0.814  14.199 -0.1677 -0.4011 -2.8128
16990TIP3   OH272384   5.937   6.509   0.370  0.5871 -0.3698 -0.0923
16990TIP3    H172385   6.003   6.557   0.421  2.7809 -2.4458 -0.7554
16990TIP3    H272386   5.971   6.511   0.280 -0.6379 -0.9333 -0.5915
16991TIP3   OH272387   3.592   5.458  13.361  0.8535 -0.1242 -0.1696
16991TIP3    H172388   3.649   5.521  13.317  1.0289  0.0306  0.2754
16991TIP3    H272389   3.521   5.511  13.398  0.3851 -0.3198 -0.7565
16992TIP3   OH272390   0.980   0.335   3.476 -0.4247  0.1055  0.8604
16992TIP3    H172391   0.932   0.304   3.554 -0.7298 -1.4483  0.0993
16992TIP3    H272392   1.058   0.280   3.473 -0.6782 -0.2240 -0.2052
16993TIP3   OH272393   4.921   2.273  10.787 -0.5645  0.8217  0.5011
16993TIP3    H172394   4.944   2.219  10.862  1.2260 -0.0311 -0.5979
16993TIP3    H272395   4.880   2.351  10.825 -0.8147 -0.1269  2.2621
16994TIP3   OH272396   5.403   0.479  16.509  0.2747 -0.4984  0.1795
16994TIP3    H172397   5.402   0.426  16.588  0.8863  0.2774  0.7287
16994TIP3    H272398   5.418   0.417  16.438  2.2133 -0.9523  0.9285
16995TIP3   OH272399   0.220   5.522   3.224  0.6763  0.2378  0.4316
16995TIP3    H172400   0.268   5.491   3.302 -0.5260 -2.3401  0.2479
16995TIP3    H272401   0.209   5.444   3.171 -1.3748  1.3039 -0.8045
16996TIP3   OH272402   1.273   6.477   1.777  0.1774  0.1736  0.4634
16996TIP3    H172403   1.325   6.494   1.698 -1.3411  1.8260 -0.2501
16996TIP3    H272404   1.197   6.428   1.746 -0.6641  1.2408  0.7879
16997TIP3   OH272405   0.805   0.374   6.041 -0.0527 -0.0867  0.1602
16997TIP3    H172406   0.884   0.423   6.066  1.5011 -1.1843 -2.2444
16997TIP3    H272407   0.814   0.290   6.086 -0.1891  0.0232  0.3940
16998TIP3   OH272408   2.552   1.708   5.878 -0.2171  0.8901  0.5121
16998TIP3    H172409   2.579   1.620   5.851  0.7267  1.3719 -0.1873
16998TIP3    H272410   2.559   1.707   5.973 -1.0657 -0.0431  0.5895
16999TIP3   OH272411   5.098   1.566   2.013  0.2318  0.3747 -0.3160
16999TIP3    H172412   5.178   1.560   2.066  0.8755  0.0624 -1.2910
16999TIP3    H272413   5.085   1.660   2.000  1.4175  0.4060 -1.5393
17000TIP3   OH272414   4.044   4.531  14.378  0.2074  0.4062 -0.4514
17000TIP3    H172415   4.119   4.582  14.408 -0.5628  1.9982 -1.1557
17000TIP3    H272416   4.082   4.445  14.357  1.4902  0.5907  0.9306
17001TIP3   OH272417   6.079   4.372   4.437 -0.1752 -0.0161  0.1986
17001TIP3    H172418   6.122   4.400   4.518  0.4033 -1.1176  0.3007
17001TIP3    H272419   6.143   4.388   4.369 -0.0041 -0.6692  0.2012
17002TIP3   OH272420   1.006   4.603  14.288  0.1195  0.1991  0.1612
17002TIP3    H172421   0.989   4.688  14.245 -1.1345 -0.7156 -1.2911
17002TIP3    H272422   1.079   4.566  14.239 -0.0992 -0.0550  0.0258
17003TIP3   OH272423   1.196   0.376  15.577  0.4436  0.1552  0.3860
17003TIP3    H172424   1.142   0.301  15.551 -2.2991  0.7710  3.6011
17003TIP3    H272425   1.191   0.436  15.503  1.0656 -1.9398 -1.4568
17004TIP3   OH272426   1.073   0.776  11.750 -0.0076  0.2591  0.2498
17004TIP3    H172427   1.130   0.700  11.759  0.6891  0.6744 -0.5364
17004TIP3    H272428   1.013   0.754  11.680  0.0851  0.3618  0.1375
17005TIP3   OH272429   3.984   1.262  11.214  0.3651 -0.5421 -0.7497
17005TIP3    H172430   4.048   1.196  11.239 -0.5648 -0.3729  2.5080
17005TIP3    H272431   3.950   1.232  11.129  1.2299 -3.2727 -0.2085
17006TIP3   OH272432   5.487   3.725  15.722  0.6551  0.1471 -0.2761
17006TIP3    H172433   5.429   3.754  15.651  0.2072  0.6541  0.2840
17006TIP3    H272434   5.545   3.661  15.681 -0.9167 -1.1051 -0.6312
17007TIP3   OH272435   3.135   6.446   5.333 -0.2914  0.1700 -0.8590
17007TIP3    H172436   3.043   6.473   5.333 -0.9934 -1.7812 -3.8290
17007TIP3    H272437   3.176   6.498   5.264  0.6318  0.3875 -0.1670
17008TIP3   OH272438   1.804   2.971   4.676  0.5668 -0.5190 -0.3857
17008TIP3    H172439   1.868   2.909   4.710 -0.1706 -1.2972 -0.3901
17008TIP3    H272440   1.719   2.936   4.704 -0.0389 -0.8523 -2.4664
17009TIP3   OH272441   4.997   0.396  12.254  0.6770 -0.0964 -0.4083
17009TIP3    H172442   5.008   0.348  12.336  2.0084 -0.0149 -0.5277
17009TIP3    H272443   4.902   0.393  12.237  0.6084 -1.7516  0.1310
17010TIP3   OH272444   3.488   6.425   2.975 -0.5899 -0.3255 -0.0855
17010TIP3    H172445   3.461   6.339   2.944 -1.3130  0.1654 -0.8182
17010TIP3    H272446   3.477   6.483   2.900  0.9150  0.2165  0.0743
17011TIP3   OH272447   6.624   5.048  15.050 -0.2087  0.3581  0.1144
17011TIP3    H172448   6.682   5.111  15.007  2.5338 -0.6772  2.0097
17011TIP3    H272449   6.552   5.101  15.083  1.7241  2.4760  1.1887
17012TIP3   OH272450   5.528   6.605  10.677  0.3200  0.3186 -0.0651
17012TIP3    H172451   5.453   6.555  10.710 -0.4367  0.9789 -0.7384
17012TIP3    H272452   5.594   6.597  10.745  0.2743 -1.6928 -0.1945
17013TIP3   OH272453   6.788   5.449  13.865  0.4301 -0.2867 -0.2809
17013TIP3    H172454   6.738   5.472  13.787  2.0374  0.7899 -1.0518
17013TIP3    H272455   6.841   5.375  13.838  1.7168  0.6984 -0.5741
17014TIP3   OH272456   1.559   1.141  13.546 -0.8427  0.1821  0.1289
17014TIP3    H172457   1.563   1.046  13.552  0.3101  0.2360  0.5043
17014TIP3    H272458   1.465   1.162  13.544 -1.1092 -0.9260  0.5233
17015TIP3   OH272459   0.937   0.962  12.154 -0.4697 -0.1042  0.5873
17015TIP3    H172460   0.951   0.881  12.203 -0.4397 -0.7220 -0.4274
17015TIP3    H272461   1.024   1.001  12.147 -0.3576 -0.3839  0.3995
17016TIP3   OH272462   5.344   1.559   2.619  0.2118 -0.1248  0.0360
17016TIP3    H172463   5.402   1.593   2.687 -1.5067 -1.5971  2.4001
17016TIP3    H272464   5.349   1.624   2.549  2.1266  1.4562  1.5236
17017TIP3   OH272465   3.578   5.473   3.421 -0.1924  0.0212  0.3931
17017TIP3    H172466   3.556   5.455   3.329  2.2662  0.4531 -0.3387
17017TIP3    H272467   3.548   5.395   3.468 -0.6278 -0.6256 -0.8990
17018TIP3   OH272468   1.027   3.713   0.312  0.1700  0.2521  0.2093
17018TIP3    H172469   1.035   3.659   0.390  0.5419 -1.8398 -1.2004
17018TIP3    H272470   1.112   3.758   0.305  0.1412  0.4294  0.9763
17019TIP3   OH272471   4.347   4.426  11.095  0.2176 -0.5784  0.1416
17019TIP3    H172472   4.329   4.494  11.030  0.1916  0.2274  0.9729
17019TIP3    H272473   4.297   4.350  11.065  0.3850 -0.2927 -0.8925
17020TIP3   OH272474   2.297   6.316   3.216  0.2661 -0.9775 -0.1864
17020TIP3    H172475   2.329   6.365   3.140 -1.2398 -1.0179 -0.8789
17020TIP3    H272476   2.202   6.308   3.202  0.1247 -2.0037  1.1186
17021TIP3   OH272477   6.028   3.346  13.475 -0.1434  0.9725 -0.2320
17021TIP3    H172478   6.062   3.434  13.463  0.8526  0.8763  1.6237
17021TIP3    H272479   5.948   3.358  13.527  0.1185  0.7680  0.2204
17022TIP3   OH272480   5.849   2.785   0.130  0.6244 -0.6762 -0.1700
17022TIP3    H172481   5.935   2.821   0.151  1.0565 -2.3435  1.1051
17022TIP3    H272482   5.792   2.816   0.200  0.3275 -0.1862 -0.6135
17023TIP3   OH272483   4.503   6.405   0.839  0.1717  0.6243  0.0794
17023TIP3    H172484   4.448   6.427   0.764 -0.1566 -0.7386 -0.1104
17023TIP3    H272485   4.590   6.438   0.816 -0.2080  1.3612 -0.3294
17024TIP3   OH272486   6.435   5.135   0.115  0.6472  0.3487 -0.1399
17024TIP3    H172487   6.426   5.065   0.180 -1.5859 -0.2996 -1.0311
17024TIP3    H272488   6.511   5.109   0.063  0.3222 -1.0426  0.0160
17025TIP3   OH272489   2.389   0.885  14.546 -0.3213 -0.5725 -0.0483
17025TIP3    H172490   2.423   0.970  14.573  2.3645 -1.2964 -0.8797
17025TIP3    H272491   2.367   0.896  14.454  0.0588 -0.7737 -0.1653
17026TIP3   OH272492   6.462   1.035   5.753  0.4188 -0.2097 -0.1931
17026TIP3    H172493   6.547   1.077   5.741  0.4666 -0.3250 -0.2616
17026TIP3    H272494   6.467   0.996   5.841  0.0199  0.7481  0.2668
17027TIP3   OH272495   6.668   4.878  14.739  0.4444 -0.1320 -0.0510
17027TIP3    H172496   6.627   4.882  14.825 -0.2065  0.7745 -0.3913
17027TIP3    H272497   6.731   4.806  14.746  0.8706  0.3508  1.3733
17028TIP3   OH272498   2.145   2.830   6.091  0.0241  0.3025 -0.0924
17028TIP3    H172499   2.190   2.754   6.127 -1.8605 -0.7582  0.1424
17028TIP3    H272500   2.085   2.858   6.160 -0.4478  1.0069 -0.7665
17029TIP3   OH272501   1.624   3.136   1.216 -0.2745 -0.2443 -0.0624
17029TIP3    H172502   1.619   3.125   1.121 -4.5946  2.2183 -0.3790
17029TIP3    H272503   1.622   3.047   1.251 -0.9386 -1.1670 -2.2821
17030TIP3   OH272504   5.450   2.414  15.052 -0.2200  0.3786 -0.2447
17030TIP3    H172505   5.395   2.345  15.088 -0.6296  0.7380 -0.1653
17030TIP3    H272506   5.537   2.397  15.089 -0.6443  0.7831  1.0154
17031TIP3   OH272507   1.532   3.493   4.876  0.1880  0.2397 -0.7123
17031TIP3    H172508   1.543   3.559   4.944 -2.3857  0.3568 -0.3196
17031TIP3    H272509   1.511   3.412   4.924 -0.2566  0.0027 -1.2912
17032TIP3   OH272510   1.130   3.154   5.165  0.7533  0.1566 -0.5300
17032TIP3    H172511   1.072   3.121   5.096 -0.8593  0.0054  0.8273
17032TIP3    H272512   1.135   3.248   5.149 -0.2760  0.2412 -0.4005
17033TIP3   OH272513   4.307   4.599  10.901  0.3211  0.1702  0.6321
17033TIP3    H172514   4.331   4.688  10.928 -2.1569  0.5655  1.8551
17033TIP3    H272515   4.296   4.605  10.806  0.4006  1.0978  0.6722
17034TIP3   OH272516   4.262   0.674   3.487 -0.2156  0.2148 -0.2041
17034TIP3    H172517   4.311   0.664   3.568  0.5659  1.8598 -0.4315
17034TIP3    H272518   4.305   0.746   3.441 -3.2399  2.3065 -0.0750
17035TIP3   OH272519   0.332   4.551   2.332 -0.3456 -0.2394  0.0295
17035TIP3    H172520   0.264   4.547   2.399  0.1933  1.9951  0.7785
17035TIP3    H272521   0.414   4.535   2.379 -0.2389 -2.2577 -0.7550
17036TIP3   OH272522   2.988   4.135   0.462 -0.6928  0.1557  0.3180
17036TIP3    H172523   2.959   4.046   0.442  3.2669 -1.5027  0.8820
17036TIP3    H272524   2.982   4.182   0.379 -0.3371 -1.5102 -0.6996
17037TIP3   OH272525   1.838   0.701   0.009  0.2263  0.3231 -0.4687
17037TIP3    H172526   1.832   0.608   0.031  3.9339 -0.5461 -2.2450
17037TIP3    H272527   1.846   0.746   0.093 -1.0382 -0.9551  0.3920
17038TIP3   OH272528   4.092   5.376   4.464  0.1872 -0.3248 -0.0150
17038TIP3    H172529   4.162   5.390   4.400 -1.4607  1.1703 -1.6200
17038TIP3    H272530   4.021   5.435   4.436 -1.8909 -2.0321  1.2706
17039TIP3   OH272531   3.756   3.900  13.659  0.1664 -0.2811 -0.1890
17039TIP3    H172532   3.822   3.932  13.597  0.4159 -1.2112 -0.4233
17039TIP3    H272533   3.696   3.973  13.670  1.0199  0.4462 -0.2859
17040TIP3   OH272534   4.966   6.193  14.176  0.3445  0.4812 -0.3127
17040TIP3    H172535   5.048   6.204  14.223 -0.0390 -0.1355  0.5369
17040TIP3    H272536   4.945   6.280  14.142  1.1624  0.7147 -0.2413
17041TIP3   OH272537   4.755   2.063   5.059  0.3221  0.7151  0.0295
17041TIP3    H172538   4.722   1.976   5.080 -0.0044  1.2250  1.8233
17041TIP3    H272539   4.792   2.055   4.971 -0.5399 -0.9864 -0.2049
17042TIP3   OH272540   2.216   2.942   5.614  0.3370 -0.2648 -0.2718
17042TIP3    H172541   2.228   2.861   5.565  1.3473  0.4021 -1.1730
17042TIP3    H272542   2.275   2.933   5.690 -2.4270 -2.0075  1.8769
17043TIP3   OH272543   6.466   4.486   4.733 -0.2333  0.0730  1.3094
17043TIP3    H172544   6.432   4.443   4.812 -0.3373 -1.2066  0.5997
17043TIP3    H272545   6.448   4.423   4.662  1.3471  0.4702  0.5206
17044TIP3   OH272546   6.049   0.922   3.758  0.0115  0.5950 -0.0627
17044TIP3    H172547   6.123   0.942   3.701  0.4640  1.6306  0.8514
17044TIP3    H272548   6.077   0.845   3.807  0.7643  1.3583  0.7354
17045TIP3   OH272549   3.229   1.821   3.205 -0.5198 -0.6784 -0.1696
17045TIP3    H172550   3.261   1.867   3.282  2.2619  0.8914 -2.0721
17045TIP3    H272551   3.170   1.884   3.163  0.0220 -0.4729 -0.6355
17046TIP3   OH272552   3.761   5.744   4.200  0.2356 -0.0545  0.4382
17046TIP3    H172553   3.759   5.654   4.233 -1.7328  0.7831  2.9421
17046TIP3    H272554   3.812   5.792   4.264  0.6052  0.7737 -0.4622
17047TIP3   OH272555   4.392   0.065  11.369 -0.1773  0.1042  0.5421
17047TIP3    H172556   4.390  -0.026  11.399 -0.7155  0.2478  0.9634
17047TIP3    H272557   4.394   0.059  11.273  1.4856 -0.3655  0.5821
17048TIP3   OH272558   1.303   1.489  10.894 -0.0198 -0.2601  0.3605
17048TIP3    H172559   1.295   1.584  10.893  0.4647 -0.2126 -0.3501
17048TIP3    H272560   1.361   1.470  10.820 -2.8569 -1.3295 -1.7714
17049TIP3   OH272561   2.815   0.530   1.366  0.4281 -0.3695 -0.0565
17049TIP3    H172562   2.880   0.600   1.361  0.4306 -0.3215  0.5213
17049TIP3    H272563   2.834   0.474   1.291  0.9072 -0.1596 -0.0979
17050TIP3   OH272564   4.000   1.313  14.161 -0.5526  0.3899 -0.0980
17050TIP3    H172565   3.951   1.360  14.093 -0.3409  3.6396  1.7491
17050TIP3    H272566   4.091   1.341  14.149  0.1426 -1.9371 -0.6582
17051TIP3   OH272567   5.615   1.795   2.331 -0.0377  1.0547 -0.1885
17051TIP3    H172568   5.541   1.741   2.360  1.0352  0.9021  2.6135
17051TIP3    H272569   5.622   1.778   2.237 -1.7984 -1.0769 -0.0234
17052TIP3   OH272570   2.935   0.607  10.714 -1.2714 -0.4675  0.9057
17052TIP3    H172571   2.863   0.660  10.680 -0.9074 -1.3763 -1.4772
17052TIP3    H272572   2.906   0.517  10.702  1.3858 -1.0271 -3.2834
17053TIP3   OH272573   0.639   4.281   1.614 -0.1190  0.6241  0.5521
17053TIP3    H172574   0.609   4.266   1.525 -1.1636  0.1993  0.9614
17053TIP3    H272575   0.729   4.249   1.615  0.0510  1.0345 -0.4555
17054TIP3   OH272576   3.480   4.353  16.930  0.2738 -0.1841  0.7573
17054TIP3    H172577   3.389   4.357  16.898  0.7249 -0.1964 -0.6217
17054TIP3    H272578   3.492   4.261  16.955 -0.1687 -0.1291  1.1780
17055TIP3   OH272579   6.681   4.767  14.193  0.0044  0.1609  0.0295
17055TIP3    H172580   6.770   4.765  14.230  0.1635 -1.2540 -0.3782
17055TIP3    H272581   6.694   4.789  14.101 -0.1502  0.7927  0.1542
17056TIP3   OH272582   1.055   0.035   4.278 -0.2267  0.3802  0.3403
17056TIP3    H172583   1.147   0.007   4.269  0.7843  3.2654  0.6264
17056TIP3    H272584   1.056   0.127   4.251 -3.4714 -0.0290 -1.6007
17057TIP3   OH272585   5.268   0.657   1.199 -0.3472  0.1086 -0.3383
17057TIP3    H172586   5.213   0.580   1.186 -0.2674 -0.5243  2.4987
17057TIP3    H272587   5.208   0.731   1.187 -0.5686 -0.3481 -2.4482
17058TIP3   OH272588   4.926   0.852   0.408 -0.3087 -0.1944 -0.2251
17058TIP3    H172589   4.981   0.869   0.332 -0.5833 -2.1213 -0.9124
17058TIP3    H272590   4.953   0.765   0.438  0.8469  1.0618  2.8567
17059TIP3   OH272591   5.779   0.893  16.161 -0.3002 -0.7134  0.2655
17059TIP3    H172592   5.799   0.836  16.087 -0.8679 -1.1566  0.4495
17059TIP3    H272593   5.793   0.838  16.238  2.5027  0.3601  0.6410
17060TIP3   OH272594   1.202   3.236   3.290  0.0716 -0.5346 -0.2447
17060TIP3    H172595   1.208   3.265   3.199 -0.4023 -0.5717 -0.2882
17060TIP3    H272596   1.138   3.295   3.330  0.1354 -0.6414  0.0186
17061TIP3   OH272597   1.817   2.316  10.459  0.2932  0.4317 -0.3566
17061TIP3    H172598   1.753   2.375  10.499 -0.3666  0.3743 -1.2912
17061TIP3    H272599   1.856   2.367  10.388  0.4952  0.0945 -0.4929
17062TIP3   OH272600   1.199   6.455  13.221 -0.0410  0.0798  0.3215
17062TIP3    H172601   1.284   6.452  13.266 -0.4219 -1.1386  1.0266
17062TIP3    H272602   1.168   6.544  13.234  0.6568  0.2388  0.9884
17063TIP3   OH272603   3.783   2.933  15.718  0.3743 -0.2235  0.1577
17063TIP3    H172604   3.749   2.939  15.807  0.2510 -1.0431  0.1704
17063TIP3    H272605   3.865   2.983  15.720 -0.4801  1.2444  0.2861
17064TIP3   OH272606   1.116   0.316  16.741 -0.0140  0.0571 -0.3012
17064TIP3    H172607   1.209   0.295  16.732  0.0034  0.2990 -0.7220
17064TIP3    H272608   1.104   0.333  16.834  0.6261  1.2327 -0.4116
17065TIP3   OH272609   6.712   3.543   6.631 -0.4486  0.1602  0.2593
17065TIP3    H172610   6.722   3.527   6.538 -1.2044  2.1800 -0.2175
17065TIP3    H272611   6.628   3.502   6.654 -0.1812 -0.4833  0.1101
17066TIP3   OH272612   2.388   5.929  11.454  0.1634 -0.0070  0.2422
17066TIP3    H172613   2.367   6.007  11.403  1.0654 -1.0047 -1.7798
17066TIP3    H272614   2.480   5.911  11.435  0.6275 -0.3434  2.4323
17067TIP3   OH272615   3.551   4.004   4.627  0.1090 -0.0128  0.1612
17067TIP3    H172616   3.510   3.923   4.597 -1.3499  0.4792  0.7486
17067TIP3    H272617   3.554   4.059   4.548 -1.8807  0.5303  0.4012
17068TIP3   OH272618   4.077   5.331  13.561 -0.1442 -0.1169 -0.0296
17068TIP3    H172619   3.990   5.357  13.530 -0.3024  0.8444  1.1357
17068TIP3    H272620   4.132   5.408  13.544  0.5956 -0.8567 -1.1238
17069TIP3   OH272621   4.070   4.707   1.589 -0.3709  0.2360  0.4696
17069TIP3    H172622   4.098   4.675   1.675 -0.3529  0.0243  0.3864
17069TIP3    H272623   4.152   4.724   1.542 -0.3525 -1.5406 -0.2024
17070TIP3   OH272624   5.161   0.211  14.886  0.1561 -0.3408 -0.1542
17070TIP3    H172625   5.133   0.144  14.949 -0.1174 -1.7878 -1.7375
17070TIP3    H272626   5.193   0.161  14.811 -0.3576  1.3124 -1.5263
17071TIP3   OH272627   1.000   5.821  13.572 -0.4784 -0.3874 -0.7426
17071TIP3    H172628   1.041   5.786  13.651  0.2945 -0.4610 -1.1634
17071TIP3    H272629   0.961   5.744  13.529  0.6884 -0.6543 -1.3552
17072TIP3   OH272630   4.961   0.927   3.380 -0.4471 -0.1989  0.6041
17072TIP3    H172631   4.991   0.995   3.441  0.0392 -0.1431  0.3128
17072TIP3    H272632   4.869   0.946   3.366 -0.1417  0.8903 -0.0867
17073TIP3   OH272633   2.269   3.480  12.811 -0.4804 -0.3909  0.5586
17073TIP3    H172634   2.363   3.490  12.825 -0.7352  2.3683  0.8133
17073TIP3    H272635   2.232   3.474  12.899 -0.6256 -0.6953  0.4799
17074TIP3   OH272636   6.666   5.312  14.138  0.0368  0.4600  0.1313
17074TIP3    H172637   6.645   5.227  14.177  3.3460 -1.2450 -1.3721
17074TIP3    H272638   6.612   5.315  14.059  0.8460 -0.9339 -0.5166
17075TIP3   OH272639   0.840   2.073   1.764  0.3644  0.3371  0.1893
17075TIP3    H172640   0.831   2.157   1.718  1.9318 -0.9347 -2.7652
17075TIP3    H272641   0.930   2.046   1.747 -0.0941 -1.9640  0.9990
17076TIP3   OH272642   1.519   1.747  14.834  0.0752 -0.0660 -0.3693
17076TIP3    H172643   1.459   1.674  14.823 -0.4264  0.0233  1.4467
17076TIP3    H272644   1.467   1.824  14.813  0.3388 -0.1440 -1.3688
17077TIP3   OH272645   6.757   2.040   4.514  0.2973 -0.0970 -0.6559
17077TIP3    H172646   6.688   1.976   4.532 -0.6592  1.0760 -0.0760
17077TIP3    H272647   6.797   2.009   4.433 -1.5846 -0.2564 -1.5881
17078TIP3   OH272648   2.683   5.467  16.457 -0.0794  0.2043 -0.6884
17078TIP3    H172649   2.651   5.539  16.512  0.5106 -0.3892  0.4663
17078TIP3    H272650   2.670   5.389  16.510  1.0098 -0.3238 -1.1657
17079TIP3   OH272651   2.711   5.639  13.190 -0.5007  0.0772  0.1840
17079TIP3    H172652   2.694   5.732  13.172  0.1903  0.2026  0.1498
17079TIP3    H272653   2.652   5.618  13.263 -1.2055  0.3387 -0.2981
17080TIP3   OH272654   6.084   3.855  16.521  0.2567 -0.0938  0.1186
17080TIP3    H172655   6.134   3.795  16.465 -0.0705  1.2803 -1.7526
17080TIP3    H272656   6.147   3.885  16.587  2.1707  1.8826 -2.3927
17081TIP3   OH272657   0.601   3.574  13.140 -0.5372 -0.1274  0.4502
17081TIP3    H172658   0.516   3.611  13.117 -0.3701  0.3891  0.6690
17081TIP3    H272659   0.597   3.484  13.106 -0.7915  0.2046 -0.4193
17082TIP3   OH272660   1.762   3.070   4.972  0.6380 -0.0777 -0.6853
17082TIP3    H172661   1.823   3.103   4.906  2.1927 -2.3802 -0.5226
17082TIP3    H272662   1.760   3.138   5.039  1.3632  0.9908 -1.7130
17083TIP3   OH272663   0.632   2.653   3.092 -0.2252  0.1458 -0.0767
17083TIP3    H172664   0.708   2.687   3.139  0.2677  0.1587 -0.8814
17083TIP3    H272665   0.606   2.724   3.034 -1.2122  0.3613  0.5874
17084TIP3   OH272666   3.567   1.781   0.825 -0.4788  0.0899  0.9338
17084TIP3    H172667   3.624   1.725   0.877 -0.3207 -0.5921  0.0329
17084TIP3    H272668   3.492   1.799   0.883 -1.2507 -2.2457  0.7671
17085TIP3   OH272669   6.467   3.079   2.111  0.2437  0.2308 -0.6548
17085TIP3    H172670   6.527   3.138   2.065  0.6846 -0.0155 -0.4113
17085TIP3    H272671   6.504   2.992   2.097 -0.4304  0.0012 -1.0554
17086TIP3   OH272672   5.125   1.712  12.163 -0.2519  0.2087 -0.0538
17086TIP3    H172673   5.170   1.627  12.159 -0.1121  0.2619  0.3014
17086TIP3    H272674   5.034   1.689  12.182 -0.4289  0.0889 -0.9974
17087TIP3   OH272675   0.258   5.368  15.725 -0.3995 -0.3307  0.2199
17087TIP3    H172676   0.250   5.273  15.720 -0.8219 -0.2701 -0.3785
17087TIP3    H272677   0.169   5.399  15.746 -0.7207  0.0412 -1.5394
17088TIP3   OH272678   5.834   6.073  11.484  0.0806 -0.2253 -0.1693
17088TIP3    H172679   5.824   6.139  11.552  0.2087  1.8653 -2.0642
17088TIP3    H272680   5.759   6.087  11.425  1.1115 -0.4830 -1.6029
17089TIP3   OH272681   4.609   5.132  13.121  0.1163 -0.5361  0.1745
17089TIP3    H172682   4.666   5.065  13.158  0.8165  0.3164  0.6840
17089TIP3    H272683   4.621   5.125  13.026  1.0113 -0.4269  0.2701
17090TIP3   OH272684   0.888   4.914   4.608 -0.3510 -0.2498 -0.2536
17090TIP3    H172685   0.951   4.984   4.625  0.2831 -1.2019  1.4958
17090TIP3    H272686   0.940   4.834   4.607 -0.7969 -0.6787 -3.7739
17091TIP3   OH272687   3.505   6.683  14.762 -0.4097 -0.1027 -0.1582
17091TIP3    H172688   3.457   6.601  14.751 -0.9482  0.0253  1.0764
17091TIP3    H272689   3.508   6.696  14.856 -2.2187  2.3806 -0.3450
17092TIP3   OH272690   3.607   5.718  16.126  0.1467 -0.3351 -0.0607
17092TIP3    H172691   3.575   5.655  16.061 -1.6379 -0.0032  0.4453
17092TIP3    H272692   3.568   5.689  16.208  2.1675 -0.5902  0.8567
17093TIP3   OH272693   0.541   1.126   4.229 -0.0762  0.2529  0.3605
17093TIP3    H172694   0.477   1.102   4.297  1.2914  0.6176  1.8423
17093TIP3    H272695   0.588   1.045   4.211  0.4174  0.4356  0.8077
17094TIP3   OH272696   4.343   6.563   1.010  0.2999  0.7944  0.0389
17094TIP3    H172697   4.283   6.503   1.055  2.1867 -2.4378 -1.3473
17094TIP3    H272698   4.417   6.507   0.984  1.9821  3.6825 -1.9297
17095TIP3   OH272699   4.885   6.536   1.796  0.2590 -0.6217  0.0255
17095TIP3    H172700   4.822   6.590   1.844 -1.3851 -1.4971 -1.0494
17095TIP3    H272701   4.966   6.544   1.845  0.3049  3.2950 -0.3722
17096TIP3   OH272702   0.457   0.611  16.608  0.7229  0.8459  0.0845
17096TIP3    H172703   0.404   0.620  16.529  0.5627  1.3211  0.2403
17096TIP3    H272704   0.400   0.642  16.678  0.8239  0.3269  0.4055
17097TIP3   OH272705   2.237   1.868   1.048  0.0438 -0.2464  0.2398
17097TIP3    H172706   2.311   1.851   1.107 -0.8324 -0.5171  1.2863
17097TIP3    H272707   2.219   1.962   1.059  0.6037 -0.0399 -0.4852
17098TIP3   OH272708   6.785   0.333   0.138 -0.3305  0.0141  0.2648
17098TIP3    H172709   6.831   0.396   0.083  0.1139  1.5085  2.2499
17098TIP3    H272710   6.851   0.269   0.163 -0.1952  0.1444  0.2384
17099TIP3   OH272711   5.885   1.551   0.312 -0.2527 -0.0064  0.4818
17099TIP3    H172712   5.962   1.591   0.273  0.3062 -2.9335 -1.7877
17099TIP3    H272713   5.892   1.570   0.405  3.1305  0.0047  0.3279
17100TIP3   OH272714   6.503   0.306   0.387 -0.7054  0.8140 -0.5439
17100TIP3    H172715   6.528   0.370   0.453 -0.3568  0.9662 -0.8241
17100TIP3    H272716   6.469   0.358   0.314 -1.8147  0.6176 -0.1844
17101TIP3   OH272717   3.945   2.373  14.175 -0.1472  0.7118 -0.8697
17101TIP3    H172718   4.012   2.305  14.182 -1.2157 -0.2358  1.2548
17101TIP3    H272719   3.982   2.448  14.222 -1.0980 -0.3830  1.8919
17102TIP3   OH272720   2.998   4.307   0.685 -0.1680  0.4898  0.0468
17102TIP3    H172721   3.052   4.273   0.756 -0.8634  0.5541  0.6224
17102TIP3    H272722   2.983   4.231   0.628 -1.5324 -0.1692  1.2084
17103TIP3   OH272723   1.321   3.041   4.888  0.1970  0.5851 -0.3237
17103TIP3    H172724   1.292   3.002   4.971  1.2172  0.3200 -0.0760
17103TIP3    H272725   1.339   3.132   4.909  0.1819  0.5889 -0.3264
17104TIP3   OH272726   2.812   3.953  16.939  0.7267  0.0882 -0.1817
17104TIP3    H172727   2.906   3.967  16.953  1.0314 -1.0624 -0.9580
17104TIP3    H272728   2.772   3.972  17.025  1.7885 -0.4083  0.4449
17105TIP3   OH272729   3.487   2.285  16.921  0.3487  0.1685  0.7062
17105TIP3    H172730   3.454   2.295  17.010  0.4471 -0.7114  0.8547
17105TIP3    H272731   3.553   2.353  16.912 -0.1634  0.7177  1.0614
17106TIP3   OH272732   3.586   1.257  11.977  0.1451  0.0914 -0.0090
17106TIP3    H172733   3.635   1.317  11.921  0.1210 -0.8724 -1.0921
17106TIP3    H272734   3.650   1.225  12.040  0.3955  0.4676 -0.0718
17107TIP3   OH272735   1.898   4.898   2.676  0.9220  1.4784  0.5124
17107TIP3    H172736   1.983   4.862   2.651 -0.2998 -1.4120  0.0863
17107TIP3    H272737   1.857   4.923   2.593  0.7985  1.4840  0.5747
17108TIP3   OH272738   2.410   0.235   5.555  0.4039 -0.8887 -0.1774
17108TIP3    H172739   2.474   0.174   5.520  3.0005  0.7858  1.3803
17108TIP3    H272740   2.439   0.321   5.525 -2.4076 -0.1913 -1.2257
17109TIP3   OH272741   1.965   1.551   5.169 -0.4018  0.4811  0.0778
17109TIP3    H172742   1.935   1.576   5.082 -0.3143 -2.3748 -0.8733
17109TIP3    H272743   2.015   1.627   5.200  0.1290  1.3342 -2.6109
17110TIP3   OH272744   4.492   1.825  15.473  0.3149 -0.2307 -0.6042
17110TIP3    H172745   4.397   1.830  15.471 -0.0586 -3.4513  1.5646
17110TIP3    H272746   4.518   1.882  15.546 -0.2079 -1.1166  0.2930
17111TIP3   OH272747   1.859   1.201  13.900 -0.0852  0.2109  0.1333
17111TIP3    H172748   1.825   1.138  13.835 -1.9762  0.7108  0.5860
17111TIP3    H272749   1.904   1.267  13.847 -3.5737  1.8847 -1.0201
17112TIP3   OH272750   4.968   0.168   3.058  0.5878 -0.0907  0.0722
17112TIP3    H172751   4.979   0.126   2.972 -0.1379  0.6767 -0.4056
17112TIP3    H272752   4.900   0.117   3.101  0.0917  0.2481 -0.2951
17113TIP3   OH272753   1.686   6.306  13.210 -0.0147  0.3612 -0.7323
17113TIP3    H172754   1.732   6.222  13.204 -1.9078 -0.7167 -0.9279
17113TIP3    H272755   1.730   6.362  13.146  1.0294 -0.6092 -0.8941
17114TIP3   OH272756   1.735   5.788   2.652 -0.2492 -0.3910 -0.4520
17114TIP3    H172757   1.810   5.756   2.602 -0.5495 -1.4996 -0.2195
17114TIP3    H272758   1.674   5.714   2.654 -0.0959 -0.5168  1.8306
17115TIP3   OH272759   5.562   1.687  14.861  0.2625  0.2201 -0.1083
17115TIP3    H172760   5.652   1.706  14.836  0.5301 -0.1557  0.5407
17115TIP3    H272761   5.569   1.609  14.916 -0.6345 -0.8378 -1.4331
17116TIP3   OH272762   4.849   5.153   1.349 -0.5865 -0.1172 -0.0783
17116TIP3    H172763   4.763   5.117   1.371  0.0078 -1.4927  0.0996
17116TIP3    H272764   4.848   5.162   1.253 -0.5061 -1.2773 -0.1944
17117TIP3   OH272765   4.036   1.995   1.641  0.0561  0.1112  0.3384
17117TIP3    H172766   3.979   1.949   1.703  0.2251 -0.7954 -0.1567
17117TIP3    H272767   4.120   2.002   1.686 -0.9871  3.6517  2.0886
17118TIP3   OH272768   2.156   3.713  12.008 -0.5183  0.4869 -0.2197
17118TIP3    H172769   2.147   3.633  11.955 -0.2338  0.4790 -0.2578
17118TIP3    H272770   2.100   3.697  12.084  0.2643 -0.1446  0.2397
17119TIP3   OH272771   2.516   1.097   3.550 -0.8750 -0.0531  0.0207
17119TIP3    H172772   2.534   1.105   3.456 -1.4951 -0.8181 -0.1765
17119TIP3    H272773   2.585   1.040   3.583 -2.2240 -2.1143 -0.5327
17120TIP3   OH272774   6.197   0.341  11.265 -0.1957 -0.0641 -0.1510
17120TIP3    H172775   6.118   0.319  11.215 -0.3736 -0.0469  0.1220
17120TIP3    H272776   6.169   0.338  11.357 -0.6397  2.8712 -0.1208
17121TIP3   OH272777   0.276   1.204   0.884  0.0903 -0.0455  0.3709
17121TIP3    H172778   0.343   1.136   0.877 -1.6548 -1.8305  0.1697
17121TIP3    H272779   0.278   1.231   0.976  1.3139  0.2191  0.2852
17122TIP3   OH272780   4.323   5.751   5.704  0.2321 -0.1693  0.3729
17122TIP3    H172781   4.396   5.747   5.765  1.1657 -0.7379 -0.7316
17122TIP3    H272782   4.329   5.839   5.666 -0.1169  0.0483  0.8144
17123TIP3   OH272783   3.231   2.583  17.059  0.1753  0.7241 -0.3966
17123TIP3    H172784   3.280   2.661  17.084  0.9827  0.0426  0.2239
17123TIP3    H272785   3.282   2.510  17.096  0.2927 -0.2131 -2.2634
17124TIP3   OH272786   1.119   4.763   4.380 -0.1256 -0.0872 -0.0790
17124TIP3    H172787   1.078   4.719   4.455  0.7322 -0.3854  0.2200
17124TIP3    H272788   1.059   4.747   4.307 -2.0169  1.8527  0.9163
17125TIP3   OH272789   0.529   0.225   6.228 -0.4423 -0.3936 -0.0093
17125TIP3    H172790   0.580   0.163   6.176  0.8140  0.3815  0.2420
17125TIP3    H272791   0.558   0.211   6.318 -2.8322 -1.9490  0.6029
17126TIP3   OH272792   5.275   6.037  12.090 -0.5053 -0.9321 -1.0802
17126TIP3    H172793   5.266   5.959  12.144 -0.1153 -1.4325 -1.7147
17126TIP3    H272794   5.191   6.045  12.044 -1.0863 -0.1155  0.0798
17127TIP3   OH272795   4.122   4.058   0.552 -0.2190  0.5880 -0.1277
17127TIP3    H172796   4.036   4.055   0.593 -0.0908  2.9393  0.4326
17127TIP3    H272797   4.166   3.978   0.582 -2.3062 -0.8926 -0.7908
17128TIP3   OH272798   3.315   3.776  14.498 -0.2067 -0.0212 -0.0956
17128TIP3    H172799   3.404   3.741  14.508 -0.4300 -0.3315  0.9385
17128TIP3    H272800   3.261   3.700  14.480 -0.3033  0.1377 -0.4814
17129TIP3   OH272801   3.649   6.784   5.161 -0.6947  0.1266  0.2474
17129TIP3    H172802   3.724   6.743   5.119 -1.1520  0.1989 -0.6746
17129TIP3    H272803   3.687   6.841   5.228  0.0053 -0.7292  0.5980
17130TIP3   OH272804   0.413   5.755   3.322 -0.1418 -0.6912 -0.3977
17130TIP3    H172805   0.468   5.751   3.244 -1.1552 -0.5870 -1.1469
17130TIP3    H272806   0.415   5.666   3.358  3.0184 -0.0261  1.4482
17131TIP3   OH272807   5.849   5.899   0.851 -0.3583  0.4257 -0.1557
17131TIP3    H172808   5.815   5.830   0.794  0.0776  1.3067 -1.5329
17131TIP3    H272809   5.831   5.868   0.939 -0.5051 -1.2780 -0.7402
17132TIP3   OH272810   0.516   1.065   0.880  0.1826 -0.2778  0.1650
17132TIP3    H172811   0.587   1.066   0.816 -0.5483 -0.0788 -0.6632
17132TIP3    H272812   0.504   0.973   0.901  1.0471 -0.2732  0.7401
17133TIP3   OH272813   0.482   1.581  14.422 -0.2695 -0.0211 -0.5833
17133TIP3    H172814   0.573   1.613  14.426  0.0544 -0.7972 -1.3261
17133TIP3    H272815   0.429   1.657  14.445  0.5686  0.4638 -0.1947
17134TIP3   OH272816   4.637   2.163   0.200 -0.4092  0.0245 -0.6554
17134TIP3    H172817   4.575   2.192   0.268 -0.3758 -0.2418 -0.5121
17134TIP3    H272818   4.640   2.236   0.138 -1.1506 -0.1111 -0.8561
17135TIP3   OH272819   6.267   2.695  11.270  0.1339 -0.1624 -0.2234
17135TIP3    H172820   6.237   2.664  11.356 -0.2680 -1.1018 -0.6840
17135TIP3    H272821   6.361   2.678  11.269 -0.2010 -2.1901 -0.7721
17136TIP3   OH272822   0.540   5.778   5.492  0.6735  0.1223 -0.3090
17136TIP3    H172823   0.459   5.797   5.444  1.4392  0.6885 -1.4337
17136TIP3    H272824   0.522   5.809   5.581 -0.4380 -0.0324 -0.4555
17137TIP3   OH272825   4.465   1.477  12.840 -0.3519 -0.2102 -0.9670
17137TIP3    H172826   4.531   1.412  12.864 -2.2699 -2.7020 -1.9285
17137TIP3    H272827   4.382   1.433  12.857 -1.7672  2.0024 -1.7653
17138TIP3   OH272828   0.474   4.101   1.434 -0.3237 -0.2742  0.7218
17138TIP3    H172829   0.536   4.170   1.412  0.0126 -1.0017 -0.7190
17138TIP3    H272830   0.512   4.022   1.396 -2.6913 -0.5438 -1.3502
17139TIP3   OH272831   3.101   4.583  16.131  0.6972  0.2920 -0.1480
17139TIP3    H172832   3.104   4.490  16.107 -0.9823  0.6644 -2.0283
17139TIP3    H272833   3.183   4.619  16.097  1.4643 -0.4922  0.7812
17140TIP3   OH272834   5.075   1.524   5.604 -0.1565  0.0133  0.2628
17140TIP3    H172835   5.003   1.584   5.583  0.5037  0.7876  0.1298
17140TIP3    H272836   5.063   1.450   5.545 -0.4672  0.4388 -0.2217
17141TIP3   OH272837   4.104   3.210  12.820 -0.2457  0.2859 -0.3463
17141TIP3    H172838   4.028   3.167  12.780 -1.1085  0.6341  0.8664
17141TIP3    H272839   4.099   3.300  12.789  0.0574  0.1483 -0.7969
17142TIP3   OH272840   2.360   5.062   2.165  0.0821 -0.0777 -0.1976
17142TIP3    H172841   2.455   5.067   2.150  0.0313 -1.9074 -1.4957
17142TIP3    H272842   2.343   4.968   2.175 -1.0691  0.3854  4.0925
17143TIP3   OH272843   3.594   6.008   0.794 -0.1091  0.2675  0.1566
17143TIP3    H172844   3.675   5.985   0.749 -0.5852  2.1488 -1.8942
17143TIP3    H272845   3.554   5.924   0.816  1.7452 -0.7069  0.0084
17144TIP3   OH272846   4.825   3.895  16.189  0.6752 -0.5252 -0.8600
17144TIP3    H172847   4.846   3.877  16.281 -1.3298  0.3564 -0.1693
17144TIP3    H272848   4.736   3.931  16.191  1.0798  0.8208 -3.0182
17145TIP3   OH272849   0.224   0.188  17.076 -0.1530 -0.0848 -0.3526
17145TIP3    H172850   0.154   0.214  17.016 -1.2047 -1.3063  0.2972
17145TIP3    H272851   0.178   0.168  17.158  1.1489  0.6432  0.5960
17146TIP3   OH272852   1.003   2.856   3.438  0.4739 -0.1494 -0.8464
17146TIP3    H172853   0.961   2.799   3.374 -1.3301  0.3755 -0.1982
17146TIP3    H272854   1.017   2.938   3.392 -0.2991  0.0430 -0.7543
17147TIP3   OH272855   5.270   5.104  13.524  0.5050  0.3719 -0.3420
17147TIP3    H172856   5.204   5.146  13.470 -0.3179 -2.3284 -1.6363
17147TIP3    H272857   5.353   5.128  13.483 -0.0312 -0.3854 -1.9721
17148TIP3   OH272858   2.248   3.906  14.125  0.4602  0.0279 -0.3206
17148TIP3    H172859   2.311   3.877  14.059  0.7176  2.0296 -1.0028
17148TIP3    H272860   2.188   3.964  14.079 -1.0643 -0.6741  0.6387
17149TIP3   OH272861   2.512   4.947  14.740  0.1417 -0.0501  0.2518
17149TIP3    H172862   2.446   4.893  14.783 -0.0026 -0.6360 -0.6742
17149TIP3    H272863   2.493   5.036  14.770 -0.8584 -0.2535  0.2652
17150TIP3   OH272864   3.585   2.916   5.681  0.2423  0.4376 -0.1633
17150TIP3    H172865   3.611   2.829   5.712  1.3342  0.1419 -1.7896
17150TIP3    H272866   3.555   2.961   5.760  0.2882 -1.1769  0.8337
17151TIP3   OH272867   3.442   1.145  12.631 -0.5325  0.6402 -0.1482
17151TIP3    H172868   3.381   1.118  12.700  0.2152 -0.4770  0.1155
17151TIP3    H272869   3.452   1.239  12.643 -0.9670  0.5778  0.8297
17152TIP3   OH272870   3.817   1.240   0.630  0.2610  0.1589 -0.1856
17152TIP3    H172871   3.766   1.183   0.572  0.7525 -1.9723  1.3553
17152TIP3    H272872   3.902   1.249   0.587  0.0976 -0.0637 -0.5598
17153TIP3   OH272873   2.004   2.376   6.136 -0.0532 -0.1108 -0.0461
17153TIP3    H172874   1.985   2.306   6.074 -0.8081 -0.3734  0.4673
17153TIP3    H272875   1.994   2.456   6.085 -1.3947 -0.2905 -0.1106
17154TIP3   OH272876   0.165   2.210   4.611 -0.1009 -0.3534 -0.3699
17154TIP3    H172877   0.213   2.148   4.556  1.5011  0.8702 -0.4503
17154TIP3    H272878   0.082   2.168   4.629  0.3568 -1.8787 -1.6249
17155TIP3   OH272879   0.177   6.073  16.060 -0.1482  0.3255 -0.0010
17155TIP3    H172880   0.188   6.166  16.083 -1.3894  1.1742 -2.4462
17155TIP3    H272881   0.262   6.047  16.025  0.2210  0.5243  0.7400
17156TIP3   OH272882   4.856   6.335  16.258  0.4460 -0.0936  0.1548
17156TIP3    H172883   4.762   6.351  16.245  0.1115 -2.1664 -0.2939
17156TIP3    H272884   4.864   6.240  16.263  2.3529  0.0916  1.7773
17157TIP3   OH272885   0.314   2.564  16.355 -0.6866  0.4668  0.4559
17157TIP3    H172886   0.408   2.565  16.372 -0.6716 -0.8940  0.5882
17157TIP3    H272887   0.283   2.648  16.387  0.2572  0.3319  1.8449
17158TIP3   OH272888   5.028   3.250  16.050 -0.2592  0.4620 -0.2567
17158TIP3    H172889   4.977   3.322  16.086 -0.1833  0.3560  0.0623
17158TIP3    H272890   5.082   3.219  16.123 -0.6438 -0.2341 -0.2636
17159TIP3   OH272891   3.489   2.642   3.674  0.1089 -0.4737  0.7055
17159TIP3    H172892   3.487   2.673   3.583 -0.3150  2.3582  1.6059
17159TIP3    H272893   3.405   2.599   3.687 -0.0143 -0.4892 -0.0728
17160TIP3   OH272894   4.043   1.780   2.938 -0.6028  0.0868  0.4879
17160TIP3    H172895   4.058   1.866   2.975  2.0902  0.1785 -0.6004
17160TIP3    H272896   3.988   1.795   2.861  1.2921  1.1667 -0.7373
17161TIP3   OH272897   4.609   4.263  17.086  0.2192 -0.5074  0.4418
17161TIP3    H172898   4.578   4.298  17.003  0.9446  0.3899  0.5290
17161TIP3    H272899   4.645   4.339  17.132  3.8042 -1.6058 -0.2187
17162TIP3   OH272900   2.174   3.153  14.123 -0.4362 -0.1653 -0.3895
17162TIP3    H172901   2.145   3.198  14.203  1.7441 -0.4550  0.6289
17162TIP3    H272902   2.097   3.155  14.066 -1.4376  1.9174  0.8885
17163TIP3   OH272903   0.651   3.004  16.244  0.1580 -0.4842  0.3255
17163TIP3    H172904   0.691   2.956  16.171  0.7340 -0.7148  0.7860
17163TIP3    H272905   0.578   2.949  16.272 -0.1418 -0.3359 -0.1522
17164TIP3   OH272906   6.279   6.645  16.218  0.1790 -0.0879  0.3118
17164TIP3    H172907   6.270   6.737  16.244  0.2965 -0.0957  0.3802
17164TIP3    H272908   6.342   6.647  16.146  1.2165 -0.2621  1.1915
17165TIP3   OH272909   0.951   6.477  15.334  0.4788  0.0766 -0.2606
17165TIP3    H172910   1.030   6.436  15.298  1.1049 -2.3617  3.3686
17165TIP3    H272911   0.983   6.554  15.381  0.4749  0.0744 -0.2544
17166TIP3   OH272912   5.848   4.288  15.021 -0.2119 -0.1367  0.0315
17166TIP3    H172913   5.766   4.333  15.041 -1.2458 -1.6010 -0.7477
17166TIP3    H272914   5.824   4.220  14.958  1.2128 -2.0174  1.3894
17167TIP3   OH272915   1.151   3.996  14.119 -0.0663 -0.4158  0.0668
17167TIP3    H172916   1.201   4.047  14.183 -0.1737 -1.5665  1.1137
17167TIP3    H272917   1.211   3.929  14.090  0.3907  0.8290 -2.0455
17168TIP3   OH272918   1.645   3.523   6.058 -0.2957  0.0688 -0.2738
17168TIP3    H172919   1.701   3.509   6.135  0.9102 -2.1586 -1.4473
17168TIP3    H272920   1.680   3.603   6.018 -0.8718  1.1977  1.3699
17169TIP3   OH272921   1.356   6.553  15.109 -0.1968 -0.0907 -0.7323
17169TIP3    H172922   1.289   6.522  15.169 -0.7868  1.3657 -0.5868
17169TIP3    H272923   1.376   6.642  15.140 -0.2150  0.5304 -2.4268
17170TIP3   OH272924   6.801   1.444   1.001  0.3052  0.8108 -0.1796
17170TIP3    H172925   6.845   1.522   1.036  0.2758  0.6736  0.1599
17170TIP3    H272926   6.824   1.374   1.062 -1.4561  1.0060  0.7525
17171TIP3   OH272927   0.283   5.279  11.005 -0.7741  0.3320 -0.3706
17171TIP3    H172928   0.262   5.187  10.985 -1.5817  0.4942 -0.3100
17171TIP3    H272929   0.377   5.285  10.992 -0.4366 -0.9057  1.1586
17172TIP3   OH272930   4.285   5.540   0.129  0.1835  0.0342  0.0531
17172TIP3    H172931   4.295   5.635   0.134 -0.9833  0.2334 -0.9069
17172TIP3    H272932   4.372   5.506   0.145  0.6677  1.2797  0.1748
17173TIP3   OH272933   3.896   5.529   1.566 -0.3465  0.4715 -0.1289
17173TIP3    H172934   3.853   5.589   1.626  1.1444  2.6907 -1.1411
17173TIP3    H272935   3.895   5.573   1.481 -1.9549 -2.3505 -1.7284
17174TIP3   OH272936   0.654   4.206   0.708 -0.1487 -0.5648  0.0810
17174TIP3    H172937   0.733   4.162   0.677  0.7164  1.5923 -0.9921
17174TIP3    H272938   0.608   4.140   0.760  1.5291 -2.3786 -0.6293
17175TIP3   OH272939   0.243   6.175  14.279  0.1700 -0.2349  0.0451
17175TIP3    H172940   0.187   6.187  14.203  0.0417 -1.0069  0.0016
17175TIP3    H272941   0.294   6.096  14.258  0.0315 -0.5341  0.8140
17176TIP3   OH272942   4.051   2.966  16.876 -0.5108  0.1915  0.1600
17176TIP3    H172943   4.032   2.886  16.827  1.2028  1.2442 -2.4339
17176TIP3    H272944   3.967   3.013  16.879 -0.9233 -0.4559 -0.7302
17177TIP3   OH272945   5.554   2.333  13.378  0.2731 -0.3663  0.5993
17177TIP3    H172946   5.577   2.419  13.342 -3.7486  0.1919 -1.1022
17177TIP3    H272947   5.609   2.271  13.330  1.4818  1.0565  0.0740
17178TIP3   OH272948   3.941   0.391  12.302 -0.5264  0.6165  0.5141
17178TIP3    H172949   4.021   0.345  12.277 -1.0117 -0.1433  0.3275
17178TIP3    H272950   3.972   0.474  12.340  0.3424  0.3382  0.4410
17179TIP3   OH272951   4.223   2.687  12.268  0.3495  0.1574 -0.4974
17179TIP3    H172952   4.251   2.778  12.271 -0.9700  0.5971 -0.7369
17179TIP3    H272953   4.151   2.686  12.204  0.0275 -0.9512 -0.1431
17180TIP3   OH272954   3.978   6.030   4.966 -0.4028  0.3708  0.4888
17180TIP3    H172955   3.958   5.937   4.979  0.4107  0.2915  1.2970
17180TIP3    H272956   3.947   6.073   5.046  0.3014  0.6104  0.6440
17181TIP3   OH272957   1.696   3.290   0.851 -0.0187  0.2292  0.2089
17181TIP3    H172958   1.641   3.368   0.859  0.2717  0.3570  1.0518
17181TIP3    H272959   1.647   3.221   0.895 -1.6329 -0.8550 -2.9533
17182TIP3   OH272960   0.144   2.928  12.902 -0.2101  0.7634 -0.1160
17182TIP3    H172961   0.077   2.943  12.835 -1.8309 -1.7972  0.7944
17182TIP3    H272962   0.215   2.883  12.856 -1.6089 -1.6229 -0.1090
17183TIP3   OH272963   6.661   6.125  17.013  0.1235  1.2494 -0.3590
17183TIP3    H172964   6.696   6.073  16.941 -0.6939 -0.3391  0.3468
17183TIP3    H272965   6.652   6.213  16.977  2.1167  1.0810 -1.4121
17184TIP3   OH272966   6.732   3.698  10.923  0.3143  0.0149 -0.1683
17184TIP3    H172967   6.702   3.620  10.877  0.3609  0.6558 -1.3396
17184TIP3    H272968   6.693   3.771  10.874  1.1458  0.7614  0.2421
17185TIP3   OH272969   1.131   1.244  12.026 -0.5441 -0.0930  0.3090
17185TIP3    H172970   1.166   1.176  12.083  1.2426  0.1912 -0.4094
17185TIP3    H272971   1.206   1.275  11.975 -1.4714  1.8028 -0.0094
17186TIP3   OH272972   3.055   0.833   4.798 -0.2795 -0.1248  0.2232
17186TIP3    H172973   3.005   0.874   4.727 -1.9526 -1.2044  0.7146
17186TIP3    H272974   2.990   0.811   4.864  0.6315 -2.6864  0.3806
17187TIP3   OH272975   3.024   2.469   4.586 -0.2640 -0.7135 -0.3726
17187TIP3    H172976   3.114   2.436   4.587 -0.2829 -0.8039 -1.2229
17187TIP3    H272977   3.011   2.501   4.497  0.2826  3.0997  0.7208
17188TIP3   OH272978   5.123   2.244   2.963  0.1835  0.8305 -0.0665
17188TIP3    H172979   5.211   2.273   2.985  0.0912  0.7870  0.3788
17188TIP3    H272980   5.105   2.282   2.877  0.8020  0.4697 -0.3614
17189TIP3   OH272981   3.757   4.409  16.512  0.2000  0.1070 -0.0634
17189TIP3    H172982   3.694   4.476  16.539  0.8493  1.3987 -1.5315
17189TIP3    H272983   3.819   4.404  16.584 -0.2260  0.6319  0.3485
17190TIP3   OH272984   0.680   3.513  15.856 -1.0746 -0.0049  0.2024
17190TIP3    H172985   0.634   3.539  15.936 -1.0577  0.7466 -0.0206
17190TIP3    H272986   0.652   3.577  15.791 -0.0457  0.2204 -0.0438
17191TIP3   OH272987   0.330   3.398   6.124  0.2102  0.5707 -0.1135
17191TIP3    H172988   0.371   3.399   6.211 -0.1198  2.2190  0.0721
17191TIP3    H272989   0.249   3.447   6.136 -1.3553 -1.7435 -0.7086
17192TIP3   OH272990   6.780   5.806   2.805  0.4600  0.2651 -0.0499
17192TIP3    H172991   6.872   5.805   2.780  1.0803  1.6008  1.9696
17192TIP3    H272992   6.777   5.855   2.887 -2.0238  0.0307  0.0932
17193TIP3   OH272993   5.422   3.382  10.727  0.1289  0.0459 -0.2327
17193TIP3    H172994   5.351   3.342  10.677  1.2597 -0.1076 -1.7821
17193TIP3    H272995   5.478   3.422  10.662  1.3456  0.3846  0.9726
17194TIP3   OH272996   4.586   5.540  13.475 -0.4195  0.0410  0.6001
17194TIP3    H172997   4.616   5.466  13.422 -0.7096 -0.6201  1.3399
17194TIP3    H272998   4.608   5.516  13.565 -2.2104 -0.0140  1.0648
17195TIP3   OH272999   0.499   0.348  16.167 -0.2750 -0.4430  0.3002
17195TIP3    H173000   0.571   0.330  16.106  0.4798  0.4366  0.8961
17195TIP3    H273001   0.420   0.340  16.114  0.3345 -0.1919 -0.6745
17196TIP3   OH273002   4.381   6.584   5.750  0.9081 -0.3029 -0.2774
17196TIP3    H173003   4.355   6.576   5.842  1.8106 -0.5524 -0.0411
17196TIP3    H273004   4.317   6.531   5.703  2.1358 -2.6233  0.5035
17197TIP3   OH273005   1.245   3.046   0.357 -0.4902  0.1597 -0.4731
17197TIP3    H173006   1.154   3.074   0.366 -0.3481  0.4339  0.1871
17197TIP3    H273007   1.292   3.124   0.330 -0.1131  0.5659  1.2497
17198TIP3   OH273008   3.985   3.592   2.616 -0.0604 -0.3232 -0.6306
17198TIP3    H173009   3.898   3.561   2.643 -0.9696  1.5423 -1.1941
17198TIP3    H273010   4.007   3.659   2.680  0.1805  0.3928 -1.4373
17199TIP3   OH273011   0.337   5.947  15.259  0.3703 -0.0855 -0.0332
17199TIP3    H173012   0.270   5.907  15.314 -0.5691  1.2053 -0.2017
17199TIP3    H273013   0.377   5.873  15.213  0.1987 -1.0370  1.2814
17200TIP3   OH273014   5.756   2.856  12.926  0.4727  0.2559  0.3228
17200TIP3    H173015   5.782   2.927  12.868  0.8063  0.7699  1.0746
17200TIP3    H273016   5.805   2.872  13.007 -0.0301 -0.3970  0.7716
17201TIP3   OH273017   6.453   4.515  12.294 -0.6094 -0.1863  0.1848
17201TIP3    H173018   6.543   4.485  12.307 -0.6445 -0.7144 -0.6919
17201TIP3    H273019   6.448   4.598  12.341  0.7060  0.4581 -0.7401
17202TIP3   OH273020   2.656   3.662   3.633 -0.3461 -0.0440 -0.3623
17202TIP3    H173021   2.639   3.570   3.653 -0.2397 -0.3023 -1.3889
17202TIP3    H273022   2.591   3.684   3.566  0.4315  0.2708 -1.0203
17203TIP3   OH273023   0.785   2.662  14.597  0.4583  0.2388 -0.2094
17203TIP3    H173024   0.715   2.630  14.541  0.3221  0.5904 -0.2415
17203TIP3    H273025   0.845   2.588  14.605  0.4204  0.1474 -0.7280
17204TIP3   OH273026   5.946   1.739   2.709 -0.6561  0.1507  0.5317
17204TIP3    H173027   6.004   1.814   2.723 -2.0299  1.4514 -0.4868
17204TIP3    H273028   5.945   1.726   2.615 -0.8582 -0.8309  0.6551
17205TIP3   OH273029   3.975   5.688   3.606  0.0852 -0.0591  0.9456
17205TIP3    H173030   3.931   5.770   3.625 -2.1214 -1.0464  0.4974
17205TIP3    H273031   4.058   5.713   3.567 -0.9053  1.9745  0.0005
17206TIP3   OH273032   0.812   0.874  13.860 -0.3474 -0.2358 -0.0624
17206TIP3    H173033   0.747   0.876  13.930 -2.0986  0.5737 -1.6479
17206TIP3    H273034   0.768   0.831  13.787  1.3471 -0.8138 -0.7895
17207TIP3   OH273035   2.791   2.029   2.473 -0.0205 -0.0799  0.4202
17207TIP3    H173036   2.848   1.961   2.510 -0.9802 -1.4739 -0.5504
17207TIP3    H273037   2.851   2.099   2.447  0.8588  0.1235  2.7815
17208TIP3   OH273038   3.468   1.011   5.028 -0.1460 -0.1416  0.1333
17208TIP3    H173039   3.486   1.101   5.057  1.6642  0.0189 -1.2899
17208TIP3    H273040   3.404   1.021   4.957  0.1312  0.0507 -0.0933
17209TIP3   OH273041   3.886   2.691   1.049  0.1637  0.5208 -0.8531
17209TIP3    H173042   3.965   2.642   1.068 -0.4103  0.3644  1.4286
17209TIP3    H273043   3.815   2.640   1.089 -0.7672  1.8715 -0.6917
17210TIP3   OH273044   2.511   4.659  16.024 -0.2266 -0.0605  0.0301
17210TIP3    H173045   2.536   4.597  16.092 -1.6878 -0.8745 -0.1451
17210TIP3    H273046   2.455   4.610  15.965 -0.4698  1.1184 -0.7695
17211TIP3   OH273047   1.693   6.748  15.851  0.3618 -0.4681  0.2140
17211TIP3    H173048   1.678   6.843  15.851 -0.8532 -0.6159 -1.2827
17211TIP3    H273049   1.743   6.732  15.930  3.7762  1.8766 -1.2373
17212TIP3   OH273050   3.681   2.300  14.104 -0.1664 -0.7698  0.0861
17212TIP3    H173051   3.677   2.284  14.010 -1.0579 -3.0681  0.4666
17212TIP3    H273052   3.768   2.337  14.119 -0.7514  1.7010 -1.8625
17213TIP3   OH273053   4.521   4.186   4.936  0.1466  0.4046  0.7923
17213TIP3    H173054   4.501   4.272   4.973  0.3973  0.8572 -0.1074
17213TIP3    H273055   4.613   4.172   4.956  0.3478  0.7598  0.1403
17214TIP3   OH273056   3.122   5.233  15.424  0.4648  0.0815 -0.1751
17214TIP3    H173057   3.074   5.208  15.345  1.0303  0.5950 -0.6947
17214TIP3    H273058   3.054   5.256  15.488 -0.0324 -1.4974 -0.1020
17215TIP3   OH273059   3.455   5.232  16.842 -0.2732  0.0277 -0.1384
17215TIP3    H173060   3.444   5.312  16.894  1.7092  0.4246 -0.2300
17215TIP3    H273061   3.367   5.212  16.809 -1.1143  1.2007  1.2764
17216TIP3   OH273062   2.626   2.517   2.059 -0.9658  0.4099 -0.1146
17216TIP3    H173063   2.641   2.600   2.105  0.0501 -0.5912  1.4303
17216TIP3    H273064   2.709   2.498   2.016 -0.8372 -0.3480  0.4521
17217TIP3   OH273065   4.890   5.273  16.180 -0.3744 -0.1176 -0.1184
17217TIP3    H173066   4.893   5.298  16.088  1.8119 -0.3438 -0.1693
17217TIP3    H273067   4.814   5.318  16.215  0.4634  2.4551 -1.3658
17218TIP3   OH273068   3.824   3.453  16.269 -0.1110  0.8977  0.3530
17218TIP3    H173069   3.822   3.525  16.332  1.0429 -0.2276  1.7579
17218TIP3    H273070   3.746   3.401  16.290  0.8150 -0.0478  1.6387
17219TIP3   OH273071   0.028   0.218  15.109  0.1854 -0.0638  0.0610
17219TIP3    H173072   0.064   0.252  15.191 -0.0235 -0.7339  0.4345
17219TIP3    H273073  -0.022   0.141  15.135 -1.2798  0.6590 -0.4775
17220TIP3   OH273074   6.613   1.035  16.190 -0.3009 -0.0275  0.0752
17220TIP3    H173075   6.703   1.019  16.219 -0.9049 -1.3635  1.3262
17220TIP3    H273076   6.622   1.098  16.119  1.5115  1.2276  1.3009
17221TIP3   OH273077   0.386   2.117  15.851 -0.2118  0.0382  0.0561
17221TIP3    H173078   0.395   2.212  15.859  0.6015 -0.0457  0.2566
17221TIP3    H273079   0.324   2.093  15.920 -0.6748  0.4568 -0.2086
17222TIP3   OH273080   2.270   0.297   1.530  0.6481  0.0201  0.1842
17222TIP3    H173081   2.289   0.205   1.514 -1.3375 -0.3513 -0.4093
17222TIP3    H273082   2.236   0.300   1.619  1.2817  0.2827  0.4188
17223TIP3   OH273083   2.103   4.297  16.183  0.8581  0.3426  0.4587
17223TIP3    H173084   2.048   4.374  16.202  2.1397  1.3423  0.2295
17223TIP3    H273085   2.106   4.249  16.266 -1.1200 -0.2492  0.2316
17224TIP3   OH273086   5.304   6.725   0.519 -0.0287  0.1248 -0.1222
17224TIP3    H173087   5.315   6.760   0.430 -1.9046  0.0229 -0.4526
17224TIP3    H273088   5.310   6.630   0.509  0.2274  0.1348 -0.0613
17225TIP3   OH273089   0.074   5.211   3.543  0.0477  0.5512  0.5982
17225TIP3    H173090   0.024   5.173   3.615 -1.1881  2.0263  0.5588
17225TIP3    H273091   0.160   5.170   3.550 -0.6912 -0.9369  1.5833
17226TIP3   OH273092   4.807   4.638   4.726 -0.0484 -0.7921 -0.2542
17226TIP3    H173093   4.773   4.616   4.812  1.3389 -0.9216  0.2902
17226TIP3    H273094   4.762   4.580   4.666 -1.3387 -0.4166  0.3258
17227TIP3   OH273095   5.066   5.665   6.160 -0.6053  0.2224 -0.6922
17227TIP3    H173096   5.003   5.730   6.190  0.2849  1.1252 -0.6875
17227TIP3    H273097   5.151   5.707   6.173 -0.0330 -0.7235 -1.2426
17228TIP3   OH273098   4.328   1.743  12.624  0.1250 -0.1313 -0.4459
17228TIP3    H173099   4.262   1.770  12.560  0.8069  2.5432 -0.1333
17228TIP3    H273100   4.408   1.735  12.573  0.1669 -0.4497 -0.3312
17229TIP3   OH273101   5.010   0.787   0.756  0.0231  0.5316 -0.4287
17229TIP3    H173102   4.965   0.757   0.835 -0.2906 -0.0807 -0.8291
17229TIP3    H273103   4.940   0.809   0.695  0.2585  1.4562 -0.3790
17230TIP3   OH273104   6.160   0.166  13.388  0.2821 -0.1234  0.8164
17230TIP3    H173105   6.161   0.258  13.361 -1.0101  0.1563  1.6412
17230TIP3    H273106   6.250   0.136  13.372  0.8472  1.3915  0.9279
17231TIP3   OH273107   4.182   3.977  15.585 -0.1979  0.0321  0.2027
17231TIP3    H173108   4.187   4.071  15.564  0.6629  0.1747  0.9601
17231TIP3    H273109   4.144   3.937  15.507 -1.5553  1.1382  0.2703
17232TIP3   OH273110   3.307   0.356   0.210  0.4835 -0.3357 -0.2255
17232TIP3    H173111   3.229   0.316   0.172  0.1924  0.0393 -0.0330
17232TIP3    H273112   3.306   0.447   0.179  0.9483 -0.3807 -0.3779
17233TIP3   OH273113   2.799   3.174   4.013  0.5188 -0.2938 -0.2627
17233TIP3    H173114   2.846   3.257   4.015  0.6848 -0.3741 -0.6750
17233TIP3    H273115   2.730   3.184   4.078  0.2131  0.3601 -0.6779
17234TIP3   OH273116   4.176   2.755   1.686 -0.2782 -0.1482  0.2428
17234TIP3    H173117   4.117   2.762   1.761 -0.0227 -1.1692  0.5615
17234TIP3    H273118   4.226   2.675   1.703 -0.1956 -0.3826 -1.0081
17235TIP3   OH273119   2.597   4.529   5.210 -0.2843  0.1305 -0.8514
17235TIP3    H173120   2.573   4.481   5.130  0.8336  0.8597 -1.6627
17235TIP3    H273121   2.595   4.463   5.279 -3.6906 -0.0369 -0.9507
17236TIP3   OH273122   4.059   1.709   1.788 -0.8200  0.6068 -0.0762
17236TIP3    H173123   3.999   1.693   1.861 -0.1445  0.5269  0.4699
17236TIP3    H273124   4.143   1.729   1.829  0.2692 -1.9724 -0.8150
17237TIP3   OH273125   2.427   3.583  15.917  0.4547 -0.2962 -0.3317
17237TIP3    H173126   2.446   3.490  15.915  0.1641 -0.3527 -0.5768
17237TIP3    H273127   2.479   3.621  15.846  3.7729  0.3711  2.2297
17238TIP3   OH273128   0.363   3.360  16.366 -0.4907 -0.2083 -0.4559
17238TIP3    H173129   0.401   3.293  16.310 -0.3150  1.1557 -2.0657
17238TIP3    H273130   0.434   3.424  16.379 -0.2768 -0.8667  2.0440
17239TIP3   OH273131   1.756   3.918  16.286  0.2245  0.2139  0.0662
17239TIP3    H173132   1.687   3.893  16.224  0.3664 -0.9382  0.3343
17239TIP3    H273133   1.776   4.009  16.266 -0.0954  0.0152 -1.2422
17240TIP3   OH273134   1.808   4.466  16.532  0.2344  0.0394 -0.4950
17240TIP3    H173135   1.815   4.403  16.604 -0.2265 -0.4088 -0.8329
17240TIP3    H273136   1.761   4.540  16.570 -1.3346 -0.8077 -0.7054
17241TIP3   OH273137   1.114   5.786   5.237 -0.2121  0.0139 -0.0836
17241TIP3    H173138   1.153   5.758   5.320 -1.1114  0.5473  0.5291
17241TIP3    H273139   1.138   5.878   5.229  0.1068 -0.1061 -0.5678
17242TIP3   OH273140   2.093   2.195  17.017 -1.1162 -0.0055  0.2420
17242TIP3    H173141   2.060   2.165  16.932 -0.6540 -1.3340  0.5104
17242TIP3    H273142   2.187   2.204  17.004 -1.1787  0.8220  0.3255
17243TIP3   OH273143   2.569   0.651   5.565 -0.2489 -0.5424 -0.0819
17243TIP3    H173144   2.552   0.589   5.494 -0.8701 -0.6795  0.1859
17243TIP3    H273145   2.515   0.728   5.544  0.1845 -0.2613 -0.1818
17244TIP3   OH273146   1.286   4.152  15.882  0.6847 -0.0108 -0.1047
17244TIP3    H173147   1.324   4.225  15.931  0.1442  0.8979 -1.0002
17244TIP3    H273148   1.280   4.185  15.792 -0.4002 -0.8406 -0.3452
17245TIP3   OH273149   0.426   5.238   1.658  0.2084  0.3815  0.1860
17245TIP3    H173150   0.395   5.319   1.699 -1.3698 -1.1304  2.2066
17245TIP3    H273151   0.466   5.189   1.730  1.9034 -0.3245 -1.1620
17246TIP3   OH273152   3.103   1.077   3.829 -0.4020 -0.4735  0.1254
17246TIP3    H173153   3.190   1.060   3.866 -1.4917 -1.8964  2.2776
17246TIP3    H273154   3.119   1.141   3.760  2.5301 -1.8129 -0.6089
17247TIP3   OH273155   3.629   6.709   1.310 -0.0832 -0.0030 -0.0821
17247TIP3    H173156   3.613   6.790   1.358 -0.8658  0.0930 -0.4951
17247TIP3    H273157   3.587   6.722   1.225 -2.5653 -1.8170  0.7397
17248TIP3   OH273158   1.327   3.903  17.091 -0.0836  0.2906 -0.4559
17248TIP3    H173159   1.292   3.881  17.178  0.8064 -1.2171 -0.4399
17248TIP3    H273160   1.250   3.899  17.034 -0.4775  0.0892  0.0721
17249TIP3   OH273161   0.212   3.026  16.131  0.0199  0.1052  0.0809
17249TIP3    H173162   0.207   3.054  16.222  2.1820 -1.7122  0.8561
17249TIP3    H273163   0.173   2.938  16.130 -1.7312  0.8374 -1.1836
17250TIP3   OH273164   0.849   2.239  11.998  0.3251 -0.3640 -0.2970
17250TIP3    H173165   0.937   2.213  12.026  0.0277  0.1795  1.2540
17250TIP3    H273166   0.817   2.165  11.947  1.3955 -0.8759 -0.2587
17251TIP3   OH273167   5.360   2.720   4.235 -0.1232  0.3671  0.6520
17251TIP3    H173168   5.343   2.650   4.298 -1.1318  0.5124  0.5540
17251TIP3    H273169   5.341   2.681   4.150 -0.9773  0.8454  0.6190
17252TIP3   OH273170   6.766   2.018  16.093  0.2472  0.1390  0.1026
17252TIP3    H173171   6.732   2.105  16.110  1.2655  0.8990 -1.5182
17252TIP3    H273172   6.858   2.032  16.072  0.5469 -1.3854  0.2804
17253TIP3   OH273173   4.043   5.658  16.990  0.2259  0.2199 -0.3221
17253TIP3    H173174   4.079   5.578  17.028  0.5259  0.8676  0.8014
17253TIP3    H273175   3.996   5.628  16.913  0.7336 -0.9870 -0.1924
17254TIP3   OH273176   5.753   4.396  13.047  0.0646 -0.2227  0.3484
17254TIP3    H173177   5.687   4.341  13.005  0.4693 -0.8959  0.5777
17254TIP3    H273178   5.722   4.486  13.034  0.4330 -0.3633 -1.8387
17255TIP3   OH273179   0.993   4.662  11.362  0.5381  0.3663  0.1231
17255TIP3    H173180   1.051   4.714  11.418 -0.8708  0.7645  1.2866
17255TIP3    H273181   0.905   4.692  11.384 -0.1771 -0.7640 -1.0189
17256TIP3   OH273182   3.139   0.731   3.686 -0.1099  0.0923  0.5405
17256TIP3    H173183   3.114   0.684   3.607 -0.1805 -0.1948  0.7303
17256TIP3    H273184   3.060   0.782   3.710 -0.0488  0.2709  0.3614
17257TIP3   OH273185   3.681   0.281  13.207  0.3062 -0.2917  0.6417
17257TIP3    H173186   3.601   0.236  13.178 -1.3304  2.5916  0.3558
17257TIP3    H273187   3.752   0.220  13.186 -1.5780 -1.9151 -1.4389
17258TIP3   OH273188   1.938   4.978   0.064  0.7714 -0.4544  0.6624
17258TIP3    H173189   1.887   5.057   0.080  1.1974  0.0830 -0.5121
17258TIP3    H273190   1.913   4.918   0.135 -0.6805  0.1678  0.7079
17259TIP3   OH273191   0.634   0.157   0.919 -0.1817 -0.1566 -0.8226
17259TIP3    H173192   0.661   0.228   0.860 -3.1329 -0.2005 -2.3823
17259TIP3    H273193   0.621   0.201   1.003  0.6255  0.6161 -1.0786
17260TIP3   OH273194   3.693   4.945  11.040 -0.4538 -0.1186 -0.6467
17260TIP3    H173195   3.647   4.962  11.122  0.0026 -1.4015 -0.0962
17260TIP3    H273196   3.751   5.021  11.029  0.5396 -0.5977  0.9905
17261TIP3   OH273197   0.666   0.367   1.202  0.3855 -0.3256 -0.5216
17261TIP3    H173198   0.726   0.293   1.208 -0.0357 -0.6997 -0.8300
17261TIP3    H273199   0.615   0.363   1.283  0.3437 -0.3880 -0.5511
17262TIP3   OH273200   0.749   1.156  12.254 -0.0575  0.0990 -0.0154
17262TIP3    H173201   0.778   1.234  12.302  0.0032 -0.4654  0.8749
17262TIP3    H273202   0.827   1.101  12.248 -0.0925  0.1134 -0.6732
17263TIP3   OH273203   1.749   4.907   1.158 -0.2453  0.2611  0.0789
17263TIP3    H173204   1.774   4.952   1.077  2.1256 -0.5092  0.3119
17263TIP3    H273205   1.678   4.849   1.132  0.6227 -0.1399 -1.5296
17264TIP3   OH273206   6.797   5.534  16.523 -0.2766 -0.2857  0.2790
17264TIP3    H173207   6.849   5.565  16.597 -0.2185 -0.4170  0.2932
17264TIP3    H273208   6.833   5.580  16.448 -0.8842  0.4784  0.4513
17265TIP3   OH273209   0.543   3.212   3.981 -0.0968 -0.2161  0.0186
17265TIP3    H173210   0.549   3.146   4.049  0.3279 -1.2959 -1.0393
17265TIP3    H273211   0.624   3.262   3.988 -0.5326  0.4013  0.9876
17266TIP3   OH273212   2.825   5.144  11.709 -0.2119  0.1894 -0.1498
17266TIP3    H173213   2.792   5.143  11.799 -0.1153 -0.6443 -0.1193
17266TIP3    H273214   2.769   5.208  11.664  1.0297  2.1673  0.9721
17267TIP3   OH273215   5.349   0.132  15.294 -0.4581 -0.2617 -0.0782
17267TIP3    H173216   5.434   0.106  15.261 -0.6633  0.9091 -1.6785
17267TIP3    H273217   5.318   0.199  15.232 -3.8467 -2.7275 -1.3665
17268TIP3   OH273218   0.333   6.773   0.782 -0.5324  0.0609  0.1662
17268TIP3    H173219   0.379   6.850   0.750  1.1912 -0.6481  0.8566
17268TIP3    H273220   0.244   6.783   0.748  0.5909  0.4367 -3.0019
17269TIP3   OH273221   5.250   3.353   1.105  0.2628  0.2791 -0.4011
17269TIP3    H173222   5.270   3.446   1.102 -0.0642  0.3317 -0.9632
17269TIP3    H273223   5.279   3.325   1.192  0.7075  0.8227 -0.3704
17270TIP3   OH273224   4.340   2.700  14.210 -0.2480 -0.0322  0.3428
17270TIP3    H173225   4.411   2.641  14.184 -1.8660 -2.0782  0.2810
17270TIP3    H273226   4.338   2.695  14.305  0.1840  0.6707  0.3966
17271TIP3   OH273227   3.128   5.077  14.209 -0.5045 -0.3776 -0.2983
17271TIP3    H173228   3.197   5.140  14.189 -1.0084 -0.5714 -3.1237
17271TIP3    H273229   3.159   5.032  14.287  2.4483 -0.2498 -1.2527
17272TIP3   OH273230   1.617   4.171   5.038  0.4845 -0.6453  0.3477
17272TIP3    H173231   1.670   4.247   5.061  0.9688 -1.5636  2.5023
17272TIP3    H273232   1.651   4.143   4.953  0.3811  1.4298 -0.4295
17273TIP3   OH273233   1.332   0.867  15.644 -0.0079 -0.2431  0.0528
17273TIP3    H173234   1.285   0.950  15.657 -1.3692 -0.9068 -0.4238
17273TIP3    H273235   1.263   0.800  15.647  0.3029 -1.0142 -4.1529
17274TIP3   OH273236   0.389   2.477   0.453 -0.3037  0.3405 -0.2923
17274TIP3    H173237   0.450   2.518   0.392 -0.3384  0.0718 -0.5102
17274TIP3    H273238   0.360   2.548   0.510 -0.7693  0.7300 -0.9982
17275TIP3   OH273239   3.022   2.664   2.945 -0.4531 -0.0498  0.2457
17275TIP3    H173240   3.116   2.650   2.944 -0.5828 -0.9724 -0.4557
17275TIP3    H273241   2.986   2.592   2.893 -1.5814  0.0283  0.8792
17276TIP3   OH273242   3.460   1.931   2.905 -0.1699  0.1176  0.1182
17276TIP3    H173243   3.415   2.011   2.932 -1.2897  0.2131 -1.8147
17276TIP3    H273244   3.494   1.894   2.986 -1.5222  1.4057  1.3366
17277TIP3   OH273245   4.676   1.868  12.754  0.3381 -0.0921 -0.3321
17277TIP3    H173246   4.595   1.918  12.748 -0.6049 -1.5520 -0.3417
17277TIP3    H273247   4.720   1.883  12.671 -0.4420 -0.1316 -0.7585
17278TIP3   OH273248   1.910   6.393  15.456  0.0310 -0.4588  0.1752
17278TIP3    H173249   1.867   6.478  15.455  1.3813  0.3049  1.9450
17278TIP3    H273250   1.930   6.377  15.548  1.6708 -1.7308 -0.3557
17279TIP3   OH273251   4.928   6.741  14.432 -0.1014 -0.0192  1.0169
17279TIP3    H173252   4.854   6.680  14.438 -0.1552 -0.1245 -0.4613
17279TIP3    H273253   4.893   6.816  14.384  0.0536  1.0861  2.5287
17280TIP3   OH273254   1.507   6.350  10.386  0.0218  0.2332 -0.0586
17280TIP3    H173255   1.462   6.352  10.470  0.0213  0.4554 -0.0622
17280TIP3    H273256   1.539   6.440  10.374 -1.0156  0.5274 -0.8490
17281TIP3   OH273257   1.321   4.195  11.684 -0.0655  0.0435 -0.0702
17281TIP3    H173258   1.380   4.207  11.610 -0.9015  3.7429 -0.3162
17281TIP3    H273259   1.235   4.220  11.650 -0.9777 -0.9026  1.4407
17282TIP3   OH273260   6.177   2.159  13.049  1.0210 -0.2281  0.7711
17282TIP3    H173261   6.176   2.244  13.005  0.7423 -0.9479 -0.6809
17282TIP3    H273262   6.090   2.152  13.088  0.8983 -0.0089  0.5439
17283TIP3   OH273263   0.871   4.343   0.264  0.1626  0.2861  0.3055
17283TIP3    H173264   0.883   4.438   0.264  1.4488  0.1392  0.2422
17283TIP3    H273265   0.835   4.323   0.350 -0.8954  0.9024  0.0279
17284TIP3   OH273266   3.957   3.707   1.678  0.8036  0.3822 -0.0553
17284TIP3    H173267   3.901   3.657   1.737  0.0883  0.4333 -0.6774
17284TIP3    H273268   3.897   3.748   1.616  1.5407  0.1976 -0.9267
17285TIP3   OH273269   0.861   3.538  16.855 -0.4165 -0.2773 -0.1491
17285TIP3    H173270   0.914   3.533  16.934  1.8845 -1.0651 -1.6592
17285TIP3    H273271   0.893   3.615  16.808  0.4193 -1.5281 -1.7344
17286TIP3   OH273272   5.194   1.818   2.430  0.4644 -0.4620  0.2680
17286TIP3    H173273   5.107   1.851   2.409  0.2931 -1.0298  0.0822
17286TIP3    H273274   5.241   1.895   2.463 -0.3089 -0.2904  1.0070
17287TIP3   OH273275   5.965   2.025  15.829 -0.2738  0.5961  0.7415
17287TIP3    H173276   5.874   2.030  15.858 -0.3208 -1.2382  1.0287
17287TIP3    H273277   5.973   1.940  15.786  0.7568  1.6807 -1.3862
17288TIP3   OH273278   3.959   5.627  14.547 -0.3869 -0.3566 -0.6268
17288TIP3    H173279   4.013   5.670  14.481  0.1185  1.0316  0.6457
17288TIP3    H273280   4.018   5.613  14.621 -0.8923 -2.0473 -0.5070
17289TIP3   OH273281   6.764   2.890   3.133  0.1455  0.0878  0.2357
17289TIP3    H173282   6.728   2.931   3.054  0.5231 -0.9285 -0.4775
17289TIP3    H273283   6.814   2.815   3.101  1.6990  0.6133  1.3095
17290TIP3   OH273284   0.630   2.872  11.779 -0.4696 -0.5948  0.7026
17290TIP3    H173285   0.706   2.927  11.799 -0.0851 -1.0763  0.5685
17290TIP3    H273286   0.618   2.818  11.857 -0.4392 -0.7923  0.5707
17291TIP3   OH273287   1.955   3.687  12.886 -0.4130 -0.3587  0.2463
17291TIP3    H173288   1.931   3.727  12.969 -1.1030 -0.1783 -0.0342
17291TIP3    H273289   1.874   3.687  12.834  0.1183 -0.0087 -0.6120
17292TIP3   OH273290   3.670   4.701   6.490 -0.2606  0.1358  0.2383
17292TIP3    H173291   3.682   4.658   6.405  0.2272 -1.3513  1.0263
17292TIP3    H273292   3.585   4.744   6.483  0.6728  1.8207 -1.7228
17293TIP3   OH273293   1.520   5.944  15.147  0.4946  0.1237  0.0745
17293TIP3    H173294   1.455   5.877  15.167  2.4913 -1.2270  2.5432
17293TIP3    H273295   1.601   5.895  15.131  1.9375  1.8620  1.5952
17294TIP3   OH273296   6.674   5.306   1.606  0.2484 -0.0207  0.1737
17294TIP3    H173297   6.626   5.355   1.673 -1.9428 -1.3658 -0.2758
17294TIP3    H273298   6.727   5.244   1.655  0.5287  0.6285  0.6943
17295TIP3   OH273299   6.153   2.754   0.454  0.1457  0.3005  0.2865
17295TIP3    H173300   6.119   2.843   0.452  0.2439  0.3316 -0.2506
17295TIP3    H273301   6.218   2.752   0.383 -1.2927 -0.7648 -1.0664
17296TIP3   OH273302   0.470   1.899   2.702 -0.4514 -0.5174 -0.0754
17296TIP3    H173303   0.451   1.805   2.698 -1.8261 -0.2724  0.0400
17296TIP3    H273304   0.518   1.911   2.784 -0.0935 -1.1429 -0.1905
17297TIP3   OH273305   3.138   1.414  13.307  0.2892  0.4840 -0.1361
17297TIP3    H173306   3.225   1.414  13.266  0.7834  2.2240  0.8383
17297TIP3    H273307   3.155   1.403  13.400 -0.8965 -4.9420 -0.2166
17298TIP3   OH273308   5.171   1.221   0.015 -0.0831 -0.0030  0.3148
17298TIP3    H173309   5.121   1.279   0.072  1.3883  0.8797  0.7641
17298TIP3    H273310   5.105   1.166  -0.027 -1.2229 -0.9859  3.1683
17299TIP3   OH273311   6.413   0.088   5.134  0.2469 -0.4434 -0.4902
17299TIP3    H173312   6.399   0.181   5.119  2.6356  0.0348 -0.1116
17299TIP3    H273313   6.441   0.054   5.049 -0.4857 -0.8164 -0.5935
17300TIP3   OH273314   4.805   0.787  12.028  0.3713 -0.3606  0.2537
17300TIP3    H173315   4.851   0.867  12.050  0.3237  0.2573 -1.7102
17300TIP3    H273316   4.857   0.717  12.069  1.5214  0.5135  0.3308
17301TIP3   OH273317   0.980   2.636  11.590  0.1271 -0.0156 -0.2827
17301TIP3    H173318   0.885   2.634  11.587  0.0900  1.0862 -0.2412
17301TIP3    H273319   1.002   2.628  11.683 -0.0597  2.5214  0.0580
17302TIP3   OH273320   6.485   4.583   4.058 -0.0030  0.2993 -0.2488
17302TIP3    H173321   6.560   4.530   4.031 -0.5097 -0.5197 -0.0603
17302TIP3    H273322   6.455   4.625   3.977 -1.6111 -2.2617 -1.0973
17303TIP3   OH273323   3.061   0.362  15.715 -0.4879 -0.0537  0.3643
17303TIP3    H173324   3.084   0.402  15.799 -0.1274 -1.3668  0.9292
17303TIP3    H273325   2.967   0.376  15.707 -0.6710 -0.5650  1.3800
17304TIP3   OH273326   5.496   5.615  16.103 -0.2470 -0.0354  0.0254
17304TIP3    H173327   5.539   5.596  16.187  1.3438  3.0334  0.0422
17304TIP3    H273328   5.416   5.662  16.128 -0.7027 -0.6739 -0.1875
17305TIP3   OH273329   3.677   2.769   4.776  0.2194  0.0360 -0.0112
17305TIP3    H173330   3.743   2.794   4.840  0.3353  2.0563 -0.8607
17305TIP3    H273331   3.635   2.692   4.814  3.2911 -1.6070  0.3594
17306TIP3   OH273332   4.852   6.323   0.534 -0.2164  0.3116  0.4438
17306TIP3    H173333   4.867   6.244   0.482  1.4512  2.0663 -2.0040
17306TIP3    H273334   4.938   6.345   0.570 -0.0985  2.1395 -0.7891
17307TIP3   OH273335   4.026   6.408   2.035  0.3013  0.1496 -0.8243
17307TIP3    H173336   4.056   6.320   2.015  0.3535  0.0762 -0.4228
17307TIP3    H273337   3.931   6.401   2.038  0.3695 -0.2947  1.0467
17308TIP3   OH273338   4.996   5.870   5.637  0.2442  0.1219 -0.2653
17308TIP3    H173339   4.910   5.833   5.656  0.4096  0.1006  0.4794
17308TIP3    H273340   4.984   5.964   5.639  0.3544  0.1274  0.4441
17309TIP3   OH273341   1.982   2.849   3.799  0.1313 -0.2253 -0.2189
17309TIP3    H173342   1.908   2.891   3.756  0.3220  0.1538 -0.1780
17309TIP3    H273343   2.055   2.860   3.739  0.5441  0.8334  0.4488
17310TIP3   OH273344   4.391   0.740   1.516  0.2106 -0.1063  0.6940
17310TIP3    H173345   4.398   0.785   1.432 -2.6891  2.7825  1.7784
17310TIP3    H273346   4.321   0.676   1.503  0.2849 -0.1848  0.6843
17311TIP3   OH273347   5.520   6.250  14.863 -0.2152 -0.4585  0.0650
17311TIP3    H173348   5.485   6.163  14.884  0.3128 -0.3209  1.6314
17311TIP3    H273349   5.461   6.311  14.906 -0.0407 -0.0667 -0.2393
17312TIP3   OH273350   3.886   6.131   3.476  0.1028 -0.4617  0.5695
17312TIP3    H173351   3.903   6.225   3.479  1.0662 -0.6387  1.0791
17312TIP3    H273352   3.800   6.124   3.435  0.7001  0.5542 -0.9329
17313TIP3   OH273353   5.441   1.538  14.404  0.6820  0.0682 -0.4889
17313TIP3    H173354   5.508   1.503  14.462 -0.0415  0.7045  0.7871
17313TIP3    H273355   5.430   1.629  14.433  0.9205  0.6792 -2.2162
17314TIP3   OH273356   4.600   6.615   3.201 -0.0792 -0.2035 -0.0728
17314TIP3    H173357   4.576   6.564   3.124  1.1404 -0.6169 -0.1970
17314TIP3    H273358   4.647   6.553   3.257  0.3586  0.4745  0.3234
17315TIP3   OH273359   0.298   6.434  16.588 -0.4319 -0.4717  0.0384
17315TIP3    H173360   0.364   6.370  16.614 -0.7572 -1.4127 -1.3251
17315TIP3    H273361   0.220   6.410  16.639 -0.1545 -0.2812  0.5591
17316TIP3   OH273362   1.639   2.153  16.917 -0.0844  0.1725  0.0484
17316TIP3    H173363   1.654   2.181  16.826  1.6191 -2.1398 -0.4904
17316TIP3    H273364   1.710   2.194  16.966  0.4076 -0.4558 -0.1244
17317TIP3   OH273365   3.894   3.106   3.205  0.2942  0.4781  0.1886
17317TIP3    H173366   3.950   3.047   3.155  2.7854  2.2504  0.6972
17317TIP3    H273367   3.820   3.052   3.231  1.2268 -1.7270 -1.4444
17318TIP3   OH273368   5.518   0.502   3.494 -0.1151 -0.2505 -0.3151
17318TIP3    H173369   5.570   0.479   3.417  3.2100  0.3960  1.5542
17318TIP3    H273370   5.520   0.597   3.496  1.1953 -0.2732  1.3315
17319TIP3   OH273371   4.195   5.173  12.265 -0.2737  0.3281 -0.5439
17319TIP3    H173372   4.119   5.172  12.206 -0.4603 -0.1326 -0.2953
17319TIP3    H273373   4.180   5.101  12.325  0.3227  0.2897 -0.4380
17320TIP3   OH273374   3.730   4.535   2.647 -0.1096  0.4043 -0.3056
17320TIP3    H173375   3.650   4.503   2.605  0.9092 -1.6558 -0.8173
17320TIP3    H273376   3.739   4.482   2.726  0.8866  0.3944 -0.4150
17321TIP3   OH273377   4.358   1.326  15.808  0.0296 -0.1735 -0.1303
17321TIP3    H173378   4.302   1.403  15.817 -0.4976 -0.5747  0.0544
17321TIP3    H273379   4.444   1.355  15.839 -0.3786  0.0960  0.7795
17322TIP3   OH273380   6.114   3.205  15.961  0.2450  0.2990  0.2675
17322TIP3    H173381   6.204   3.200  15.995 -0.2646 -1.9794  1.4704
17322TIP3    H273382   6.121   3.260  15.883  2.7433 -0.1342  0.1064
17323TIP3   OH273383   0.192   1.198  13.553 -0.2188  0.3768  0.2760
17323TIP3    H173384   0.275   1.234  13.520  0.2871  1.0717  2.1843
17323TIP3    H273385   0.126   1.261  13.524  0.3506  1.5475  1.3981
17324TIP3   OH273386   1.480   2.998   5.468  0.3915  0.0300 -0.7046
17324TIP3    H173387   1.544   3.064   5.442  0.4100  1.2133  2.0280
17324TIP3    H273388   1.524   2.948   5.537 -1.7629  1.4542  1.9038
17325TIP3   OH273389   0.572   1.357   1.610 -0.6293 -0.2793 -0.1826
17325TIP3    H173390   0.537   1.411   1.681  1.8927 -0.6224  1.4757
17325TIP3    H273391   0.611   1.282   1.655  0.7040 -0.7229 -1.9681
17326TIP3   OH273392   2.220   0.015   2.306  0.4039  0.3253  0.3800
17326TIP3    H173393   2.162  -0.057   2.330 -0.0973  1.2157  1.9275
17326TIP3    H273394   2.283   0.020   2.377  0.3999  1.4521  0.3160
17327TIP3   OH273395   5.704   2.589  14.802 -0.1247  0.1980  0.2833
17327TIP3    H173396   5.694   2.497  14.777  0.4721  0.4045 -0.7372
17327TIP3    H273397   5.700   2.588  14.898  0.6214 -0.9751  0.3151
17328TIP3   OH273398   3.718   3.614  10.750 -0.0778  0.8154 -0.3675
17328TIP3    H173399   3.646   3.614  10.814 -0.1170  0.1164 -0.4061
17328TIP3    H273400   3.676   3.595  10.666  0.3239 -1.3056 -0.1559
17329TIP3   OH273401   2.672   6.085  15.562 -0.6556 -0.1476 -0.6100
17329TIP3    H173402   2.647   6.089  15.470 -3.3704 -1.3095 -0.0039
17329TIP3    H273403   2.648   6.170  15.598 -2.6037 -0.7621 -0.3521
17330TIP3   OH273404   4.464   6.680  13.440 -0.4232  0.2142 -0.0578
17330TIP3    H173405   4.525   6.641  13.377  0.0235  2.5443 -1.1418
17330TIP3    H273406   4.460   6.772  13.416 -3.3758  0.4014  0.8372
17331TIP3   OH273407   1.205   1.166   4.013  0.0456  0.2134 -0.2276
17331TIP3    H173408   1.150   1.161   3.934 -1.3251 -1.7216  0.7512
17331TIP3    H273409   1.198   1.079   4.052  1.5974  0.7846  1.4527
17332TIP3   OH273410   3.377   3.213   3.955 -0.4030 -0.4433 -0.8650
17332TIP3    H173411   3.407   3.297   3.991  1.1387 -1.5654  0.6359
17332TIP3    H273412   3.290   3.232   3.920 -0.0192  1.8195 -0.7374
17333TIP3   OH273413   0.310   2.287  14.245 -0.2701 -0.0540 -0.4343
17333TIP3    H173414   0.392   2.237  14.245  0.0836  0.3945  2.1542
17333TIP3    H273415   0.241   2.221  14.240  0.2223 -0.6223  0.2152
17334TIP3   OH273416   2.680   6.708  11.563  0.2496  0.0366 -0.3774
17334TIP3    H173417   2.710   6.638  11.621 -0.2328  0.1858  0.0642
17334TIP3    H273418   2.609   6.751  11.611  0.3000  0.6061 -0.7898
17335TIP3   OH273419   4.368   5.324  16.209 -0.4369 -0.1606 -0.0320
17335TIP3    H173420   4.460   5.295  16.201 -0.2957  0.5418 -1.2775
17335TIP3    H273421   4.374   5.414  16.240 -0.6692  0.1067 -0.7460
17336TIP3   OH273422   3.491   3.533   4.753  0.1579 -0.1700  0.1772
17336TIP3    H173423   3.488   3.467   4.822 -1.9897  0.3395  0.6526
17336TIP3    H273424   3.411   3.584   4.765 -0.8996 -0.7221 -3.3350
17337TIP3   OH273425   1.065   5.884  12.873 -0.0074  0.2879 -0.1972
17337TIP3    H173426   0.994   5.949  12.880  1.0620  1.3227  2.3686
17337TIP3    H273427   1.140   5.934  12.840  0.4330  0.0252  0.3936
17338TIP3   OH273428   5.890   4.868  15.167  0.0638 -0.2476 -0.2466
17338TIP3    H173429   5.886   4.774  15.183  2.0817  0.0739  3.1763
17338TIP3    H273430   5.920   4.876  15.077  1.2153 -2.9599 -0.1952
17339TIP3   OH273431   4.314   0.299  11.506 -0.7135  0.3303 -0.4663
17339TIP3    H173432   4.284   0.346  11.429  2.2883  1.6720 -0.9721
17339TIP3    H273433   4.372   0.231  11.471  2.2384  2.1601  0.5134
17340TIP3   OH273434   4.622   0.303  16.715  0.1724  0.1508  0.0941
17340TIP3    H173435   4.681   0.353  16.772  0.1818  0.3934 -0.1253
17340TIP3    H273436   4.655   0.320  16.627  0.2302 -0.3202  0.0244
17341TIP3   OH273437   2.300   4.493   2.964 -0.7391  0.1586 -0.1962
17341TIP3    H173438   2.357   4.434   3.014  0.4663 -0.1464 -1.8592
17341TIP3    H273439   2.324   4.479   2.873 -1.2084  2.3949 -0.7287
17342TIP3   OH273440   1.135   2.405  15.832  0.2669 -0.5321  0.4454
17342TIP3    H173441   1.218   2.375  15.795  1.3232  1.1798  1.3030
17342TIP3    H273442   1.101   2.467  15.767 -0.1272 -0.8909  0.3050
17343TIP3   OH273443   6.688   1.896   0.393 -0.1440  0.1566 -0.3966
17343TIP3    H173444   6.667   1.960   0.326  0.9301  0.3931 -0.5344
17343TIP3    H273445   6.623   1.910   0.462  0.2738  1.6350 -0.2768
17344TIP3   OH273446   1.401   4.725  13.796 -0.3640 -0.5031  0.2299
17344TIP3    H173447   1.452   4.647  13.819  0.1892  0.2240  1.5358
17344TIP3    H273448   1.400   4.725  13.700 -1.4403 -2.7885  0.1743
17345TIP3   OH273449   0.773   4.592  11.685 -0.1073  0.7238  0.6649
17345TIP3    H173450   0.687   4.575  11.647 -0.2803  1.4865  0.6892
17345TIP3    H273451   0.757   4.602  11.779 -0.1906  1.9817  0.5414
17346TIP3   OH273452   4.714   4.280   5.602 -0.3164 -0.0616 -0.3588
17346TIP3    H173453   4.748   4.197   5.636 -0.8155 -0.4138 -0.7058
17346TIP3    H273454   4.732   4.278   5.509 -1.2945 -0.2762 -0.5600
17347TIP3   OH273455   0.352   2.579   3.342 -0.2752 -0.4178  0.1303
17347TIP3    H173456   0.414   2.642   3.305 -1.2543  0.1618 -0.5651
17347TIP3    H273457   0.315   2.623   3.418  0.5115 -0.9576  0.8387
17348TIP3   OH273458   6.301   1.969  12.851  0.6253  0.0676 -0.3706
17348TIP3    H173459   6.364   2.039  12.868  0.6463 -0.2187  0.7881
17348TIP3    H273460   6.226   1.990  12.906  1.0006 -1.2951  0.7251
17349TIP3   OH273461   2.207   1.355  15.956  0.1727 -0.1942  0.1413
17349TIP3    H173462   2.112   1.345  15.957  0.0129  1.0667 -0.4736
17349TIP3    H273463   2.234   1.333  16.045 -0.5799 -1.4340  0.0861
17350TIP3   OH273464   2.546   1.873   1.621  0.5717  0.0925 -0.2515
17350TIP3    H173465   2.478   1.818   1.658  1.0579 -0.1383  0.3184
17350TIP3    H273466   2.628   1.826   1.639  1.0554  1.2613  0.7696
17351TIP3   OH273467   4.788   3.611  16.981 -0.0223  0.0148  0.1218
17351TIP3    H173468   4.817   3.692  17.024  0.1382 -0.0271  0.0923
17351TIP3    H273469   4.694   3.623  16.970  0.0245  0.2687 -0.0303
17352TIP3   OH273470   4.994   3.828  15.380  0.4661  0.1733  0.0538
17352TIP3    H173471   4.964   3.877  15.457 -0.2857 -1.5552  0.9062
17352TIP3    H273472   4.988   3.891  15.308  0.3045  1.5592  1.2369
17353TIP3   OH273473   2.582   0.686   5.098  0.5286  0.1892 -0.6535
17353TIP3    H173474   2.548   0.749   5.162 -0.7594 -0.3828 -0.7499
17353TIP3    H273475   2.564   0.601   5.136 -0.5004 -0.1717 -1.8729
17354TIP3   OH273476   5.654   0.517  12.177 -0.3062 -0.3459 -0.2416
17354TIP3    H173477   5.610   0.562  12.249 -0.9177 -0.7944 -0.3335
17354TIP3    H273478   5.616   0.556  12.098  2.0042  1.8578 -0.4256
17355TIP3   OH273479   5.453   6.095   5.337  0.1402  0.0706  0.0540
17355TIP3    H173480   5.479   6.120   5.248  0.4987 -0.8867 -0.1163
17355TIP3    H273481   5.496   6.011   5.352 -1.0203 -0.4449  0.6212
17356TIP3   OH273482   4.843   5.337  14.472 -0.2005  0.2377 -0.2866
17356TIP3    H173483   4.889   5.349  14.389  0.0037 -1.0956 -0.3954
17356TIP3    H273484   4.897   5.275  14.521 -0.0600  1.3953  1.0693
17357TIP3   OH273485   3.222   1.090  12.462 -0.3425  0.4076  0.4288
17357TIP3    H173486   3.168   1.108  12.538 -0.7310  4.6804 -0.6049
17357TIP3    H273487   3.312   1.107  12.491 -0.1378 -0.8709  0.6157
17358TIP3   OH273488   3.847   0.988   0.813 -0.2945  0.6020  0.0747
17358TIP3    H173489   3.856   0.893   0.821  2.7667  0.6502 -1.3322
17358TIP3    H273490   3.769   1.000   0.759  0.5135 -1.3113 -1.6748
17359TIP3   OH273491   3.570   6.425   5.878 -0.8729 -0.3172  0.2436
17359TIP3    H173492   3.590   6.376   5.958 -0.8383 -1.5439 -0.4934
17359TIP3    H273493   3.620   6.381   5.810 -0.0239  1.3960 -0.2950
17360TIP3   OH273494   4.349   5.596  16.317 -0.8184  0.0380 -0.5379
17360TIP3    H173495   4.261   5.572  16.347 -0.5265 -0.6554 -0.2110
17360TIP3    H273496   4.347   5.692  16.312 -1.0307  0.1606  1.2575
17361TIP3   OH273497   6.288   2.779   4.475 -0.0638  0.3140 -0.0312
17361TIP3    H173498   6.287   2.753   4.383  1.4817  1.8207 -0.5229
17361TIP3    H273499   6.313   2.700   4.522 -1.8507 -0.7448 -0.7605
17362TIP3   OH273500   2.142   6.101   2.394 -0.0989  0.0084 -0.6455
17362TIP3    H173501   2.106   6.153   2.466  0.2520 -0.2211 -0.2988
17362TIP3    H273502   2.229   6.075   2.425 -0.8596 -2.1135 -0.1417
17363TIP3   OH273503   3.535   4.262   5.480 -0.6095 -0.2246  0.7151
17363TIP3    H173504   3.479   4.328   5.439  0.8784  0.9656  0.4940
17363TIP3    H273505   3.575   4.306   5.555  1.4949 -0.3516 -0.2376
17364TIP3   OH273506   6.008   5.030   4.401  0.2691  0.0506  0.2824
17364TIP3    H173507   5.993   4.940   4.372  3.7132 -0.4582 -0.3460
17364TIP3    H273508   6.043   5.021   4.490  0.0060  0.8384  0.4745
17365TIP3   OH273509   6.386   5.262   5.168  0.0012 -0.5857 -0.5091
17365TIP3    H173510   6.446   5.260   5.242 -1.3188 -1.1166  0.5736
17365TIP3    H273511   6.441   5.240   5.093  1.1919 -0.8824  0.4192
17366TIP3   OH273512   4.413   1.651   1.358 -0.2513  0.3226 -0.1973
17366TIP3    H173513   4.395   1.647   1.264  0.7615 -1.0567 -0.3718
17366TIP3    H273514   4.327   1.666   1.397 -0.8969 -0.3130 -1.2861
17367TIP3   OH273515   5.782   6.071  14.007 -0.6264  0.7486 -0.1238
17367TIP3    H173516   5.852   6.110  13.956 -1.1055  0.6561 -0.8765
17367TIP3    H273517   5.786   6.114  14.092  1.9492 -1.0335  0.7639
17368TIP3   OH273518   0.458   0.074   1.508  0.0533 -0.1006  0.5096
17368TIP3    H173519   0.372   0.114   1.521 -0.4612 -1.0169  0.0482
17368TIP3    H273520   0.443  -0.019   1.523  0.4556 -0.6007 -1.8429
17369TIP3   OH273521   2.291   4.484  14.989  0.5482 -0.1368  0.0578
17369TIP3    H173522   2.374   4.501  15.035  1.4495 -1.6638 -0.9025
17369TIP3    H273523   2.312   4.498  14.896 -1.3624  3.3908  0.0181
17370TIP3   OH273524   2.438   5.186  13.848 -0.1022  0.3602  0.4331
17370TIP3    H173525   2.389   5.266  13.829 -2.0473 -0.7863  0.3088
17370TIP3    H273526   2.371   5.118  13.853  1.5589 -1.4031 -0.1509
17371TIP3   OH273527   5.301   2.216  15.870  0.5345 -0.0822 -0.3172
17371TIP3    H173528   5.303   2.249  15.780  1.0695 -2.0335 -1.0812
17371TIP3    H273529   5.392   2.196  15.891  0.4423  0.5407  0.7606
17372TIP3   OH273530   3.149   4.402   5.711  0.5361  0.0695  0.8587
17372TIP3    H173531   3.074   4.393   5.770  0.6396 -0.6812  0.8880
17372TIP3    H273532   3.129   4.478   5.657 -0.5445 -0.5015  0.4277
17373TIP3   OH273533   2.364   3.966  16.987  0.1644 -0.3421 -0.1618
17373TIP3    H173534   2.271   3.947  16.974  0.0792 -1.4411  1.6907
17373TIP3    H273535   2.365   4.043  17.044  0.3341 -0.9388  0.6674
17374TIP3   OH273536   3.440   3.501  15.572  0.1250 -0.2397  0.5446
17374TIP3    H173537   3.475   3.581  15.613  0.0176 -0.1965  0.5507
17374TIP3    H273538   3.499   3.484  15.499  0.1484 -0.1538  0.5429
17375TIP3   OH273539   4.712   5.618   1.795 -0.3722  0.4295  0.1316
17375TIP3    H173540   4.743   5.673   1.867  0.7449  0.5706 -0.4357
17375TIP3    H273541   4.780   5.626   1.727 -0.6432 -0.9070 -0.3377
17376TIP3   OH273542   5.091   4.598   2.722  0.0438  0.2084 -0.3532
17376TIP3    H173543   5.163   4.584   2.784  0.2700  0.6777 -0.5024
17376TIP3    H273544   5.061   4.510   2.700  1.9725 -0.1277 -1.9172
17377TIP3   OH273545   1.334   2.894  13.925  0.3279  0.7431 -0.9228
17377TIP3    H173546   1.256   2.844  13.952  0.7935 -0.7427 -2.1901
17377TIP3    H273547   1.305   2.943  13.848  0.2089  1.5061 -0.4019
17378TIP3   OH273548   2.856   4.800  12.937  0.7745  0.1808 -0.2769
17378TIP3    H173549   2.786   4.796  13.003  1.8170 -1.0729  0.8011
17378TIP3    H273550   2.842   4.722  12.883  1.0838  0.1657 -0.3363
17379TIP3   OH273551   3.397   4.476   3.292  0.0569 -0.3454 -0.5344
17379TIP3    H173552   3.384   4.498   3.200 -0.2873  0.7983 -0.2318
17379TIP3    H273553   3.327   4.521   3.338  0.6447 -0.3084  0.3619
17380TIP3   OH273554   4.923   5.443  13.142  0.2531  0.0662 -0.5004
17380TIP3    H173555   4.847   5.485  13.102 -0.1072  0.0533  0.1579
17380TIP3    H273556   4.891   5.357  13.169  1.0870 -0.8208 -2.1919
17381TIP3   OH273557   3.706   6.456  13.001 -0.5270  0.2869 -0.3423
17381TIP3    H173558   3.728   6.519  13.070  0.7756  0.5342 -0.9467
17381TIP3    H273559   3.764   6.382  13.018 -0.9322 -0.0812 -0.5697
17382TIP3   OH273560   4.639   5.045   5.343  0.5187 -0.3702  0.0693
17382TIP3    H173561   4.654   5.026   5.435  2.2806 -1.4570 -0.4019
17382TIP3    H273562   4.544   5.033   5.331  0.0018  1.3161  2.0272
17383TIP3   OH273563   5.975   1.673   5.208  0.4503  0.1516 -0.2286
17383TIP3    H173564   6.063   1.689   5.174  0.0964  0.7715 -0.9017
17383TIP3    H273565   5.944   1.597   5.159 -0.0446  1.0203 -1.3386
17384TIP3   OH273566   3.410   3.872   1.361  0.4014 -0.0817 -0.3007
17384TIP3    H173567   3.322   3.841   1.385  0.7595 -1.3684 -0.5662
17384TIP3    H273568   3.461   3.791   1.349  2.0741  0.6221  1.5115
17385TIP3   OH273569   2.934   2.640   2.195 -0.1481 -0.3148 -0.0275
17385TIP3    H173570   2.947   2.604   2.107 -0.1142  0.8110 -0.4969
17385TIP3    H273571   2.861   2.701   2.186  0.1774  0.1812  0.6162
17386TIP3   OH273572   3.214   1.415  13.563  0.2173 -0.1166 -0.2247
17386TIP3    H173573   3.216   1.438  13.656  2.3696  0.4191 -0.3643
17386TIP3    H273574   3.291   1.360  13.550  0.8237  1.0671 -1.9697
17387TIP3   OH273575   2.742   4.806   4.685  0.2621  0.2248 -0.0812
17387TIP3    H173576   2.758   4.831   4.776  1.1042  2.9823 -0.8881
17387TIP3    H273577   2.678   4.870   4.654  0.9069  0.1119 -1.7495
17388TIP3   OH273578   3.416   5.880  15.209  0.1732  0.7664 -0.7263
17388TIP3    H173579   3.490   5.918  15.163 -0.6866  2.6481 -0.6643
17388TIP3    H273580   3.455   5.832  15.283  1.3285  1.4488 -0.8697
17389TIP3   OH273581   3.735   4.477   4.036 -0.4391  0.0707  0.2318
17389TIP3    H173582   3.830   4.481   4.047 -0.6465  0.1445  2.5987
17389TIP3    H273583   3.715   4.541   3.968  1.3682 -1.5663 -1.9802
17390TIP3   OH273584   3.249   1.422   5.609 -0.4468 -0.5746 -0.5160
17390TIP3    H173585   3.165   1.444   5.568 -0.5015  0.1572 -0.0309
17390TIP3    H273586   3.232   1.428   5.703  0.0704 -0.7314 -0.4083
17391TIP3   OH273587   2.994   4.389   5.213 -0.3410  0.0970 -0.3656
17391TIP3    H173588   3.021   4.375   5.304  1.9498 -2.8080 -1.3221
17391TIP3    H273589   3.021   4.479   5.194 -1.2039  0.9014  1.8692
17392TIP3   OH273590   3.293   4.640   3.694  0.8421 -0.6845 -0.0273
17392TIP3    H173591   3.332   4.570   3.746  0.3771  0.3451  1.8010
17392TIP3    H273592   3.205   4.651   3.730  1.4812  1.9657  1.0093
17393TIP3   OH273593   0.764   4.997  16.928 -0.5162 -0.0867 -0.1032
17393TIP3    H173594   0.758   4.943  16.849 -0.6799 -0.7532  0.3632
17393TIP3    H273595   0.842   5.051  16.914 -0.7852  0.1085 -0.9093
17394TIP3   OH273596   2.871   0.371  14.852  0.8559 -0.4607  0.2003
17394TIP3    H173597   2.837   0.343  14.937  0.4371 -0.6131 -0.0169
17394TIP3    H273598   2.951   0.420  14.873 -0.5755  1.7317  0.9005
17395TIP3   OH273599   6.030   4.808  13.448  0.0751 -0.3398 -0.1812
17395TIP3    H173600   5.986   4.727  13.474 -1.0941  0.3039 -0.0942
17395TIP3    H273601   6.098   4.780  13.386  0.9161 -1.5608  1.2412
17396TIP3   OH273602   5.263   2.793  10.233  0.3682  0.0537  0.2043
17396TIP3    H173603   5.188   2.801  10.174 -0.3591  0.6418  1.1848
17396TIP3    H273604   5.321   2.865  10.208  0.4741 -0.2148 -0.3494
17397TIP3   OH273605   4.133   0.026  15.184  0.1019  0.8849  0.1485
17397TIP3    H173606   4.162  -0.061  15.158 -1.2067  0.0739  1.2831
17397TIP3    H273607   4.059   0.045  15.126  1.3048  1.9397 -1.1327
17398TIP3   OH273608   3.168   0.779  10.698  0.4622  0.7611 -0.0377
17398TIP3    H173609   3.178   0.815  10.786 -0.4569 -2.2407  1.4429
17398TIP3    H273610   3.082   0.738  10.698  0.5369  0.4519 -2.2852
17399TIP3   OH273611   2.656   5.305  11.584 -0.1300  1.0616  0.9975
17399TIP3    H173612   2.641   5.361  11.508  0.8934  1.7512  1.2852
17399TIP3    H273613   2.570   5.267  11.603 -0.3737  0.7835 -0.5625
17400TIP3   OH273614   5.160   0.072   5.242 -0.0345  0.6638  0.2155
17400TIP3    H173615   5.175  -0.008   5.192  2.0632  0.6938  0.7050
17400TIP3    H273616   5.138   0.042   5.330 -0.1201  0.6278  0.1818
17401TIP3   OH273617   3.125   6.616  14.163 -0.3581  0.6500  0.2340
17401TIP3    H173618   3.049   6.669  14.188  1.4934  3.7395 -0.1402
17401TIP3    H273619   3.182   6.677  14.117  1.0192 -2.2973 -2.2955
17402TIP3   OH273620   4.619   0.157   0.143 -0.7807  0.4824  0.1729
17402TIP3    H173621   4.626   0.209   0.063  1.0583  0.2957  0.1770
17402TIP3    H273622   4.619   0.066   0.112  2.1852  0.3111  0.4154
17403TIP3   OH273623   5.623   1.816  12.247  0.9042 -0.3977  0.4972
17403TIP3    H173624   5.649   1.903  12.275  1.2176 -0.0121 -0.9097
17403TIP3    H273625   5.629   1.819  12.152  3.5328 -2.7133  0.4460
17404TIP3   OH273626   6.278   5.922  14.963 -0.3337 -0.4118 -1.0131
17404TIP3    H173627   6.235   6.007  14.969  0.4135 -0.0759 -0.0317
17404TIP3    H273628   6.294   5.909  14.870 -2.8590 -0.7371 -1.4625
17405TIP3   OH273629   2.166   1.202  12.545 -0.5629  0.3835  0.3529
17405TIP3    H173630   2.175   1.198  12.641 -0.7654 -0.8054  0.3372
17405TIP3    H273631   2.210   1.283  12.520 -0.3078  0.5950  1.4339
17406TIP3   OH273632   1.135   1.019  11.148 -0.7680  0.0865  0.7761
17406TIP3    H173633   1.116   1.112  11.139  0.9601  0.4063  0.1313
17406TIP3    H273634   1.224   1.016  11.185 -0.4639 -1.3007 -0.0043
17407TIP3   OH273635   4.410   5.129  14.701  0.1295  0.0243  0.2773
17407TIP3    H173636   4.337   5.185  14.726 -1.8803 -2.4859  0.4723
17407TIP3    H273637   4.486   5.166  14.745 -0.8616  3.0596 -0.3632
17408TIP3   OH273638   2.735   3.459   4.952  0.2230 -0.4521  0.0464
17408TIP3    H173639   2.751   3.517   4.878 -2.3058 -0.4014 -0.5596
17408TIP3    H273640   2.745   3.371   4.916 -0.1428 -0.4216 -0.1307
17409TIP3   OH273641   5.810   5.636   4.997  0.4962 -0.1574  0.7798
17409TIP3    H173642   5.848   5.683   4.923  0.8145 -0.2110  0.9090
17409TIP3    H273643   5.877   5.640   5.065  1.4853 -2.7218  0.0802
17410TIP3   OH273644   2.670   3.309   3.074  0.0554  0.2188 -0.6086
17410TIP3    H173645   2.639   3.358   3.150 -1.0390  0.1941 -1.0290
17410TIP3    H273646   2.736   3.249   3.109 -0.5476  0.0969  0.3448
17411TIP3   OH273647   0.883   2.040  15.626 -0.0205 -0.4359  0.3442
17411TIP3    H173648   0.817   1.976  15.601  1.1137 -2.3415  1.9401
17411TIP3    H273649   0.909   2.014  15.714  2.3083  0.6902  0.0522
17412TIP3   OH273650   3.931   4.351   6.393 -0.2923  0.8982  0.1229
17412TIP3    H173651   3.913   4.385   6.481 -0.9360 -1.0942  0.8135
17412TIP3    H273652   4.018   4.310   6.401 -0.9739 -0.5853  0.2871
17413TIP3   OH273653   0.446   5.856   1.183  0.4028 -0.8260 -0.3703
17413TIP3    H173654   0.434   5.761   1.182 -0.2162 -0.7511 -0.8935
17413TIP3    H273655   0.467   5.876   1.274  3.8313 -1.8297 -0.7774
17414TIP3   OH273656   3.521   4.931  16.393  0.0899  0.3747 -0.1000
17414TIP3    H173657   3.601   4.878  16.392 -1.3706 -1.9373 -0.7955
17414TIP3    H273658   3.499   4.940  16.485  0.3244 -0.2760  0.0248
17415TIP3   OH273659   4.758   4.181   1.338  1.0223  0.2395 -0.5921
17415TIP3    H173660   4.752   4.203   1.245 -0.5923  1.9623 -0.1572
17415TIP3    H273661   4.668   4.191   1.370  1.8880  1.7615  1.5422
17416TIP3   OH273662   1.112   1.093   3.339 -0.0319 -0.3929 -0.0313
17416TIP3    H173663   1.052   1.144   3.393  0.7634  1.2733 -0.6715
17416TIP3    H273664   1.189   1.149   3.328 -0.2618 -0.5294 -3.1054
17417TIP3   OH273665   4.740   0.986  13.811 -0.1240 -0.9645  0.0727
17417TIP3    H173666   4.645   0.978  13.820 -0.2009 -1.5179 -1.0311
17417TIP3    H273667   4.752   1.069  13.765 -0.1382 -1.3052 -0.5615
17418TIP3   OH273668   1.246   2.204   3.683 -0.3769  0.1159  0.5227
17418TIP3    H173669   1.319   2.145   3.662  0.0938  0.6262  0.6965
17418TIP3    H273670   1.221   2.181   3.772 -0.9289 -0.5599  0.2123
17419TIP3   OH273671   4.075   4.879   5.277 -0.1021  0.1699  0.0997
17419TIP3    H173672   4.163   4.843   5.268  1.7668  4.0335  1.0082
17419TIP3    H273673   4.067   4.941   5.205 -2.2815 -0.3176 -0.1514
17420TIP3   OH273674   5.246   3.944  15.785 -0.0008 -0.6270 -0.5061
17420TIP3    H173675   5.337   3.915  15.778  0.1328  0.1730 -2.7416
17420TIP3    H273676   5.248   4.014  15.849  0.7097 -1.4395  0.3943
17421TIP3   OH273677   4.432   1.740  11.332 -0.2953  0.5105  0.1475
17421TIP3    H173678   4.425   1.827  11.371 -0.4264  0.1204  1.0057
17421TIP3    H273679   4.479   1.689  11.397  1.7178  0.4764 -1.2379
17422TIP3   OH273680   4.517   1.273   5.613 -0.0964  0.3012 -0.2284
17422TIP3    H173681   4.438   1.232   5.649  0.0919 -0.6342 -0.8307
17422TIP3    H273682   4.493   1.364   5.600 -1.2847 -0.0812 -0.9252
17423TIP3   OH273683   6.115   2.824  10.190  0.0513 -0.0164  0.1877
17423TIP3    H173684   6.147   2.735  10.206  0.6394  0.1766  0.0857
17423TIP3    H273685   6.031   2.811  10.145  1.1890 -0.5208 -1.9160
17424TIP3   OH273686   4.695   3.441   0.114  0.3652 -0.0041 -0.0678
17424TIP3    H173687   4.665   3.430   0.024 -0.5475  0.2592  0.2017
17424TIP3    H273688   4.747   3.522   0.113  0.6903 -0.2140 -0.4319
17425TIP3   OH273689   6.321   4.652  15.294 -0.2966 -0.1980  0.0523
17425TIP3    H173690   6.338   4.570  15.341  0.1995 -0.7984 -1.1416
17425TIP3    H273691   6.322   4.628  15.202 -1.5050  0.9168 -0.2822
17426TIP3   OH273692   4.289   0.245   2.816  1.0300 -0.0039  0.4482
17426TIP3    H173693   4.380   0.215   2.814  1.2897  0.7419 -1.2118
17426TIP3    H273694   4.279   0.296   2.735 -0.1594  2.0642  1.8190
17427TIP3   OH273695   0.647   5.683  14.851 -0.5404 -0.5729  0.3474
17427TIP3    H173696   0.725   5.655  14.804  0.4519  1.2271  0.8429
17427TIP3    H273697   0.575   5.643  14.803  0.6576 -2.3011 -0.1051
17428TIP3   OH273698   6.289   5.774   2.772  0.7551  0.3101 -0.1563
17428TIP3    H173699   6.269   5.711   2.842 -2.6804  1.9789  0.5877
17428TIP3    H273700   6.228   5.751   2.702  1.2974  1.2004 -0.9338
17429TIP3   OH273701   5.235   0.026   2.551 -0.1207 -0.0624 -0.1560
17429TIP3    H173702   5.172   0.018   2.479 -1.0632 -0.7402  0.7071
17429TIP3    H273703   5.318   0.048   2.508 -0.9786  1.0707 -1.3057
17430TIP3   OH273704   2.289   5.855   1.148  0.5825 -0.3661 -0.0135
17430TIP3    H173705   2.235   5.823   1.220  1.6000 -1.1621  0.4249
17430TIP3    H273706   2.276   5.789   1.079 -0.5206  0.4800 -0.6527
17431TIP3   OH273707   0.808   6.372   1.112 -0.1776  0.1262 -0.5665
17431TIP3    H173708   0.877   6.432   1.085 -1.3375  1.8908  0.2473
17431TIP3    H273709   0.822   6.360   1.206  0.7372 -1.8689 -0.8990
17432TIP3   OH273710   2.464   2.888   5.224  0.0539  0.4915 -0.1501
17432TIP3    H173711   2.378   2.847   5.216  0.0544 -0.0737  1.9418
17432TIP3    H273712   2.526   2.818   5.208  0.0714  0.2595  0.8368
17433TIP3   OH273713   5.376   6.346   1.683  0.4887  0.0188  0.0935
17433TIP3    H173714   5.406   6.437   1.690 -0.6369  0.4583 -0.4742
17433TIP3    H273715   5.377   6.313   1.773  0.8376  0.6158  0.3123
17434TIP3   OH273716   3.913   4.779  12.788  0.5747 -0.5334 -0.4215
17434TIP3    H173717   3.926   4.767  12.693  1.3163 -0.5473 -0.3248
17434TIP3    H273718   3.818   4.785  12.798  0.5001 -0.1528 -1.2157
17435TIP3   OH273719   1.751   1.418   4.109 -0.2679 -0.3304  0.1695
17435TIP3    H173720   1.758   1.392   4.017  0.0818 -1.4439  0.4935
17435TIP3    H273721   1.657   1.420   4.127 -0.3239 -0.5812 -0.0857
17436TIP3   OH273722   2.897   3.081  14.267  0.4304  0.2904 -0.4686
17436TIP3    H173723   2.884   3.140  14.341 -0.4678  0.8713 -1.0755
17436TIP3    H273724   2.811   3.075  14.225  0.3635 -1.8626 -0.1450
17437TIP3   OH273725   5.650   4.350   2.834  0.4938  0.4719  0.6053
17437TIP3    H173726   5.587   4.285   2.863  0.9262  0.4383  1.5014
17437TIP3    H273727   5.683   4.390   2.915  0.3485  1.6957  0.0777
17438TIP3   OH273728   2.093   3.568   2.836 -0.3262  0.2079  0.1758
17438TIP3    H173729   2.169   3.517   2.866 -0.4984 -0.3377 -0.3108
17438TIP3    H273730   2.022   3.540   2.894 -0.5416 -0.4849 -0.4159
17439TIP3   OH273731   0.792   2.818  16.573  0.1122  0.3467  0.3511
17439TIP3    H173732   0.752   2.900  16.544  0.1016  0.1156 -0.3183
17439TIP3    H273733   0.886   2.830  16.557  0.1249  0.2767  0.3704
17440TIP3   OH273734   0.866   3.324  15.771 -0.3867 -0.0309  0.0341
17440TIP3    H173735   0.814   3.251  15.738  1.3247 -1.0507 -0.4969
17440TIP3    H273736   0.801   3.385  15.807 -1.8958 -1.5269 -0.0408
17441TIP3   OH273737   6.312   5.670  14.153  0.0806  0.3502  0.0342
17441TIP3    H173738   6.273   5.695  14.237  1.1208  0.4707  0.5017
17441TIP3    H273739   6.393   5.722  14.149  0.2397  0.0354 -0.8549
17442TIP3   OH273740   0.164   1.484  14.406 -0.2533  0.3074 -0.2857
17442TIP3    H173741   0.105   1.425  14.358 -2.1095  1.6882  0.1737
17442TIP3    H273742   0.206   1.428  14.471 -1.8917 -0.5575  0.0943
17443TIP3   OH273743   2.148   4.199  11.572  0.4776 -0.0936  0.1787
17443TIP3    H173744   2.067   4.171  11.529  0.3528  1.2904 -0.5177
17443TIP3    H273745   2.191   4.117  11.598 -1.0246 -0.8525  0.3514
17444TIP3   OH273746   5.545   0.275  17.054  0.1039  0.7418  0.2305
17444TIP3    H173747   5.593   0.272  17.136 -0.7394 -1.1568  0.7144
17444TIP3    H273748   5.611   0.256  16.987 -0.0280 -3.6762  1.0151
17445TIP3   OH273749   4.862   3.338  13.555  0.3948 -0.4379 -0.1453
17445TIP3    H173750   4.866   3.430  13.581 -1.7334  0.0634 -1.4074
17445TIP3    H273751   4.905   3.336  13.470  0.0031 -0.5078 -0.3429
17446TIP3   OH273752   3.810   3.662   3.879 -0.1978 -0.0611  0.4542
17446TIP3    H173753   3.727   3.622   3.852 -1.3213  1.8142  0.9859
17446TIP3    H273754   3.784   3.737   3.932  1.8688  0.4073  0.8654
17447TIP3   OH273755   0.860   3.896   3.306  0.2167  0.7351 -0.2540
17447TIP3    H173756   0.789   3.869   3.247  0.6503  0.7992 -0.8108
17447TIP3    H273757   0.888   3.815   3.348 -0.9107  0.8557  0.8038
17448TIP3   OH273758   6.517   6.672   3.008  0.3514  0.0427  0.5131
17448TIP3    H173759   6.527   6.767   3.008  0.7780 -0.0017  0.2471
17448TIP3    H273760   6.431   6.657   2.969  0.5634  0.2896 -0.0492
17449TIP3   OH273761   5.783   4.879  14.504  0.6985  0.3597 -0.7095
17449TIP3    H173762   5.751   4.968  14.520  0.3384  0.1478 -0.2666
17449TIP3    H273763   5.713   4.822  14.534  0.5725 -0.0700 -1.7684
17450TIP3   OH273764   0.940   5.490   5.389 -0.4206 -0.2068  0.0946
17450TIP3    H173765   1.032   5.470   5.407 -1.0095 -1.3817  2.1650
17450TIP3    H273766   0.914   5.549   5.460 -1.6473 -1.1622  0.4856
17451TIP3   OH273767   2.117   6.219  13.336  0.1912  0.0037  0.0402
17451TIP3    H173768   2.092   6.182  13.420  0.8724 -1.3455 -0.3157
17451TIP3    H273769   2.095   6.312  13.342 -0.9251 -0.3110  1.2405
17452TIP3   OH273770   5.283   1.697   5.029  0.1090 -0.1642 -0.3397
17452TIP3    H173771   5.241   1.733   5.107  1.3106  0.6765 -0.0642
17452TIP3    H273772   5.327   1.771   4.989  1.3400 -1.0156 -0.6125
17453TIP3   OH273773   1.611   3.867   1.645  0.3036 -0.3642 -0.0388
17453TIP3    H173774   1.593   3.846   1.737 -1.0872 -1.1892 -0.4617
17453TIP3    H273775   1.700   3.837   1.631  0.1262 -1.3329  0.7559
17454TIP3   OH273776   5.453   4.428  17.008 -0.2047  0.0479 -0.7868
17454TIP3    H173777   5.544   4.432  17.038 -1.0153  2.6410  1.7895
17454TIP3    H273778   5.438   4.511  16.963 -2.3303  1.8210  2.7543
17455TIP3   OH273779   1.000   2.971   5.000  0.0588 -0.5964 -0.2884
17455TIP3    H173780   1.007   3.028   4.924 -3.2767  1.9860  1.0920
17455TIP3    H273781   0.934   2.906   4.975 -1.9217  0.9588  0.6386
17456TIP3   OH273782   6.119   4.440   4.003 -0.1162  0.0810 -0.5563
17456TIP3    H173783   6.080   4.356   3.980 -0.8575 -0.6802  2.8855
17456TIP3    H273784   6.058   4.505   3.968 -0.3677 -0.8363 -1.8817
17457TIP3   OH273785   6.748   5.310  10.712 -0.1583 -0.0658 -0.2841
17457TIP3    H173786   6.735   5.296  10.806  0.2141 -2.3616 -0.5066
17457TIP3    H273787   6.808   5.240  10.686  0.7990  1.3307 -2.0084
17458TIP3   OH273788   0.173   4.637   4.013 -0.5306 -0.0348 -0.2150
17458TIP3    H173789   0.161   4.629   3.918 -2.1785  0.2756 -0.0557
17458TIP3    H273790   0.251   4.692   4.022  0.9563 -1.8230 -1.3559
17459TIP3   OH273791   6.238   1.770   5.139 -0.4028  0.4441 -0.5082
17459TIP3    H173792   6.280   1.809   5.216 -2.7362  2.3665 -0.0845
17459TIP3    H273793   6.267   1.679   5.139  0.7613  0.7398  1.8415
17460TIP3   OH273794   2.401   1.739  14.583  0.2844  0.2030 -0.9624
17460TIP3    H173795   2.387   1.802  14.654 -0.6846 -0.7074 -0.3130
17460TIP3    H273796   2.342   1.667  14.603  1.6757 -1.1338 -1.4210
17461TIP3   OH273797   4.849   0.783   1.021  0.4754  0.2526 -0.6527
17461TIP3    H173798   4.848   0.688   1.036  1.4705  0.2871 -0.2631
17461TIP3    H273799   4.918   0.815   1.080  1.0984  1.0378 -1.7745
17462TIP3   OH273800   0.719   4.963  14.189  0.0425  0.0431 -0.3040
17462TIP3    H173801   0.697   5.053  14.215  1.8725  0.2659  0.6612
17462TIP3    H273802   0.683   4.955  14.101 -3.2286  0.4880  0.8497
17463TIP3   OH273803   1.067   3.450   5.185  0.7162 -0.3200 -0.6035
17463TIP3    H173804   0.998   3.497   5.232  0.4791 -2.0948  0.9511
17463TIP3    H273805   1.028   3.431   5.099 -0.3792 -0.4492 -0.0982
17464TIP3   OH273806   0.188   2.487   4.340 -0.3842  0.0339  0.1711
17464TIP3    H173807   0.140   2.407   4.318 -0.2017  0.1582 -0.7096
17464TIP3    H273808   0.178   2.543   4.264 -0.1146  0.6670  0.5957
17465TIP3   OH273809   0.701   1.393  13.273 -0.1577  0.0802 -0.4296
17465TIP3    H173810   0.755   1.416  13.349 -1.3200 -0.0281  0.4478
17465TIP3    H273811   0.703   1.298  13.269  0.3301  0.1014 -0.8714
17466TIP3   OH273812   6.300   3.614   2.765  0.4735  0.0268  0.0125
17466TIP3    H173813   6.226   3.554   2.768 -0.5871  1.2003 -1.2120
17466TIP3    H273814   6.373   3.561   2.732 -0.2591 -0.7531 -0.3878
17467TIP3   OH273815   6.006   2.709   5.624  0.6103 -1.0464  0.1681
17467TIP3    H173816   5.959   2.651   5.683 -1.3071 -1.2885 -1.4946
17467TIP3    H273817   6.061   2.762   5.681 -1.0789 -1.3190  2.1664
17468TIP3   OH273818   5.434   2.849  11.137 -0.1531  0.4903  0.1548
17468TIP3    H173819   5.383   2.924  11.105 -0.1898  0.3562 -0.1073
17468TIP3    H273820   5.370   2.792  11.178 -1.2850 -2.2163 -4.5662
17469TIP3   OH273821   6.606   3.829  16.235 -0.2151 -0.5971  0.2241
17469TIP3    H173822   6.572   3.786  16.314  1.3167 -2.1617  0.0653
17469TIP3    H273823   6.586   3.768  16.164 -1.8877  0.9493 -0.7262
17470TIP3   OH273824   3.792   2.269  15.271  0.4156 -0.2473  0.5716
17470TIP3    H173825   3.771   2.317  15.191  2.2886  0.5559  0.5115
17470TIP3    H273826   3.793   2.177  15.244  0.2387 -0.0532 -0.1224
17471TIP3   OH273827   5.721   0.096   6.078  0.0500  0.4610 -0.2823
17471TIP3    H173828   5.637   0.097   6.125  0.0956 -0.5969 -0.1430
17471TIP3    H273829   5.778   0.044   6.134  0.8648  1.3304 -0.2917
17472TIP3   OH273830   4.371   0.799  15.860 -0.0852  0.5047 -0.6643
17472TIP3    H173831   4.421   0.830  15.785  1.2510 -0.9225 -0.4162
17472TIP3    H273832   4.426   0.731  15.900 -0.6461  1.3451  1.7275
17473TIP3   OH273833   0.867   4.703   2.375 -0.0475  0.1847  0.7846
17473TIP3    H173834   0.860   4.623   2.427  1.6305 -0.2043  0.4706
17473TIP3    H273835   0.881   4.772   2.440  1.5856 -0.2352  0.9257
17474TIP3   OH273836   5.375   4.552  14.382  0.3260  0.6543  0.4300
17474TIP3    H173837   5.291   4.573  14.341  0.7227 -0.7262 -1.1784
17474TIP3    H273838   5.351   4.511  14.465 -0.5308  2.0581  0.9104
17475TIP3   OH273839   0.115   5.916  16.274 -0.5450  0.2143 -0.4290
17475TIP3    H173840   0.119   5.989  16.213 -1.4203  1.2496  0.7074
17475TIP3    H273841   0.182   5.937  16.340 -1.2475  0.3510  0.2582
17476TIP3   OH273842   0.482   2.481   5.804 -0.6624  0.0632  0.6022
17476TIP3    H173843   0.403   2.521   5.769 -0.9820 -0.4686  0.6988
17476TIP3    H273844   0.548   2.494   5.736 -1.1043 -0.3802  0.0755
17477TIP3   OH273845   0.073   0.051  11.627  0.1726 -0.3164  0.2527
17477TIP3    H173846   0.113   0.008  11.551 -0.1924  0.1182 -0.1903
17477TIP3    H273847   0.026  -0.020  11.672 -0.0578 -0.4701 -0.2266
17478TIP3   OH273848   5.041   5.519  15.992 -0.1906  0.1532 -0.5417
17478TIP3    H173849   5.054   5.574  16.069 -1.7472 -1.1664  0.7314
17478TIP3    H273850   4.955   5.479  16.005 -0.6338  0.0914 -3.1190
17479TIP3   OH273851   6.063   0.485   0.552 -0.0997 -0.2872  0.3787
17479TIP3    H173852   6.010   0.428   0.608 -0.0691 -0.9038 -0.2088
17479TIP3    H273853   5.998   0.531   0.498 -0.1038 -0.0930  0.5514
17480TIP3   OH273854   0.717   0.465  13.388 -0.1524 -0.3257  0.3080
17480TIP3    H173855   0.806   0.441  13.414 -0.6023 -1.0682  1.2018
17480TIP3    H273856   0.728   0.505  13.301  0.8008 -2.3927 -0.5837
17481TIP3   OH273857   0.034   1.308   3.071  0.0518 -0.7463 -0.0888
17481TIP3    H173858   0.113   1.262   3.042 -0.5596 -1.3211 -0.8922
17481TIP3    H273859   0.036   1.390   3.022  0.4284 -0.5244  0.2970
17482TIP3   OH273860   0.413   2.814   0.718 -0.2385 -0.3327  0.2704
17482TIP3    H173861   0.340   2.765   0.680  0.2643  0.1599 -1.4125
17482TIP3    H273862   0.490   2.762   0.696 -0.0597 -1.0713  2.3998
17483TIP3   OH273863   3.942   2.165  12.970  0.2736 -0.2706  0.1782
17483TIP3    H173864   4.016   2.192  12.917  1.3786  1.7689  2.5381
17483TIP3    H273865   3.961   2.075  12.996  1.3046 -0.1800 -0.2484
17484TIP3   OH273866   4.534   3.271  13.409  1.0641  0.1375 -0.6917
17484TIP3    H173867   4.576   3.309  13.487  1.8733 -3.1806  0.6892
17484TIP3    H273868   4.587   3.303  13.336  3.9683 -1.0861  0.6963
17485TIP3   OH273869   0.774   3.994  14.538  0.0096 -0.2458  0.3301
17485TIP3    H173870   0.842   3.961  14.596  0.8626  1.5650  0.4314
17485TIP3    H273871   0.822   4.022  14.459 -0.9177 -1.0487 -0.5503
17486TIP3   OH273872   5.020   1.631  11.277 -0.4565 -0.6550 -0.5456
17486TIP3    H173873   4.975   1.680  11.208 -1.4508 -1.0598 -0.1914
17486TIP3    H273874   5.089   1.690  11.307 -0.1955 -0.3581 -1.6773
17487TIP3   OH273875   3.614   1.041   0.648  0.1526 -0.5462  0.2567
17487TIP3    H173876   3.533   1.070   0.691  0.1998 -1.3286  0.8942
17487TIP3    H273877   3.593   0.955   0.613 -0.2466  0.5262 -2.3782
17488TIP3   OH273878   0.695   0.355   5.760 -0.9196  0.0999 -0.3306
17488TIP3    H173879   0.733   0.395   5.838  0.9286 -0.3674 -0.9288
17488TIP3    H273880   0.603   0.344   5.781 -0.7705  1.3914  1.1888
17489TIP3   OH273881   6.149   4.553   2.628 -0.0106  0.0548  0.0982
17489TIP3    H173882   6.098   4.557   2.709  1.8291 -1.2789  1.4397
17489TIP3    H273883   6.131   4.466   2.592 -0.8846  0.6747 -0.9987
17490TIP3   OH273884   2.796   4.794   5.590 -0.1903  0.1125  0.0197
17490TIP3    H173885   2.789   4.800   5.685 -0.8118  0.4955 -0.0415
17490TIP3    H273886   2.818   4.883   5.562  0.5937 -0.1288 -0.1544
17491TIP3   OH273887   6.462   4.860   2.934 -0.3643  0.0138 -0.0002
17491TIP3    H173888   6.380   4.834   2.977  0.6931 -0.1088  2.0634
17491TIP3    H273889   6.524   4.791   2.957  0.7150  0.8689 -0.2646
17492TIP3   OH273890   1.087   4.803   1.236  0.3848  0.4608 -0.0948
17492TIP3    H173891   1.115   4.890   1.266  0.9097  0.5003 -0.6824
17492TIP3    H273892   1.047   4.819   1.150  0.5401  0.1115 -0.2318
17493TIP3   OH273893   6.686   0.355  14.642 -0.4089  0.1071 -0.5422
17493TIP3    H173894   6.717   0.283  14.697 -1.8902  0.6046  1.0260
17493TIP3    H273895   6.756   0.421  14.648 -1.0618  0.6970  1.9061
17494TIP3   OH273896   1.384   3.295   5.989 -0.4135  0.1556  0.5505
17494TIP3    H173897   1.414   3.269   5.902 -1.1474 -0.1950  0.3903
17494TIP3    H273898   1.463   3.293   6.043  0.0977  0.6450 -0.1618
17495TIP3   OH273899   2.564   1.166  13.657 -0.3717 -0.4055  1.1432
17495TIP3    H173900   2.624   1.110  13.608 -2.8527 -2.4386  0.1843
17495TIP3    H273901   2.546   1.239  13.597 -1.6170 -1.6946 -0.1320
17496TIP3   OH273902   1.471   0.384  14.871  0.2810  0.1825 -0.2618
17496TIP3    H173903   1.381   0.405  14.895  0.0477 -0.4381 -0.5822
17496TIP3    H273904   1.471   0.382  14.775  0.7441  0.6333 -0.2786
17497TIP3   OH273905   1.412   0.122  11.269 -0.4101  0.0293  0.4572
17497TIP3    H173906   1.375   0.035  11.284  0.5470 -0.4461  0.1098
17497TIP3    H273907   1.368   0.178  11.333 -1.4478 -0.5894  0.2987
17498TIP3   OH273908   5.420   5.521   2.651 -0.0227 -0.1405 -0.0123
17498TIP3    H173909   5.493   5.578   2.629 -0.6210  0.4170 -0.6088
17498TIP3    H273910   5.397   5.545   2.741  1.3182 -1.2094  0.6512
17499TIP3   OH273911   2.444   5.802   5.080  0.7548 -0.0791  0.1939
17499TIP3    H173912   2.510   5.851   5.030  0.5747 -0.3502 -0.3177
17499TIP3    H273913   2.480   5.713   5.085  0.0515 -0.4320 -0.8013
17500TIP3   OH273914   6.502   6.331   2.065  0.2004 -0.3250  0.3059
17500TIP3    H173915   6.588   6.367   2.043  0.3839 -0.5086  0.7264
17500TIP3    H273916   6.466   6.303   1.981  0.4266  0.0250  0.0892
17501TIP3   OH273917   6.532   4.399   1.900  0.2151 -0.5298  0.0612
17501TIP3    H173918   6.533   4.322   1.957 -2.9043 -0.6421  0.1277
17501TIP3    H273919   6.441   4.429   1.902  0.9919  2.2075 -1.2689
17502TIP3   OH273920   1.269   4.713  12.261  0.4086  0.3521  0.1988
17502TIP3    H173921   1.301   4.787  12.209  0.9335  0.7361  1.0486
17502TIP3    H273922   1.348   4.673  12.297  0.0749 -0.1114  0.4235
17503TIP3   OH273923   1.995   5.188   4.667  0.1758  0.2042 -0.5732
17503TIP3    H173924   2.059   5.243   4.622 -0.0705 -0.1977 -1.4301
17503TIP3    H273925   1.949   5.248   4.726 -0.2794  0.9711 -1.6919
17504TIP3   OH273926   4.998   6.303  12.850  0.4943  0.3612  0.1336
17504TIP3    H173927   4.946   6.237  12.804 -0.2449  1.1666 -0.2121
17504TIP3    H273928   5.065   6.253  12.896  0.0948 -0.6095 -0.3179
17505TIP3   OH273929   5.139   3.873   2.878 -0.1754 -0.0711  0.4280
17505TIP3    H173930   5.227   3.859   2.842  0.2128 -1.3449  1.7621
17505TIP3    H273931   5.113   3.958   2.845  0.7329 -0.5280 -1.6632
17506TIP3   OH273932   3.475   3.300   1.090 -0.3270 -0.5325  0.3565
17506TIP3    H173933   3.547   3.278   1.031 -1.8186 -1.5317 -1.1713
17506TIP3    H273934   3.468   3.395   1.084  0.5682 -0.4683  0.1801
17507TIP3   OH273935   6.304   3.067  16.639  0.0550  0.1141  0.4092
17507TIP3    H173936   6.317   3.089  16.731  1.2712  0.3960  0.1895
17507TIP3    H273937   6.294   3.152  16.596 -0.8247 -0.0288  0.3087
17508TIP3   OH273938   3.773   1.977   1.179 -0.5701 -0.5040  0.2534
17508TIP3    H173939   3.860   1.951   1.212  0.2833 -0.2319 -1.6654
17508TIP3    H273940   3.728   1.894   1.165 -0.2608 -0.6850  0.3042
17509TIP3   OH273941   5.684   6.350   3.882  0.0272 -0.2863 -0.0304
17509TIP3    H173942   5.714   6.384   3.797 -0.0160 -0.9772 -0.3305
17509TIP3    H273943   5.737   6.396   3.947  1.1942 -0.9099 -0.5122
17510TIP3   OH273944   1.479   6.550   2.986 -0.5229 -0.2635 -0.2524
17510TIP3    H173945   1.397   6.589   2.957 -0.5729  0.3445  0.6757
17510TIP3    H273946   1.520   6.617   3.040  0.3056 -0.7854 -0.2106
17511TIP3   OH273947   5.596   0.995   4.352 -0.3105  0.0613  0.4812
17511TIP3    H173948   5.600   0.975   4.446 -0.4542  1.6924  0.8601
17511TIP3    H273949   5.505   1.021   4.337  0.0300  1.1624  0.2114
17512TIP3   OH273950   6.622   3.211  14.784  0.2750 -0.0143 -0.2265
17512TIP3    H173951   6.643   3.233  14.875 -0.6811 -0.0201  0.0017
17512TIP3    H273952   6.639   3.293  14.736  1.1216 -0.1094 -0.1156
17513TIP3   OH273953   2.481   2.436  15.336 -0.0696 -0.4219 -0.1646
17513TIP3    H173954   2.443   2.350  15.319  0.5358 -0.7117 -0.0844
17513TIP3    H273955   2.409   2.498  15.321 -0.4471 -0.9228 -0.4456
17514TIP3   OH273956   5.123   2.431  16.662  0.5517  0.2474  0.1684
17514TIP3    H173957   5.058   2.492  16.627 -1.2044 -1.7890 -0.3101
17514TIP3    H273958   5.080   2.390  16.737  1.4528 -0.8231  0.1276
17515TIP3   OH273959   0.942   6.756   5.600 -0.1969  0.3082 -0.4825
17515TIP3    H173960   0.866   6.705   5.629 -0.0554 -0.1941 -0.9723
17515TIP3    H273961   0.908   6.844   5.585 -0.4611  0.3443  0.3031
17516TIP3   OH273962   3.932   2.537  13.473 -0.0575  0.0855 -0.1088
17516TIP3    H173963   3.984   2.465  13.437  0.1327  0.5623 -0.8026
17516TIP3    H273964   3.991   2.580  13.534 -0.2403 -0.4608  0.4727
17517TIP3   OH273965   5.085   5.760  14.291  0.5715  0.7476  0.6322
17517TIP3    H173966   5.127   5.746  14.376  3.7628  0.5786 -0.7904
17517TIP3    H273967   5.058   5.852  14.292  0.5480  0.7420  1.8198
17518TIP3   OH273968   0.726   4.672  15.997  0.3922 -0.1190 -0.3790
17518TIP3    H173969   0.812   4.656  15.959  1.5280 -0.5671  2.2033
17518TIP3    H273970   0.732   4.762  16.032  0.3208 -0.6088  0.9610
17519TIP3   OH273971   0.973   3.487  15.359  0.4602  0.4937 -0.2231
17519TIP3    H173972   0.924   3.408  15.380 -0.3627  0.7686 -1.0720
17519TIP3    H273973   0.956   3.547  15.431 -1.5085  1.0528 -1.0959
17520TIP3   OH273974   0.614   1.192   3.605 -0.2436  0.3093  0.6074
17520TIP3    H173975   0.601   1.270   3.552 -0.1000  1.4234  2.1613
17520TIP3    H273976   0.531   1.144   3.597 -0.9994  1.4961  1.0156
17521TIP3   OH273977   5.645   6.255  15.861  0.4530  0.2400 -0.0437
17521TIP3    H173978   5.668   6.173  15.817  0.8487  0.2193  0.1992
17521TIP3    H273979   5.687   6.249  15.947  2.2737  1.6047 -0.7749
17522TIP3   OH273980   3.785   5.633   3.077  0.6547  0.2858  0.0520
17522TIP3    H173981   3.858   5.680   3.116  0.7557  0.1980 -0.0314
17522TIP3    H273982   3.808   5.540   3.087  0.1380  0.2321  0.8462
17523TIP3   OH273983   6.791   0.481   3.077  0.2572 -0.2159 -0.4759
17523TIP3    H173984   6.820   0.390   3.077  3.3098  0.6483 -0.0192
17523TIP3    H273985   6.737   0.489   3.155  1.9526 -1.1218  0.8584
17524TIP3   OH273986   3.094   1.189   2.464 -0.2833 -0.6058  0.2268
17524TIP3    H173987   3.009   1.145   2.465  0.0582 -1.2711  0.4547
17524TIP3    H273988   3.077   1.275   2.503 -0.5944 -1.2235  1.4943
17525TIP3   OH273989   6.531   2.352  16.930 -0.3657  0.2749  0.5211
17525TIP3    H173990   6.500   2.262  16.943 -0.6228  0.6121  2.4890
17525TIP3    H273991   6.611   2.342  16.878 -0.9227 -0.9885 -0.1563
17526TIP3   OH273992   3.657   3.821  10.997 -0.8989  0.4778 -0.0865
17526TIP3    H173993   3.585   3.770  10.958 -0.9893  0.4068  0.1750
17526TIP3    H273994   3.655   3.904  10.950 -1.0401  0.4107 -0.2012
17527TIP3   OH273995   0.466   0.336   4.905  0.3524  0.9756 -0.1822
17527TIP3    H173996   0.484   0.426   4.933  0.5361  1.4226 -1.6739
17527TIP3    H273997   0.534   0.284   4.948  1.5150  1.8383 -0.9268
17528TIP3   OH273998   1.516   2.610   1.725  0.0401  0.2677 -0.6170
17528TIP3    H173999   1.531   2.647   1.812 -1.8129  0.9336 -0.5345
17528TIP3    H274000   1.490   2.685   1.671 -1.8394 -0.5446 -0.9368
17529TIP3   OH274001   3.694   1.511   1.815 -0.3483  0.2946  0.3298
17529TIP3    H174002   3.674   1.506   1.721  2.3471  0.5633 -0.3344
17529TIP3    H274003   3.624   1.460   1.857 -0.9599 -0.8510 -1.9116
17530TIP3   OH274004   2.602   0.471  12.979  0.1217 -0.7535  0.2458
17530TIP3    H174005   2.565   0.383  12.987 -0.7676 -0.4011  0.0725
17530TIP3    H274006   2.679   0.460  12.924 -0.4899 -1.2868 -0.5166
17531TIP3   OH274007   1.070   1.542   2.523 -0.0459  0.4613 -0.2703
17531TIP3    H174008   1.144   1.570   2.469  0.3682  1.6117  0.8369
17531TIP3    H274009   1.003   1.608   2.509 -0.3290  0.1928 -0.1885
17532TIP3   OH274010   2.148   4.865   2.575  0.2544 -0.6963 -0.0510
17532TIP3    H174011   2.201   4.916   2.638  2.6243 -0.6836 -1.8951
17532TIP3    H274012   2.208   4.799   2.542 -1.1565 -1.2243 -1.6926
17533TIP3   OH274013   0.085   0.679   2.327  0.8198 -0.7536  0.1693
17533TIP3    H174014   0.049   0.703   2.241  1.3048  0.3875  0.2620
17533TIP3    H274015   0.168   0.637   2.307  1.1334 -0.1050  0.0865
17534TIP3   OH274016   4.340   0.074  14.401 -0.1687 -0.3579 -0.1252
17534TIP3    H174017   4.272   0.047  14.340 -0.7349  0.4707  0.1213
17534TIP3    H274018   4.398   0.129  14.349 -1.3442  1.3947  0.3380
17535TIP3   OH274019   0.727   0.852  13.151 -0.2776 -0.4402 -0.0445
17535TIP3    H174020   0.723   0.946  13.131  1.0484 -0.0036  1.4173
17535TIP3    H274021   0.696   0.846  13.242  0.9473 -1.1931  0.3540
17536TIP3   OH274022   2.091   0.475   0.223 -0.2743  0.0770  0.0043
17536TIP3    H174023   2.168   0.499   0.276 -0.2362  0.6596 -0.3014
17536TIP3    H274024   2.128   0.444   0.141 -0.3426 -0.5066  0.1946
17537TIP3   OH274025   3.880   1.338   6.215  0.5362  0.2724  0.8293
17537TIP3    H174026   3.788   1.356   6.237  0.8466  2.7415  0.4168
17537TIP3    H274027   3.882   1.340   6.119  0.8026 -1.2773  0.7718
17538TIP3   OH274028   1.387   0.682   5.670  0.1362  0.3742  0.6735
17538TIP3    H174029   1.297   0.684   5.636  0.2433 -0.8221  0.2625
17538TIP3    H274030   1.398   0.766   5.714  0.0568  2.1449 -2.3882
17539TIP3   OH274031   1.061   3.862  13.311 -0.2078  0.5489  0.5310
17539TIP3    H174032   1.043   3.778  13.354 -3.8087 -0.4718 -2.4025
17539TIP3    H274033   0.975   3.905  13.307  1.0741  3.2232 -0.3876
17540TIP3   OH274034   4.992   2.525   6.464  0.1689 -0.2854  0.0354
17540TIP3    H174035   4.962   2.452   6.519  0.1087  0.0729  0.4811
17540TIP3    H274036   4.952   2.507   6.378 -1.4316  0.2224  0.6310
17541TIP3   OH274037   1.866   4.531  11.528  0.0333  0.9238 -0.2567
17541TIP3    H174038   1.828   4.462  11.584  0.6564 -0.6986 -1.7349
17541TIP3    H274039   1.921   4.582  11.588 -1.0067  0.5928  1.0282
17542TIP3   OH274040   6.173   1.328   4.585  0.2102  0.1448  0.7776
17542TIP3    H174041   6.157   1.265   4.514  2.1874 -0.7853  1.0840
17542TIP3    H274042   6.118   1.297   4.657  0.0272 -0.3419  0.4350
17543TIP3   OH274043   3.317   6.779  15.495 -0.5816 -0.3340  0.0366
17543TIP3    H174044   3.302   6.692  15.533 -1.4168  0.1919  0.9387
17543TIP3    H274045   3.248   6.788  15.429 -2.0644  0.5960  1.6333
17544TIP3   OH274046   1.113   3.055  16.698  0.0195  0.2432  0.2075
17544TIP3    H174047   1.151   3.035  16.784 -1.1146  1.6201  1.0693
17544TIP3    H274048   1.097   2.969  16.658  1.3908 -0.4012  0.9809
17545TIP3   OH274049   3.257   0.823   5.894  0.0187 -0.5297 -0.1794
17545TIP3    H174050   3.273   0.887   5.825 -0.1378 -0.9528 -0.6123
17545TIP3    H274051   3.167   0.842   5.924  0.6011  0.6212  0.9556
17546TIP3   OH274052   2.324   0.119  16.051 -0.1327  0.2548  0.6643
17546TIP3    H174053   2.271   0.196  16.030 -2.1207 -1.1609  0.1338
17546TIP3    H274054   2.393   0.118  15.985  0.5193  2.0764  1.2699
17547TIP3   OH274055   2.351   6.680  16.190  0.0342  0.0740  0.1198
17547TIP3    H174056   2.336   6.626  16.113 -1.8024 -1.8025  1.6626
17547TIP3    H274057   2.333   6.769  16.161 -0.9254 -0.6160 -1.5256
17548TIP3   OH274058   6.387   1.879   3.698  0.3234  0.1353  0.0652
17548TIP3    H174059   6.386   1.946   3.767  1.3938 -0.2070  0.4417
17548TIP3    H274060   6.349   1.802   3.739 -2.1048  0.8099 -0.7508
17549TIP3   OH274061   1.103   2.251  12.774 -0.2331  0.0768 -0.4057
17549TIP3    H174062   1.035   2.184  12.767 -1.3888  1.1357  0.1330
17549TIP3    H274063   1.105   2.293  12.688 -0.7954  0.5237 -0.2055
17550TIP3   OH274064   0.793   0.846   1.700 -0.0539 -0.2381  0.2944
17550TIP3    H174065   0.729   0.916   1.714  0.2198  0.4810 -1.7454
17550TIP3    H274066   0.751   0.768   1.735 -0.5559  0.8228  2.2231
17551TIP3   OH274067   0.490   3.167   1.577  0.2419  0.8050  0.2906
17551TIP3    H174068   0.430   3.239   1.557 -1.4798 -0.4793  0.4971
17551TIP3    H274069   0.432   3.097   1.609  1.8587 -0.5822  0.3079
17552TIP3   OH274070   5.782   3.277  12.293  0.2000 -0.3464  0.2618
17552TIP3    H174071   5.872   3.249  12.275  0.0658 -0.0893 -0.8859
17552TIP3    H274072   5.749   3.307  12.208 -0.5724  0.7024  0.9196
17553TIP3   OH274073   2.086   1.793  15.909 -0.0993  0.4009  0.4287
17553TIP3    H174074   2.172   1.786  15.867  0.4506  1.7184  1.3005
17553TIP3    H274075   2.101   1.769  16.000 -0.7698  0.1144  0.4732
17554TIP3   OH274076   2.714   2.739   3.289 -0.1448 -0.4808  0.6593
17554TIP3    H174077   2.661   2.712   3.364 -0.9025  1.2211  0.7691
17554TIP3    H274078   2.700   2.833   3.281  0.8123 -0.4264 -0.9292
17555TIP3   OH274079   3.800   6.330  16.173 -0.4088  0.2154 -0.1742
17555TIP3    H174080   3.828   6.406  16.225  0.3129 -1.0166  1.3298
17555TIP3    H274081   3.869   6.265  16.186 -0.7981 -0.5674 -1.7872
17556TIP3   OH274082   4.118   6.679  10.887  0.4939 -0.1963  0.1818
17556TIP3    H174083   4.137   6.587  10.871  0.0669 -0.6088  1.8924
17556TIP3    H274084   4.129   6.690  10.981  0.7002  1.5502 -0.0088
17557TIP3   OH274085   4.658   6.670  12.747 -0.6136 -0.3767 -0.2113
17557TIP3    H174086   4.740   6.713  12.773 -0.9358  0.7257 -0.9616
17557TIP3    H274087   4.607   6.666  12.828  0.2354 -1.2525  0.3082
17558TIP3   OH274088   5.619   1.238   2.822  0.5092  0.1660 -0.1541
17558TIP3    H174089   5.621   1.330   2.848  1.3376 -0.1954  1.1616
17558TIP3    H274090   5.701   1.202   2.856  0.1584 -1.0733 -0.5777
17559TIP3   OH274091   1.506   1.414  10.678 -0.0515 -0.5391 -0.2255
17559TIP3    H174092   1.536   1.461  10.600  0.0034  1.2743  0.8472
17559TIP3    H274093   1.583   1.411  10.735 -0.7789  0.4545  0.8222
17560TIP3   OH274094   4.463   1.276   6.515  0.4243 -0.0172 -0.4706
17560TIP3    H174095   4.525   1.227   6.569  0.4073  0.6595  0.1748
17560TIP3    H274096   4.385   1.285   6.570 -0.0080 -0.2844 -1.0284
17561TIP3   OH274097   4.076   5.244  12.661 -0.1000  0.3833  0.3636
17561TIP3    H174098   4.084   5.228  12.755 -1.7127 -0.3676  0.4113
17561TIP3    H274099   4.166   5.243  12.628  0.3696 -1.9907  1.4871
17562TIP3   OH274100   4.753   1.983   5.601 -0.1801  0.0969  0.6555
17562TIP3    H174101   4.752   2.029   5.685  0.1390  1.8187 -0.2225
17562TIP3    H274102   4.700   2.038   5.543 -2.3652 -2.2387  0.2594
17563TIP3   OH274103   3.823   6.574   4.279 -0.6740 -0.0074 -0.1114
17563TIP3    H174104   3.848   6.567   4.371 -1.1303 -0.1233  0.0069
17563TIP3    H274105   3.727   6.567   4.279 -0.7270  0.6223 -0.5339
17564TIP3   OH274106   0.686   1.048  10.534  0.0219 -0.9153  0.6762
17564TIP3    H174107   0.697   0.997  10.454  1.5285  0.7247 -0.2426
17564TIP3    H274108   0.627   1.119  10.509 -0.3806 -1.0041  1.3488
17565TIP3   OH274109   0.450   1.003  12.110  0.2294  0.2473  0.6914
17565TIP3    H174110   0.487   0.949  12.040 -1.6343 -0.4243  0.1777
17565TIP3    H274111   0.466   1.093  12.082  0.3874 -0.0191 -0.1057
17566TIP3   OH274112   5.107   2.545  14.650 -0.3099 -0.9488 -0.7118
17566TIP3    H174113   5.162   2.535  14.728  1.5313  0.4615 -1.7226
17566TIP3    H274114   5.155   2.499  14.581 -0.9153 -0.5468 -1.4194
17567TIP3   OH274115   5.480   2.541  11.794  0.2343 -0.2558  0.0545
17567TIP3    H174116   5.493   2.492  11.875  0.5821 -0.4396 -0.1121
17567TIP3    H274117   5.493   2.477  11.725  2.5133  0.4299 -0.2317
17568TIP3   OH274118   6.059   2.821  12.765  0.1729  0.0490  0.6175
17568TIP3    H174119   6.005   2.884  12.718  0.1827 -0.3398  0.0795
17568TIP3    H274120   6.087   2.868  12.844 -0.7509  0.3388  0.7944
17569TIP3   OH274121   0.695   2.145   1.135 -0.1011 -0.7509 -0.3247
17569TIP3    H174122   0.670   2.135   1.043 -4.9586 -1.0687  0.7557
17569TIP3    H274123   0.672   2.235   1.157  1.6338 -0.4627  0.4857
17570TIP3   OH274124   5.939   1.075  10.727 -0.2611  0.5629 -0.0808
17570TIP3    H174125   5.973   1.136  10.662  0.3173  0.7868  0.4240
17570TIP3    H274126   5.911   1.130  10.800  0.1133  0.2505  0.3081
17571TIP3   OH274127   2.906   6.796   3.788  0.2148  0.5209 -0.0889
17571TIP3    H174128   2.909   6.832   3.700 -0.2574  0.2021 -0.2359
17571TIP3    H274129   2.998   6.793   3.816  0.2996  1.3868 -0.2554
17572TIP3   OH274130   0.690   6.347   3.269 -0.3062 -0.9057 -0.4352
17572TIP3    H174131   0.646   6.273   3.311 -1.2294 -1.3838 -2.1609
17572TIP3    H274132   0.736   6.308   3.194  0.7644  0.0046 -0.2793
17573TIP3   OH274133   4.039   6.621   5.368  0.0910  0.2669  0.7989
17573TIP3    H174134   4.118   6.585   5.408  1.3925  1.1020 -0.8763
17573TIP3    H274135   4.063   6.710   5.343 -1.5857  0.7528  0.7716
17574TIP3   OH274136   0.238   6.406   3.862 -0.9404  0.4594  0.3789
17574TIP3    H174137   0.168   6.372   3.806  0.2775 -0.1197 -0.8329
17574TIP3    H274138   0.224   6.361   3.946 -1.7365  0.0005  0.0217
17575TIP3   OH274139   1.524   1.913  15.746 -0.4217 -0.8690  0.5035
17575TIP3    H174140   1.572   1.996  15.752 -0.1086 -0.7731 -2.2530
17575TIP3    H274141   1.588   1.847  15.772  0.1097 -0.4672  0.2322
17576TIP3   OH274142   3.269   2.156  13.305 -0.0044 -0.6040  0.1094
17576TIP3    H174143   3.313   2.227  13.352  0.2366 -0.6522 -0.0389
17576TIP3    H274144   3.265   2.186  13.214  0.1089 -0.7825  0.0441
17577TIP3   OH274145   5.090   1.815   1.943  0.2306  0.6012 -0.1028
17577TIP3    H174146   5.017   1.832   1.884 -2.2057  0.6346  2.6871
17577TIP3    H274147   5.138   1.898   1.946 -0.2746  0.9406 -1.1221
17578TIP3   OH274148   3.309   5.182   4.548 -0.6053 -0.1972 -0.1917
17578TIP3    H174149   3.328   5.273   4.525  0.0486 -0.3417 -0.2302
17578TIP3    H274150   3.228   5.187   4.600 -0.8821  0.3464 -0.6607
17579TIP3   OH274151   1.436   3.555   1.779 -0.4803  0.0768  0.0317
17579TIP3    H174152   1.350   3.525   1.808 -0.1833 -1.0351 -0.1893
17579TIP3    H274153   1.455   3.502   1.702 -0.2653  1.4043 -0.8583
17580TIP3   OH274154   1.458   2.338  13.337 -0.2659 -0.1092 -0.1120
17580TIP3    H174155   1.432   2.420  13.295  0.3457  0.0044 -0.2876
17580TIP3    H274156   1.506   2.291  13.269 -0.3138 -0.4599  0.0944
17581TIP3   OH274157   4.467   4.185   2.975  0.3980  0.0166  0.0530
17581TIP3    H174158   4.448   4.104   3.022 -2.2409  0.1682 -0.5854
17581TIP3    H274159   4.562   4.195   2.982  0.4010 -1.1695  3.2848
17582TIP3   OH274160   3.146   4.917  16.483  0.1831  0.2399  0.0663
17582TIP3    H174161   3.209   4.982  16.516 -0.7971  2.6302 -2.4164
17582TIP3    H274162   3.184   4.887  16.400 -1.8893  1.8667 -1.5732
17583TIP3   OH274163   1.382   5.737  11.897  0.0796  0.4797  0.0545
17583TIP3    H174164   1.384   5.723  11.802  0.6143 -2.4646  0.4233
17583TIP3    H274165   1.470   5.768  11.919  0.7651 -1.2519 -0.1385
17584TIP3   OH274166   5.500   3.644  12.974  0.0596 -0.7406  0.0671
17584TIP3    H174167   5.494   3.640  12.879 -2.5175 -2.4968  0.1849
17584TIP3    H274168   5.528   3.556  13.000  1.3235 -0.1139  0.9578
17585TIP3   OH274169   3.314   3.795  16.602  0.1219 -0.0527  0.3036
17585TIP3    H174170   3.386   3.850  16.633 -0.1612  0.7389 -0.3857
17585TIP3    H274171   3.290   3.741  16.677  1.8746 -0.8216  0.3506
17586TIP3   OH274172   2.925   2.505  17.026 -0.3222  0.1610  0.2315
17586TIP3    H174173   2.997   2.568  17.031 -0.1341  0.0126 -0.3876
17586TIP3    H274174   2.962   2.425  17.062 -0.5084  0.3612  0.8684
17587TIP3   OH274175   4.063   6.431  13.649 -0.7565 -0.0723  0.6442
17587TIP3    H174176   3.989   6.483  13.619 -0.7450  0.7033  1.8802
17587TIP3    H274177   4.080   6.463  13.737  0.8207 -0.4984  0.5183
17588TIP3   OH274178   0.066   5.085  14.609 -0.2726  0.4034  0.1195
17588TIP3    H174179   0.007   5.161  14.618 -0.5518  0.2482 -0.3824
17588TIP3    H274180   0.011   5.016  14.572 -0.2034 -0.2773  1.2422
17589TIP3   OH274181   0.854   4.230   3.018 -0.1035 -0.1283  0.1509
17589TIP3    H174182   0.926   4.192   3.069  0.2311  0.7043  0.3104
17589TIP3    H274183   0.874   4.323   3.014 -1.4425  0.1983  0.6513
17590TIP3   OH274184   1.334   0.422   3.674 -0.4766 -0.4880 -0.0372
17590TIP3    H174185   1.296   0.501   3.635  0.8783 -0.4586 -1.4003
17590TIP3    H274186   1.345   0.444   3.767 -2.4387 -0.0122  0.1213
17591TIP3   OH274187   4.236   6.630  14.990 -0.2087 -0.0563  0.6052
17591TIP3    H174188   4.166   6.567  14.973  1.2380 -1.7447  0.6243
17591TIP3    H274189   4.262   6.660  14.902  0.5707 -1.2157  0.4093
17592TIP3   OH274190   3.326   5.695  16.287 -0.0682 -0.3314  0.1352
17592TIP3    H174191   3.274   5.680  16.209 -0.0523 -0.0871  0.0769
17592TIP3    H274192   3.304   5.784  16.315  0.3821 -0.1922  0.0604
17593TIP3   OH274193   6.267   2.958   5.477 -0.2091 -0.2517  0.1568
17593TIP3    H174194   6.258   2.864   5.496 -0.2781 -0.6647 -1.7053
17593TIP3    H274195   6.193   2.998   5.523 -0.5944 -1.2018  0.4014
17594TIP3   OH274196   2.656   3.882  14.302  0.0891  0.2459  0.4788
17594TIP3    H174197   2.619   3.856  14.386 -0.5724 -0.0148  0.1131
17594TIP3    H274198   2.580   3.896  14.245  0.4955  1.3502  0.1890
17595TIP3   OH274199   0.311   0.832  11.622 -0.0174  0.2405 -0.5312
17595TIP3    H174200   0.276   0.899  11.681  0.5624 -0.7055  0.9713
17595TIP3    H274201   0.287   0.749  11.664 -0.0795 -0.4904 -1.9529
17596TIP3   OH274202   2.148   4.381  14.478  0.6071 -0.1358  0.9687
17596TIP3    H174203   2.107   4.315  14.535 -0.5520 -0.0133  0.3081
17596TIP3    H274204   2.242   4.366  14.488  0.3899 -1.0346  1.8302
17597TIP3   OH274205   4.720   4.354  12.622  0.0743  0.2332  0.1524
17597TIP3    H174206   4.799   4.406  12.606 -0.2501  1.2663  1.6621
17597TIP3    H274207   4.751   4.264  12.621  0.7895  0.4568 -1.7959
17598TIP3   OH274208   6.454   6.094   5.099 -0.1773  0.2210  0.0607
17598TIP3    H174209   6.500   6.122   5.178 -0.8324  1.6411 -0.0130
17598TIP3    H274210   6.366   6.131   5.109 -1.2798 -2.2259  0.1017
17599TIP3   OH274211   0.301   3.348   1.527 -0.4013 -0.4879  0.1362
17599TIP3    H174212   0.221   3.326   1.575 -1.6943 -2.9655 -2.8271
17599TIP3    H274213   0.288   3.438   1.499 -2.0277 -0.7445 -0.0105
17600TIP3   OH274214   4.683   0.369  17.099  0.0757  0.3731 -0.3876
17600TIP3    H174215   4.709   0.301  17.037 -0.4592  0.3783 -0.6205
17600TIP3    H274216   4.671   0.448  17.047  2.1550  1.0587  0.0829
17601TIP3   OH274217   3.012   4.823  16.890 -0.1372  0.3426 -0.4804
17601TIP3    H174218   2.967   4.899  16.928 -0.9379  0.1342 -1.0007
17601TIP3    H274219   3.017   4.760  16.962 -1.5347  0.0019 -0.6607
17602TIP3   OH274220   6.493   1.018  13.984  0.0430  0.9198 -0.7767
17602TIP3    H174221   6.445   0.942  14.018  2.9304 -1.2988 -1.2442
17602TIP3    H274222   6.518   1.067  14.062 -1.7543  1.4112 -0.4579
17603TIP3   OH274223   5.519   1.896  15.608 -0.2285 -0.0713  0.3199
17603TIP3    H174224   5.609   1.893  15.575 -0.7711  2.2986 -1.6961
17603TIP3    H274225   5.474   1.826  15.560  0.0126  0.4059 -0.6455
17604TIP3   OH274226   5.490   1.829  16.004  0.5354 -0.2312 -0.4805
17604TIP3    H174227   5.450   1.778  15.934 -1.6209  0.6571  0.0347
17604TIP3    H274228   5.547   1.766  16.049  1.6145 -0.9338 -2.6736
17605TIP3   OH274229   1.208   3.415   5.581  0.0225  0.2516  0.3522
17605TIP3    H174230   1.166   3.329   5.584 -0.5368  0.3784 -1.7740
17605TIP3    H274231   1.176   3.461   5.658 -2.5060 -0.2351 -0.3177
17606TIP3   OH274232   6.445   1.807  10.914 -0.1152  0.2458 -0.3154
17606TIP3    H174233   6.364   1.824  10.866 -0.0268 -0.5277 -0.7553
17606TIP3    H274234   6.469   1.718  10.890 -0.2674 -0.3145  1.4626
17607TIP3   OH274235   6.697   4.581   1.548 -0.1095 -0.0422 -0.1510
17607TIP3    H174236   6.706   4.657   1.491 -1.1538 -1.2606 -2.0397
17607TIP3    H274237   6.766   4.521   1.520 -0.4464 -0.5374  0.0636
17608TIP3   OH274238   5.395   1.164  12.514  0.1705  0.7340  0.1860
17608TIP3    H174239   5.455   1.149  12.586 -1.1818  0.0778  1.2235
17608TIP3    H274240   5.447   1.149  12.435  1.4523  0.6167  1.0355
17609TIP3   OH274241   4.510   4.922  12.700  0.5409  0.0935  0.5136
17609TIP3    H174242   4.547   4.896  12.615  1.9467  1.9551  0.4869
17609TIP3    H274243   4.561   4.873  12.764  1.2606  0.6193  0.3588
17610TIP3   OH274244   1.156   0.286  13.963 -0.0644  0.2920  0.3480
17610TIP3    H174245   1.171   0.291  13.868 -1.6393 -0.1114  0.0439
17610TIP3    H274246   1.083   0.345  13.978 -0.1574 -0.0410  1.2318
17611TIP3   OH274247   0.304   5.899   3.052  0.4961  0.4773 -0.9223
17611TIP3    H174248   0.330   5.810   3.075  0.6548  0.4224 -1.3176
17611TIP3    H274249   0.352   5.955   3.113 -0.0114  0.2668 -0.3169
17612TIP3   OH274250   4.671   5.211   4.840  0.3038 -0.0402 -0.5333
17612TIP3    H174251   4.579   5.213   4.815 -0.0490 -0.0946  0.7027
17612TIP3    H274252   4.708   5.291   4.803 -0.4588  0.4636 -0.2309
17613TIP3   OH274253   0.994   5.508   3.625  0.2793  0.4058 -0.4318
17613TIP3    H174254   0.993   5.556   3.708  2.5230  0.1919 -0.1990
17613TIP3    H274255   0.975   5.418   3.649 -1.4604  0.7148 -0.5244
17614TIP3   OH274256   1.001   3.501  12.695  0.5848  0.0984 -0.2579
17614TIP3    H174257   0.918   3.456  12.709  1.1497 -0.7754  0.3924
17614TIP3    H274258   0.977   3.585  12.656 -0.6910  0.3543  0.9874
17615TIP3   OH274259   1.110   0.206   5.205 -0.8105 -0.1187  0.3116
17615TIP3    H174260   1.106   0.261   5.127 -1.1132 -1.2442 -0.4996
17615TIP3    H274261   1.105   0.116   5.171  0.0313 -0.6666  1.5541
17616TIP3   OH274262   4.184   3.858   3.658  0.1720  0.0240 -0.2157
17616TIP3    H174263   4.173   3.843   3.752  1.6804 -0.9675 -0.1540
17616TIP3    H274264   4.221   3.776   3.625 -0.7091  0.2262 -1.7564
17617TIP3   OH274265   1.465   1.498   3.522 -0.2718 -0.5730 -0.0752
17617TIP3    H174266   1.509   1.575   3.557 -0.2986 -1.1178  1.1993
17617TIP3    H274267   1.383   1.493   3.571  0.2389 -2.0512  0.6762
17618TIP3   OH274268   1.285   1.324  16.717  0.4515 -0.5019  0.0077
17618TIP3    H174269   1.294   1.401  16.773  0.2513 -0.5758  0.1408
17618TIP3    H274270   1.191   1.307  16.715  0.3564  0.0615 -1.1063
17619TIP3   OH274271   1.300   6.413  13.617 -0.0455 -0.3348  0.0376
17619TIP3    H174272   1.282   6.478  13.549 -0.0236  0.9170  1.1818
17619TIP3    H274273   1.348   6.462  13.684 -0.6430 -1.3762  1.2471
17620TIP3   OH274274   0.584   4.824   4.239  0.3507  0.1623 -0.1706
17620TIP3    H174275   0.594   4.834   4.334  0.1926  0.7745 -0.2149
17620TIP3    H274276   0.504   4.872   4.218 -0.2779 -0.9657 -0.4510
17621TIP3   OH274277   3.457   4.382  11.220 -0.7027  0.4085  0.0798
17621TIP3    H174278   3.471   4.425  11.136 -0.6651 -0.7761 -0.5446
17621TIP3    H274279   3.508   4.433  11.283  0.6696  0.3075 -0.9267
17622TIP3   OH274280   0.687   0.366  12.855  0.0875  0.1909 -0.8585
17622TIP3    H174281   0.647   0.279  12.846  1.7555 -0.8325  0.8227
17622TIP3    H274282   0.616   0.422  12.886 -0.1860 -1.5570  2.0471
17623TIP3   OH274283   6.806   3.645   0.093  0.3746  0.4942  0.2077
17623TIP3    H174284   6.859   3.613   0.166 -0.9758  2.0091  1.9438
17623TIP3    H274285   6.869   3.682   0.032  1.6677 -2.1633 -0.2151
17624TIP3   OH274286   3.948   2.324  11.551  0.4606 -0.4548  0.1933
17624TIP3    H174287   3.912   2.372  11.476  0.0877 -0.2616  0.4905
17624TIP3    H274288   3.935   2.383  11.626 -0.2921 -1.1437  0.6195
17625TIP3   OH274289   5.299   5.097   4.800 -0.8539 -0.4353 -0.4384
17625TIP3    H174290   5.377   5.041   4.796  0.0527  0.8169 -1.0578
17625TIP3    H274291   5.325   5.169   4.858 -1.2365  0.4432 -1.3290
17626TIP3   OH274292   3.983   1.515   5.164  0.2842  0.5524 -0.3101
17626TIP3    H174293   3.905   1.470   5.133  1.5671 -0.8438 -1.7333
17626TIP3    H274294   3.951   1.582   5.224 -1.8743 -0.9046  0.2589
17627TIP3   OH274295   2.531   1.545  12.493 -0.1113  0.0907 -0.3625
17627TIP3    H174296   2.553   1.592  12.413 -1.1631  0.9094 -0.1865
17627TIP3    H274297   2.607   1.489  12.510  0.0317 -0.2695 -2.0493
17628TIP3   OH274298   3.723   3.105  11.172 -0.5073 -0.1614 -0.0996
17628TIP3    H174299   3.692   3.173  11.112  0.6490 -1.5898 -2.4501
17628TIP3    H274300   3.666   3.030  11.154  1.8793 -1.6834 -1.9584
17629TIP3   OH274301   0.945   5.743  15.099 -0.4773  0.0870 -0.9933
17629TIP3    H174302   0.956   5.831  15.064 -1.5232 -0.0901 -1.7918
17629TIP3    H274303   0.871   5.750  15.159  1.0165  0.2908  0.9351
17630TIP3   OH274304   1.004   0.697   2.224 -1.1948 -0.0991 -0.1591
17630TIP3    H174305   1.014   0.787   2.195 -2.0677 -0.0522 -0.3691
17630TIP3    H274306   1.030   0.698   2.316 -0.8990  0.3008 -0.2450
17631TIP3   OH274307   0.807   2.863  16.072  0.7843  0.0361  0.0530
17631TIP3    H174308   0.758   2.908  16.004  1.4583  1.4283  0.4628
17631TIP3    H274309   0.899   2.882  16.054  0.9513  1.0645  1.7369
17632TIP3   OH274310   1.913   0.291   1.801  0.3153  0.1101  0.2754
17632TIP3    H174311   1.882   0.207   1.835 -1.7454  1.3614  1.8027
17632TIP3    H274312   1.901   0.285   1.707  0.2858 -1.3232  0.3493
17633TIP3   OH274313   1.740   6.677   3.611  0.4412  0.0508 -0.0543
17633TIP3    H174314   1.644   6.674   3.603  0.5105  1.1424 -1.9107
17633TIP3    H274315   1.761   6.771   3.610  1.6673 -0.1372 -2.9517
17634TIP3   OH274316   0.153   2.455  10.428 -0.1802  0.5563 -0.1938
17634TIP3    H174317   0.241   2.490  10.445  0.1539  0.1294 -0.9718
17634TIP3    H274318   0.131   2.405  10.506 -0.7812  2.6842  1.0766
17635TIP3   OH274319   2.938   3.458   2.246  0.3328  0.3303 -0.1894
17635TIP3    H174320   2.886   3.398   2.299 -0.7117  1.5271  0.2108
17635TIP3    H274321   2.998   3.402   2.197 -1.5397 -1.1562 -0.9044
17636TIP3   OH274322   1.553   2.706   6.090 -0.3125 -0.1059  0.1429
17636TIP3    H174323   1.641   2.694   6.125 -1.0019 -0.5153  1.8399
17636TIP3    H274324   1.542   2.801   6.085  0.2719 -0.0537 -0.2432
17637TIP3   OH274325   3.648   4.144  12.433 -0.4763  0.1703  0.0380
17637TIP3    H174326   3.731   4.121  12.391  0.0283  2.1025 -0.1241
17637TIP3    H274327   3.646   4.092  12.514  1.8724  1.5210  1.0619
17638TIP3   OH274328   0.520   1.323  17.023  0.0508 -0.0792 -0.1778
17638TIP3    H174329   0.553   1.369  16.946 -0.3552 -0.4755 -0.5968
17638TIP3    H274330   0.438   1.367  17.044  0.8259  0.9175  0.8715
17639TIP3   OH274331   1.928   3.030   1.144 -0.1740 -0.1213  0.4420
17639TIP3    H174332   1.941   2.982   1.226  0.6516  0.0555  0.4261
17639TIP3    H274333   1.980   2.982   1.080  0.2994  0.5222  0.3316
17640TIP3   OH274334   0.279   1.440  11.302  0.3760 -0.0472  0.5911
17640TIP3    H174335   0.274   1.359  11.354 -0.2268  0.5456  1.4810
17640TIP3    H274336   0.260   1.509  11.365 -0.3142  0.6986 -0.4259
17641TIP3   OH274337   2.627   4.474   5.482 -0.5834  0.3516 -0.2696
17641TIP3    H174338   2.713   4.464   5.524 -1.3979  1.6114  1.8645
17641TIP3    H274339   2.587   4.387   5.489  0.3597 -0.1521 -0.9507
17642TIP3   OH274340   4.783   5.380   1.562 -0.2891  0.0744  1.0339
17642TIP3    H174341   4.737   5.460   1.536  1.8305  1.4090  1.1180
17642TIP3    H274342   4.846   5.366   1.491 -0.7207 -1.6466  0.9539
17643TIP3   OH274343   1.608   5.623  13.319 -0.1721 -0.0848  0.1968
17643TIP3    H174344   1.639   5.556  13.379  1.4637  0.4280 -0.0172
17643TIP3    H274345   1.547   5.578  13.261 -2.3834 -0.4296  2.6532
17644TIP3   OH274346   0.396   4.121   2.280  0.3317  0.0341 -0.4926
17644TIP3    H174347   0.406   4.101   2.374 -0.8817 -2.6563 -0.8537
17644TIP3    H274348   0.331   4.059   2.249 -0.6213  2.0319 -2.8188
17645TIP3   OH274349   3.218   5.321  12.291  0.1306  0.5295  0.2094
17645TIP3    H174350   3.176   5.400  12.255  1.3424  0.6485 -0.9983
17645TIP3    H274351   3.196   5.323  12.384 -0.5862  1.8208  0.0383
17646TIP3   OH274352   1.656   6.671   1.213 -0.3438  0.7750 -0.3294
17646TIP3    H174353   1.712   6.720   1.152 -0.0056 -1.2936 -1.7833
17646TIP3    H274354   1.575   6.722   1.218 -0.7146  0.6356 -3.2295
17647TIP3   OH274355   0.359   1.669   5.767  0.2729 -0.7611 -0.1510
17647TIP3    H174356   0.446   1.637   5.792  0.1201 -2.5741 -1.6893
17647TIP3    H274357   0.299   1.624   5.827  0.2995 -0.3817  0.1671
17648TIP3   OH274358   1.336   1.325   2.580 -0.3304  0.5737 -0.2921
17648TIP3    H174359   1.422   1.293   2.607 -0.0573  0.9118 -0.7325
17648TIP3    H274360   1.350   1.359   2.492 -0.8549  0.8902 -0.2592
17649TIP3   OH274361   4.077   0.416  16.482 -0.6306  0.1136 -0.1907
17649TIP3    H174362   4.034   0.331  16.484 -1.5201  0.5590  0.8508
17649TIP3    H274363   4.169   0.397  16.464 -0.9148 -1.0180 -0.4829
17650TIP3   OH274364   5.645   4.987  15.239 -0.0039  0.1628 -0.1288
17650TIP3    H174365   5.719   4.967  15.181 -1.4556 -0.1386 -1.9876
17650TIP3    H274366   5.633   5.081  15.231 -1.4487 -0.1144 -2.0309
17651TIP3   OH274367   3.633   2.662   2.324 -0.0854 -0.0847  0.6728
17651TIP3    H174368   3.573   2.645   2.397  2.2280 -1.5256  2.3945
17651TIP3    H274369   3.657   2.574   2.292 -0.0877  0.4943 -1.0442
17652TIP3   OH274370   6.483   5.936   1.045  0.5190 -0.2625  0.1740
17652TIP3    H174371   6.562   5.930   0.991 -0.8361 -1.1784 -1.8259
17652TIP3    H274372   6.429   6.002   1.001 -1.1393 -1.8971 -0.3677
17653TIP3   OH274373   2.233   1.078   3.602 -0.9954 -0.7139  0.5555
17653TIP3    H174374   2.256   1.052   3.691  0.2833  1.2771  0.8631
17653TIP3    H274375   2.316   1.105   3.563 -1.9269  0.9849 -0.3524
17654TIP3   OH274376   2.913   6.167  12.841 -0.2169 -0.1460  0.0736
17654TIP3    H174377   2.966   6.132  12.768  0.3320 -1.9224  1.2571
17654TIP3    H274378   2.838   6.108  12.847 -1.0227  0.8514  0.0484
17655TIP3   OH274379   5.182   3.080   3.025 -0.4241 -0.2948 -0.5073
17655TIP3    H174380   5.248   3.149   3.015  0.3094 -0.8641  0.2173
17655TIP3    H274381   5.099   3.123   3.007 -0.0194  0.8877  0.3021
17656TIP3   OH274382   2.164   3.747  12.715  0.0398  0.2734 -0.0995
17656TIP3    H174383   2.080   3.752  12.762 -0.2627 -0.1119 -0.5843
17656TIP3    H274384   2.219   3.691  12.769  0.6240  1.9475  1.1458
17657TIP3   OH274385   0.963   5.347   3.917 -0.0468  0.1304 -0.3032
17657TIP3    H174386   0.977   5.365   4.010  1.3414 -2.1880  0.0179
17657TIP3    H274387   0.882   5.296   3.914 -0.4117  0.7023 -0.4666
17658TIP3   OH274388   3.052   6.046   3.739  0.1541  0.2884  0.6440
17658TIP3    H174389   3.050   5.957   3.773  0.6936  0.4082  0.9967
17658TIP3    H274390   3.017   6.039   3.650 -2.1692  0.0986  1.4933
17659TIP3   OH274391   2.449   6.427  13.337 -0.2094  0.4546  0.0208
17659TIP3    H174392   2.474   6.353  13.390 -1.5378  1.6462  2.4818
17659TIP3    H274393   2.412   6.490  13.399 -0.5872  2.5248 -2.1473
17660TIP3   OH274394   1.465   2.009   5.769 -0.0306 -0.4769 -0.0778
17660TIP3    H174395   1.464   1.922   5.808 -1.0327 -0.4308  0.0092
17660TIP3    H274396   1.519   2.061   5.828 -0.3666 -0.7616  0.4826
17661TIP3   OH274397   2.345   3.894   5.542  0.0971  0.1703  0.3379
17661TIP3    H174398   2.284   3.968   5.536  0.1825  0.2224  0.1066
17661TIP3    H274399   2.318   3.835   5.472  1.2236  0.8721 -0.7212
17662TIP3   OH274400   4.653   4.764  12.897 -0.1601 -0.2544 -0.4563
17662TIP3    H174401   4.626   4.677  12.869 -1.8833 -0.3483  1.2564
17662TIP3    H274402   4.630   4.768  12.990 -0.7429  2.2326 -0.6220
17663TIP3   OH274403   4.790   5.628  15.980 -0.2242 -0.2286 -0.2274
17663TIP3    H174404   4.862   5.652  15.921 -0.0081 -1.6086 -0.5479
17663TIP3    H274405   4.717   5.607  15.922 -0.9956  1.3956  0.1028
17664TIP3   OH274406   0.541   0.118   2.307 -0.0074  0.3936 -0.1351
17664TIP3    H174407   0.578   0.204   2.283 -1.3079  1.4646  1.4985
17664TIP3    H274408   0.478   0.099   2.237 -0.2922  1.1581 -0.0944
17665TIP3   OH274409   0.570   3.786   2.581  0.0421 -0.0599 -0.1663
17665TIP3    H174410   0.564   3.869   2.628 -0.6537 -0.2689  0.1361
17665TIP3    H274411   0.649   3.794   2.527  0.6336  0.3356  0.7370
17666TIP3   OH274412   4.115   5.047   2.905  0.6011 -0.5385  0.1803
17666TIP3    H174413   4.027   5.073   2.878  0.7476 -1.4931 -1.3776
17666TIP3    H274414   4.162   5.130   2.915 -0.2040 -0.0493  0.0698
17667TIP3   OH274415   6.136   0.925   0.363  0.1256 -0.2690  0.2577
17667TIP3    H174416   6.211   0.978   0.390  1.1512 -1.7961  0.5205
17667TIP3    H274417   6.084   0.915   0.443 -1.0586  1.8080 -0.1898
17668TIP3   OH274418   1.678   5.603   4.273  0.0086 -0.3746 -0.4771
17668TIP3    H174419   1.747   5.636   4.330  1.0603 -1.2189 -1.2142
17668TIP3    H274420   1.670   5.510   4.296 -0.6740 -0.3562 -0.6126
17669TIP3   OH274421   1.109   6.259  16.990 -0.2258 -0.2710 -0.3226
17669TIP3    H174422   1.043   6.291  17.052 -0.1254  2.7336 -1.5703
17669TIP3    H274423   1.192   6.263  17.039 -0.2416  1.4185 -0.3507
17670TIP3   OH274424   1.791   2.683   2.118  0.1983  0.1581  0.0747
17670TIP3    H174425   1.761   2.759   2.067  0.8402  1.3407  1.4100
17670TIP3    H274426   1.870   2.654   2.072 -0.9261 -0.7630 -1.3858
17671TIP3   OH274427   5.923   1.277  14.756  0.1369 -0.0936 -0.0577
17671TIP3    H174428   5.871   1.237  14.686 -0.4605  0.0032  0.3267
17671TIP3    H274429   5.863   1.339  14.798  0.3412 -0.4911  0.8502
17672TIP3   OH274430   0.034   6.022  11.527 -0.1291  0.4055 -0.1104
17672TIP3    H174431   0.009   5.972  11.449 -0.9906 -1.9173  1.5386
17672TIP3    H274432   0.128   6.010  11.534 -0.2635 -0.6542  0.0070
17673TIP3   OH274433   0.162   6.588   5.406  0.8379 -0.2382 -0.3626
17673TIP3    H174434   0.098   6.649   5.442  2.2994  2.4863 -2.0411
17673TIP3    H274435   0.120   6.554   5.327  0.5693 -0.3145 -0.1896
17674TIP3   OH274436   0.532   3.344   5.168 -0.0117 -0.0345 -0.3221
17674TIP3    H174437   0.617   3.333   5.124 -0.6687 -2.6180 -1.1517
17674TIP3    H274438   0.495   3.256   5.168 -2.0721  0.7677  1.3568
17675TIP3   OH274439   6.229   2.803  16.661 -0.7204 -0.2845  0.0461
17675TIP3    H174440   6.263   2.890  16.642 -2.6033  0.7541  1.1368
17675TIP3    H274441   6.207   2.766  16.576  1.5544 -0.4039 -0.5628
17676TIP3   OH274442   0.492   6.071  13.743 -0.3165  0.1323 -0.4855
17676TIP3    H174443   0.575   6.116  13.735 -0.6024  0.9898  1.0109
17676TIP3    H274444   0.427   6.133  13.709 -0.4568 -0.1607 -0.7661
17677TIP3   OH274445   2.966   5.197   1.549 -0.1788 -0.3248  0.9041
17677TIP3    H174446   2.937   5.122   1.497 -1.7169  0.9024 -0.0570
17677TIP3    H274447   2.964   5.165   1.639  1.8431 -2.2559  0.3534
17678TIP3   OH274448   3.532   3.076  12.143 -0.0490  0.4162  0.3376
17678TIP3    H174449   3.514   3.146  12.205 -2.0150 -0.1754  0.4935
17678TIP3    H274450   3.525   3.118  12.057 -0.4581  0.5701  0.4459
17679TIP3   OH274451   6.685   6.544   2.496 -0.0242 -0.3276  0.0128
17679TIP3    H174452   6.589   6.538   2.490 -0.1846 -0.2992  2.0250
17679TIP3    H274453   6.717   6.480   2.432 -1.3946 -1.0692  0.0361
17680TIP3   OH274454   4.130   3.548   4.038  0.0183  0.1414 -0.3134
17680TIP3    H174455   4.165   3.496   4.110 -1.8028 -0.4140  0.2147
17680TIP3    H274456   4.115   3.484   3.968  0.9204  0.5311 -0.8814
17681TIP3   OH274457   4.298   2.553  17.011  0.8164 -0.6069  0.4786
17681TIP3    H174458   4.222   2.498  17.032  1.0301 -0.4759  1.6494
17681TIP3    H274459   4.278   2.638  17.051  0.6330  0.1041 -1.0420
17682TIP3   OH274460   2.758   4.135   2.923 -0.2891  0.0063 -0.0131
17682TIP3    H174461   2.678   4.090   2.897 -0.2624  0.0162 -0.1143
17682TIP3    H274462   2.815   4.128   2.846  0.3703 -1.2670  0.5588
17683TIP3   OH274463   1.739   5.115   5.309 -0.5335  0.3476 -0.6396
17683TIP3    H174464   1.794   5.178   5.355 -0.7350  0.7325 -0.9253
17683TIP3    H274465   1.798   5.042   5.289 -0.2660  0.5059 -0.4351
17684TIP3   OH274466   2.126   3.751   1.346  0.1299  0.7368  0.3200
17684TIP3    H174467   2.209   3.797   1.333  0.7139 -0.3915 -0.0641
17684TIP3    H274468   2.063   3.820   1.366  1.7792  1.3885  4.0184
17685TIP3   OH274469   2.098   5.496   3.119 -0.1803 -0.2239 -0.2796
17685TIP3    H174470   2.177   5.549   3.106 -0.5807  0.6564  0.6989
17685TIP3    H274471   2.059   5.532   3.199 -0.9110 -1.4705 -0.0612
17686TIP3   OH274472   0.435   0.753  12.767 -0.4688  0.0118 -0.6478
17686TIP3    H174473   0.521   0.767  12.807 -0.9017 -0.4181  0.4856
17686TIP3    H274474   0.454   0.727  12.677  0.5918 -0.1298 -0.3970
17687TIP3   OH274475   4.859   2.524   1.170  0.4042  0.5118  0.2475
17687TIP3    H174476   4.903   2.574   1.238 -0.1065  0.0155  0.9625
17687TIP3    H274477   4.861   2.580   1.093  0.2015  1.4655  0.9159
17688TIP3   OH274478   5.775   3.975   2.649 -0.1601  0.1805  0.5751
17688TIP3    H174479   5.733   3.961   2.564  0.8339 -1.9649  0.3686
17688TIP3    H274480   5.708   3.950   2.713 -0.3708  0.2312  0.3778
17689TIP3   OH274481   4.100   1.242  13.127 -0.1592 -0.2570  0.2794
17689TIP3    H174482   4.079   1.154  13.156 -0.7360 -0.4017 -0.5460
17689TIP3    H274483   4.087   1.297  13.204  2.1804 -1.1329  1.3698
17690TIP3   OH274484   1.700   5.994   4.072  0.0533 -0.1065 -0.2946
17690TIP3    H174485   1.733   5.907   4.096  2.7154  1.2089  1.2910
17690TIP3    H274486   1.676   6.035   4.155 -1.9106  0.4649 -1.0850
17691TIP3   OH274487   6.086   0.547  13.692  0.0372 -0.3521  0.2500
17691TIP3    H174488   6.050   0.489  13.759  0.1911  0.1949  0.8155
17691TIP3    H274489   6.020   0.617  13.683  0.3499 -0.0430  0.3505
17692TIP3   OH274490   4.357   0.512   4.779  0.2032 -0.2366  0.1127
17692TIP3    H174491   4.399   0.577   4.723  0.7393 -0.4573  0.2480
17692TIP3    H274492   4.426   0.446   4.795  0.5388  0.5413  2.1698
17693TIP3   OH274493   2.762   0.878   2.633 -0.3697 -0.4367 -0.2066
17693TIP3    H174494   2.671   0.903   2.650 -0.8876 -2.0594 -0.3525
17693TIP3    H274495   2.795   0.849   2.718 -0.7840 -2.0918 -0.5646
17694TIP3   OH274496   4.397   0.399  16.564 -0.2797 -0.2190 -0.0314
17694TIP3    H174497   4.453   0.364  16.633  0.6188  0.2954 -0.4925
17694TIP3    H274498   4.441   0.376  16.482 -0.3404  0.8628 -0.3777
17695TIP3   OH274499   2.267   3.693   4.471  0.1631 -0.2441 -0.0026
17695TIP3    H174500   2.180   3.733   4.468 -0.4799 -1.2343  2.4372
17695TIP3    H274501   2.303   3.721   4.555  1.6297 -0.9968 -0.3456
17696TIP3   OH274502   2.739   5.386  12.814  0.0303 -0.2713 -0.5199
17696TIP3    H174503   2.704   5.461  12.862 -0.9455 -1.0047 -0.0648
17696TIP3    H274504   2.670   5.363  12.752 -0.7510 -2.2574  0.9591
17697TIP3   OH274505   3.458   2.276   4.379  0.2957  0.3180  0.1629
17697TIP3    H174506   3.385   2.275   4.441 -1.3622 -0.0497 -1.7048
17697TIP3    H274507   3.469   2.368   4.356  0.5579  0.3935  0.5750
17698TIP3   OH274508   4.439   2.685  16.484 -0.0923 -0.1013 -0.0976
17698TIP3    H174509   4.442   2.626  16.409  0.5706 -2.8474  1.9084
17698TIP3    H274510   4.531   2.701  16.505 -0.2545  2.0022 -0.7703
17699TIP3   OH274511   6.218   0.224   4.921  0.6364  0.0023  0.0980
17699TIP3    H174512   6.140   0.194   4.968  1.1884 -1.3881  0.1825
17699TIP3    H274513   6.184   0.269   4.844 -0.2498  0.4130  0.7131
17700TIP3   OH274514   1.167   5.118   4.518  0.0605 -0.4954 -0.3836
17700TIP3    H174515   1.201   5.197   4.475  1.4524 -0.9217 -0.1304
17700TIP3    H274516   1.200   5.046   4.464  0.3122 -0.9610  0.3778
17701TIP3   OH274517   6.530   5.581  13.348  0.9954  0.3998  0.0597
17701TIP3    H174518   6.448   5.542  13.377  0.0060  1.2170 -1.5270
17701TIP3    H274519   6.573   5.609  13.429 -1.0895  1.5166  0.8544
17702TIP3   OH274520   6.764   1.468   4.397 -0.0306  0.3666 -0.1140
17702TIP3    H174521   6.812   1.400   4.445 -0.9865  0.5268  1.1278
17702TIP3    H274522   6.673   1.439   4.399 -0.4835  1.7356  0.5615
17703TIP3   OH274523   5.523   0.153   0.481  0.2828  0.2665  0.5845
17703TIP3    H174524   5.540   0.061   0.503  0.0126  0.0021 -0.2671
17703TIP3    H274525   5.449   0.150   0.421 -1.1934  1.2190  2.2779
17704TIP3   OH274526   2.320   5.915   1.811  0.3416 -0.3035  0.0358
17704TIP3    H174527   2.310   6.010   1.816  1.4415 -0.2072  0.8638
17704TIP3    H274528   2.313   5.895   1.718 -0.4686  0.5074 -0.0914
17705TIP3   OH274529   6.765   0.586  16.406  0.3705 -0.9210  0.1477
17705TIP3    H174530   6.856   0.583  16.375 -0.0242 -3.3716 -0.9711
17705TIP3    H274531   6.712   0.571  16.327 -1.0735  0.7297  0.7300
17706TIP3   OH274532   2.723   3.691   5.111 -0.4232 -0.1924  0.4483
17706TIP3    H174533   2.642   3.681   5.163  0.5546 -0.6908  1.9466
17706TIP3    H274534   2.734   3.607   5.068 -0.8779 -0.0051 -0.0476
17707TIP3   OH274535   0.705   3.057  16.539  0.1490  0.6267 -0.2615
17707TIP3    H174536   0.670   3.053  16.451 -0.9452 -1.8368  0.2004
17707TIP3    H274537   0.628   3.068  16.595  0.4925 -0.7362  0.5220
17708TIP3   OH274538   6.753   3.313  16.059  0.0709  0.2740 -0.0016
17708TIP3    H174539   6.795   3.397  16.077  1.1413 -0.2378 -0.0096
17708TIP3    H274540   6.719   3.322  15.970 -1.8213  1.4646  0.7929
17709TIP3   OH274541   2.158   1.464  12.406 -0.0154 -0.3018  0.2959
17709TIP3    H174542   2.112   1.486  12.487 -0.2064 -1.1172  0.4148
17709TIP3    H274543   2.088   1.455  12.340  0.1201  0.1379  0.0880
17710TIP3   OH274544   5.113   4.031   5.212 -0.5189 -0.1636 -0.5234
17710TIP3    H174545   5.032   4.038   5.264 -0.5597  0.7852 -0.6913
17710TIP3    H274546   5.084   4.005   5.125 -0.8387  1.6571 -1.0098
17711TIP3   OH274547   6.452   5.052   2.751 -0.1554  0.0133  0.1654
17711TIP3    H174548   6.456   4.979   2.813 -3.7395 -1.5432 -1.1507
17711TIP3    H274549   6.461   5.010   2.665  2.9508  1.8960 -0.6040
17712TIP3   OH274550   4.432   0.586   0.833  0.1996  0.2757 -0.3258
17712TIP3    H174551   4.483   0.657   0.872 -2.4980  1.7836  0.7082
17712TIP3    H274552   4.383   0.629   0.762 -1.6358 -0.4750  0.4576
17713TIP3   OH274553   5.540   0.330  14.039  0.1904  0.4637  0.3400
17713TIP3    H174554   5.604   0.265  14.068 -0.0805  0.1436  0.2270
17713TIP3    H274555   5.474   0.332  14.108  0.6207  1.2236  0.7400
17714TIP3   OH274556   0.906   3.506  11.671  0.4479 -0.1373  0.1188
17714TIP3    H174557   0.926   3.487  11.579  1.8060  0.7832  0.1819
17714TIP3    H274558   0.821   3.467  11.686  0.3736 -0.6438 -1.4315
17715TIP3   OH274559   1.946   6.460  12.673 -0.0451  0.0203 -0.4415
17715TIP3    H174560   2.012   6.500  12.730  0.4613  3.0527 -2.8992
17715TIP3    H274561   1.863   6.498  12.703  0.1640  1.2406 -1.3462
17716TIP3   OH274562   4.863   2.641  13.963  0.7050 -0.2270 -0.3407
17716TIP3    H174563   4.847   2.650  14.057  3.0209 -1.0445  0.1860
17716TIP3    H274564   4.787   2.592  13.930 -0.5822  0.8470  0.8854
17717TIP3   OH274565   4.402   2.671  11.557 -0.2548 -0.2549 -0.0977
17717TIP3    H174566   4.308   2.660  11.571 -0.1837  1.2585  1.9861
17717TIP3    H274567   4.411   2.683  11.462 -2.5131  2.2650 -0.1102
17718TIP3   OH274568   6.472   2.110   0.992 -0.0601 -0.1174  0.1941
17718TIP3    H174569   6.395   2.150   1.034  1.5109  0.7632  2.4453
17718TIP3    H274570   6.524   2.184   0.961 -0.0136 -0.7013 -1.1849
17719TIP3   OH274571   0.915   5.473  11.990 -0.1716  0.2349 -0.2764
17719TIP3    H174572   0.893   5.540  11.925 -0.7456  0.6394  0.3219
17719TIP3    H274573   1.005   5.494  12.016 -0.0205  0.2087 -0.7682
17720TIP3   OH274574   2.960   6.424  12.877  0.1357  0.6246 -0.3076
17720TIP3    H174575   2.882   6.471  12.848  0.2154  0.8806 -0.1099
17720TIP3    H274576   2.942   6.333  12.854  0.8182  0.9900 -2.5348
17721TIP3   OH274577   1.091   2.472   1.792  0.0285 -0.0352 -0.6245
17721TIP3    H174578   1.106   2.431   1.707  1.5005  0.0721 -0.4302
17721TIP3    H274579   1.093   2.566   1.774  2.1786  0.0467 -0.2318
17722TIP3   OH274580   4.352   5.777   3.255 -0.4202 -0.3495 -0.6120
17722TIP3    H174581   4.428   5.834   3.243 -0.8836  0.3013 -0.4917
17722TIP3    H274582   4.299   5.791   3.177 -0.9748  0.0796 -0.1707
17723TIP3   OH274583   4.103   2.562   4.757 -0.0168 -0.5022  0.1224
17723TIP3    H174584   4.179   2.581   4.812 -1.1894  2.4915  0.9167
17723TIP3    H274585   4.112   2.623   4.683 -1.3661 -0.4819 -0.0358
17724TIP3   OH274586   3.712   6.033  14.877  0.3758  0.1427 -0.2282
17724TIP3    H174587   3.692   5.969  14.809  0.0651 -1.0611  0.9620
17724TIP3    H274588   3.788   5.998  14.922 -0.7059 -0.2133  1.4136
17725TIP3   OH274589   1.891   3.655   5.018  0.0582  0.2021  0.0765
17725TIP3    H174590   1.798   3.674   5.005  0.1080 -1.0633 -3.0307
17725TIP3    H274591   1.894   3.598   5.095 -1.4535  1.7485  1.3749
17726TIP3   OH274592   3.190   3.279  14.058 -0.1476  0.2363 -0.1105
17726TIP3    H174593   3.132   3.314  14.127 -1.9814 -1.5193 -0.6718
17726TIP3    H274594   3.186   3.184  14.069 -1.6615 -0.2267 -3.4642
17727TIP3   OH274595   1.486   3.539  14.144 -0.6979 -0.5183  0.0925
17727TIP3    H174596   1.521   3.627  14.160  0.5752 -0.6995 -1.4697
17727TIP3    H274597   1.550   3.480  14.184  0.4322 -0.8191 -2.0170
17728TIP3   OH274598   0.506   6.066   1.684  0.3446 -0.1416 -0.1875
17728TIP3    H174599   0.524   6.061   1.590  1.4896  0.0242  0.0124
17728TIP3    H274600   0.529   5.979   1.718  0.2396 -0.0999 -0.0048
17729TIP3   OH274601   4.722   3.834  11.947  0.3451  0.3832 -0.5575
17729TIP3    H174602   4.794   3.778  11.974  0.6194  1.1227  0.2809
17729TIP3    H274603   4.655   3.822  12.014 -0.7003 -0.9596 -1.7739
17730TIP3   OH274604   4.063   2.923  11.479 -0.3498 -0.9075 -0.0334
17730TIP3    H174605   3.999   2.945  11.411  0.2752 -1.4939 -0.8403
17730TIP3    H274606   4.044   2.984  11.550 -2.2570 -1.5391  0.0528
17731TIP3   OH274607   2.228   4.922  10.816 -0.4906 -0.7293 -0.4854
17731TIP3    H174608   2.278   4.954  10.742  0.0538 -1.7190 -0.5626
17731TIP3    H274609   2.182   4.999  10.850  1.9284  0.4544  0.2868
17732TIP3   OH274610   5.647   0.345  12.799 -0.0353  0.6529 -0.6618
17732TIP3    H174611   5.601   0.415  12.847  1.4815  0.9085  0.5054
17732TIP3    H274612   5.652   0.273  12.862  1.9465  0.9761 -0.3809
17733TIP3   OH274613   0.307   4.105  13.857  0.0922 -0.4549 -0.3445
17733TIP3    H174614   0.230   4.128  13.909  0.7430 -0.2279  0.5328
17733TIP3    H274615   0.361   4.052  13.915  1.4920  0.9720 -0.2805
17734TIP3   OH274616   2.607   5.960  17.015 -0.6179  0.8984  0.1324
17734TIP3    H174617   2.611   6.042  17.065 -1.6832  2.0049 -1.4950
17734TIP3    H274618   2.693   5.953  16.973 -0.0083  0.3857  1.4283
17735TIP3   OH274619   5.827   4.135   5.087  0.0223 -0.6311  0.3254
17735TIP3    H174620   5.913   4.172   5.109 -0.0698 -0.0674 -0.2373
17735TIP3    H274621   5.828   4.047   5.126  0.4643 -0.2553  1.1914
17736TIP3   OH274622   0.708   0.914  10.279  0.1233 -0.0126  0.4019
17736TIP3    H174623   0.795   0.878  10.260  0.5446  1.4048 -0.5728
17736TIP3    H274624   0.649   0.839  10.274  1.2159 -0.9059  0.4943
17737TIP3   OH274625   2.734   3.299  12.265 -0.0546 -0.1481  0.4190
17737TIP3    H174626   2.772   3.386  12.257  2.3079 -1.0813  0.7788
17737TIP3    H274627   2.684   3.302  12.347  0.4341  0.7082  0.6940
17738TIP3   OH274628   1.126   5.789   6.281 -0.4065  0.1845  0.1813
17738TIP3    H174629   1.218   5.761   6.287 -0.8014 -1.8096 -1.6594
17738TIP3    H274630   1.085   5.754   6.360  0.3977  1.1449  1.0536
17739TIP3   OH274631   1.215   1.966  14.240  0.1721 -0.0435  0.0967
17739TIP3    H174632   1.190   1.895  14.182  0.1706  0.0776 -0.0505
17739TIP3    H274633   1.215   2.044  14.185  0.7951 -0.0261  0.1105
17740TIP3   OH274634   3.066   2.452   0.965 -0.2654 -0.1424  0.4769
17740TIP3    H174635   3.159   2.470   0.968 -0.2437 -0.1666  0.0107
17740TIP3    H274636   3.056   2.366   1.006 -0.2417  0.4262  1.7051
17741TIP3   OH274637   3.340   0.566  16.328 -0.0276  0.1188  0.0725
17741TIP3    H174638   3.339   0.586  16.234  1.7075  1.6353  0.3211
17741TIP3    H274639   3.431   0.547  16.348 -0.3222  0.0615  1.5155
17742TIP3   OH274640   4.383   2.030   5.575 -0.2343  0.4464 -0.2545
17742TIP3    H174641   4.327   2.053   5.650  0.7180  1.9484  0.0186
17742TIP3    H274642   4.431   2.110   5.555  2.7692 -1.0694  0.3271
17743TIP3   OH274643   5.561   6.147  13.120 -0.1821 -0.3946 -0.0146
17743TIP3    H174644   5.569   6.104  13.034 -0.6128 -1.3763  0.4109
17743TIP3    H274645   5.531   6.235  13.100 -0.8236 -0.7829 -0.8612
17744TIP3   OH274646   3.351   6.313  11.257  0.4735  0.0719  0.0977
17744TIP3    H174647   3.425   6.262  11.225 -0.6992 -0.4642 -1.9473
17744TIP3    H274648   3.342   6.385  11.195 -1.7919 -0.9058 -0.8118
17745TIP3   OH274649   1.723   3.049  15.547 -0.3929  0.2836  0.0205
17745TIP3    H174650   1.713   3.077  15.456 -0.7000  1.3792  0.3734
17745TIP3    H274651   1.727   3.131  15.597 -0.9205 -0.3049  1.0600
17746TIP3   OH274652   3.617   3.558  12.986  0.1912 -0.3233  0.1052
17746TIP3    H174653   3.551   3.601  12.932 -1.8841  1.5697  3.7607
17746TIP3    H274654   3.670   3.629  13.020 -0.4848 -1.0003  2.8045
17747TIP3   OH274655   4.933   6.589  14.864  0.6336  0.2373 -0.5933
17747TIP3    H174656   4.858   6.595  14.805 -0.5865 -4.1117  0.1787
17747TIP3    H274657   5.009   6.609  14.810 -0.8315  2.5528 -1.9519
17748TIP3   OH274658   5.842   5.376   1.342 -0.2221 -0.2776 -0.2552
17748TIP3    H174659   5.936   5.371   1.359 -0.0335 -0.9619 -1.3628
17748TIP3    H274660   5.800   5.355   1.425  0.5894  0.9189  0.4816
17749TIP3   OH274661   6.591   5.479  10.919 -0.3509  0.0807  0.1115
17749TIP3    H174662   6.626   5.462  10.832  1.1323  1.2606  0.4436
17749TIP3    H274663   6.496   5.481  10.907 -0.3146 -2.2228 -0.9921
17750TIP3   OH274664   6.459   3.819  15.543  0.2721  0.0690  0.1839
17750TIP3    H174665   6.521   3.758  15.585 -1.7810 -1.1146  1.6865
17750TIP3    H274666   6.434   3.775  15.462 -0.5596 -0.7455  0.8561
17751TIP3   OH274667   5.250   2.715  15.089 -0.5136 -0.2302 -0.3496
17751TIP3    H174668   5.182   2.730  15.155  0.8293  1.2654  0.7783
17751TIP3    H274669   5.316   2.664  15.135  0.2375  0.4475 -0.6673
17752TIP3   OH274670   3.895   1.957  13.442  0.2737  0.2123  0.6130
17752TIP3    H174671   3.971   1.999  13.402  0.0230  0.2577  0.1699
17752TIP3    H274672   3.905   1.865  13.419 -0.3974  0.3812 -0.4558
17753TIP3   OH274673   5.530   3.385   3.276  0.0348 -0.4026  0.4676
17753TIP3    H174674   5.612   3.385   3.326  0.0537  1.3920  0.5129
17753TIP3    H274675   5.468   3.429   3.334 -0.7309 -0.9693  0.0840
17754TIP3   OH274676   6.324   0.913   0.627  0.5479 -0.1765 -0.1672
17754TIP3    H174677   6.391   0.889   0.691  0.3435  1.2749  0.6161
17754TIP3    H274678   6.273   0.982   0.669  0.1930  0.5852 -1.7616
17755TIP3   OH274679   0.607   4.335   2.336  0.3086 -0.3027  0.1162
17755TIP3    H174680   0.579   4.415   2.380 -1.1959 -1.7544  2.0310
17755TIP3    H274681   0.525   4.288   2.320  1.1582 -1.4712 -0.9394
17756TIP3   OH274682   1.105   1.070  13.319 -0.4270  0.1230 -1.0154
17756TIP3    H174683   1.025   1.106  13.281  0.3627  1.9061 -1.0710
17756TIP3    H274684   1.174   1.091  13.257  0.4451  0.6604  0.0889
17757TIP3   OH274685   1.181   3.840   1.997 -0.2269 -0.1305  0.1764
17757TIP3    H174686   1.118   3.814   1.931  0.9183 -1.2016 -0.5475
17757TIP3    H274687   1.266   3.814   1.961  0.5951  0.8785  1.2941
17758TIP3   OH274688   4.705   5.492  15.722 -0.5168 -0.5313 -0.1902
17758TIP3    H174689   4.783   5.506  15.669 -0.0374 -1.0489  0.3675
17758TIP3    H274690   4.636   5.539  15.675 -0.1563 -1.1488 -1.3944
17759TIP3   OH274691   5.285   2.292   4.871 -0.4490 -0.4708  0.3182
17759TIP3    H174692   5.358   2.231   4.862 -0.6382 -0.5670 -0.7003
17759TIP3    H274693   5.324   2.371   4.910  0.0245 -0.8241  0.5605
17760TIP3   OH274694   5.541   3.455   5.724 -0.1082 -0.2661  0.2920
17760TIP3    H174695   5.496   3.524   5.773 -0.9908 -0.4912 -0.1747
17760TIP3    H274696   5.616   3.499   5.684  0.1944  0.0858  1.2119
17761TIP3   OH274697   0.389   2.361  12.027 -0.2683 -0.2505 -0.0810
17761TIP3    H174698   0.372   2.408  11.945 -1.3452  0.7199  0.6511
17761TIP3    H274699   0.384   2.429  12.094 -0.6690 -1.2276  0.9098
17762TIP3   OH274700   2.066   3.388   3.902 -0.1658 -0.1683  0.0931
17762TIP3    H174701   2.121   3.393   3.980  1.5592  1.7240 -1.1327
17762TIP3    H274702   2.114   3.331   3.843  0.4365  1.2663 -0.8761
17763TIP3   OH274703   3.649   4.971   2.251 -0.1097 -0.3024 -0.0356
17763TIP3    H174704   3.718   4.912   2.222 -0.1420 -0.5900  0.4519
17763TIP3    H274705   3.675   5.057   2.219  0.4621 -0.4128  0.1168
17764TIP3   OH274706   0.048   5.831  13.373  0.1185 -0.2757 -0.1357
17764TIP3    H174707   0.121   5.872  13.420 -0.4204 -0.8370  1.2502
17764TIP3    H274708  -0.002   5.905  13.338  0.4085  0.1834  0.3930
17765TIP3   OH274709   3.132   4.692  14.184  0.7777  0.3255  0.1677
17765TIP3    H174710   3.039   4.714  14.195  0.9673  0.2362  2.4508
17765TIP3    H274711   3.142   4.608  14.229  1.9864  0.3295 -0.0699
17766TIP3   OH274712   2.798   2.426  14.788 -0.0785 -0.1864  0.0836
17766TIP3    H174713   2.749   2.492  14.837  0.6832 -1.0870  2.1262
17766TIP3    H274714   2.852   2.478  14.728 -0.6034  0.9749  0.5698
17767TIP3   OH274715   3.165   0.995  12.042  0.1370  0.3492 -0.0990
17767TIP3    H174716   3.193   1.085  12.060 -0.2609  0.5421 -0.4330
17767TIP3    H274717   3.168   0.952  12.128  0.2308  0.7070  0.0790
17768TIP3   OH274718   3.871   6.050   5.388 -0.1314 -0.2811  0.4252
17768TIP3    H174719   3.945   5.994   5.364 -1.5206 -3.0464  2.1629
17768TIP3    H274720   3.906   6.109   5.455  1.0884  0.2313 -0.6229
17769TIP3   OH274721   6.095   3.394  16.574 -0.7302 -0.5289 -0.1000
17769TIP3    H174722   6.091   3.299  16.569 -0.6494 -0.4764 -1.7829
17769TIP3    H274723   6.186   3.415  16.557 -0.7678 -0.1439  0.1658
17770TIP3   OH274724   3.775   6.681   2.819 -0.5900 -0.3623 -0.6227
17770TIP3    H174725   3.789   6.765   2.862  1.0899 -1.0121  0.1850
17770TIP3    H274726   3.837   6.682   2.745 -0.7334 -0.7870 -0.7498
17771TIP3   OH274727   0.289   0.240   0.443 -0.7321 -0.0719  0.0796
17771TIP3    H174728   0.228   0.307   0.475  0.8835  2.1784 -1.2411
17771TIP3    H274729   0.329   0.204   0.522 -1.6693  0.4719  0.8277
17772TIP3   OH274730   1.133   3.290   4.363 -0.3702  0.4549  0.1101
17772TIP3    H174731   1.085   3.212   4.391 -1.8018  1.4165  0.3808
17772TIP3    H274732   1.222   3.275   4.395 -0.4108 -1.4234 -0.5267
17773TIP3   OH274733   0.986   5.131   4.785 -0.0993  0.4221  0.4014
17773TIP3    H174734   1.041   5.092   4.853 -0.2046  0.1175  0.3142
17773TIP3    H274735   1.049   5.169   4.723  0.0257 -0.1166  0.1896
17774TIP3   OH274736   3.060   6.061  13.982 -0.5316 -0.7359  0.1256
17774TIP3    H174737   3.133   6.100  14.030  1.5911 -0.3927 -3.0113
17774TIP3    H274738   3.075   5.967  13.989  1.3856 -0.6767 -1.8443
17775TIP3   OH274739   5.901   5.788   2.885 -0.1030  0.2843 -0.8296
17775TIP3    H174740   5.921   5.875   2.917 -0.9947  0.5589 -0.9968
17775TIP3    H274741   5.909   5.731   2.962  3.7643 -0.1023 -1.3016
17776TIP3   OH274742   0.163   2.181  16.883 -0.6335  0.2220 -0.1232
17776TIP3    H174743   0.126   2.169  16.970  1.1523 -0.1907  0.6359
17776TIP3    H274744   0.116   2.120  16.827 -0.4353 -0.9994  1.0039
17777TIP3   OH274745   5.327   1.238   2.624 -0.5462 -0.0757 -0.5016
17777TIP3    H174746   5.288   1.272   2.705  1.4618  0.2880  0.3587
17777TIP3    H274747   5.388   1.306   2.597 -1.1730 -0.2016 -2.3588
17778TIP3   OH274748   6.485   5.757   3.878 -0.0602  0.3395  0.1542
17778TIP3    H174749   6.450   5.692   3.940 -0.2116  0.5644  0.3034
17778TIP3    H274750   6.557   5.711   3.835  0.7198  0.5197  1.2242
17779TIP3   OH274751   1.626   5.456  12.926  0.5401 -0.0947 -0.2010
17779TIP3    H174752   1.566   5.465  13.000  0.6722  0.8903 -0.2047
17779TIP3    H274753   1.573   5.477  12.849  0.7039  0.0643 -0.2716
17780TIP3   OH274754   2.416   1.672  10.515 -0.4902  0.2771  0.1810
17780TIP3    H174755   2.426   1.584  10.551 -0.9057 -0.3530 -1.1920
17780TIP3    H274756   2.505   1.706  10.508 -0.4134  0.7802  2.5518
17781TIP3   OH274757   2.952   3.751  16.319  0.1580 -0.5504 -0.5972
17781TIP3    H174758   3.046   3.735  16.327  0.0127 -0.5954  1.6044
17781TIP3    H274759   2.919   3.744  16.408 -1.7784  0.5899 -1.1682
17782TIP3   OH274760   6.179   0.033  11.391  0.2593 -0.0174 -0.2879
17782TIP3    H174761   6.155   0.121  11.421  0.0511  0.1302 -0.8703
17782TIP3    H274762   6.259   0.013  11.439 -0.2764  0.0425  0.6562
17783TIP3   OH274763   3.415   6.160   5.904 -0.1555 -0.1774  0.0453
17783TIP3    H174764   3.412   6.171   5.999 -2.0556 -0.5582  0.0646
17783TIP3    H274765   3.414   6.249   5.870  2.0963  0.0214  0.3535
17784TIP3   OH274766   0.944   6.389   5.080 -0.7094  0.2769  0.8673
17784TIP3    H174767   0.941   6.366   5.173 -0.0934 -1.8614  0.4221
17784TIP3    H274768   0.872   6.338   5.041 -1.5416  1.8424  0.2700
17785TIP3   OH274769   5.659   4.784  16.583 -0.3143 -0.2770  0.5676
17785TIP3    H174770   5.694   4.708  16.537  2.9285  1.8584 -0.8880
17785TIP3    H274771   5.713   4.792  16.662  0.3325  1.2231  0.0042
17786TIP3   OH274772   0.237   6.397  13.167  0.2474 -0.7314 -0.2145
17786TIP3    H174773   0.277   6.466  13.220 -0.9145  0.0203 -0.2882
17786TIP3    H274774   0.311   6.358  13.118  0.7564  1.4373 -1.2948
17787TIP3   OH274775   2.147   5.000  13.656 -0.1594  0.0732  0.7162
17787TIP3    H174776   2.102   5.050  13.724 -1.1426  0.1661  0.0216
17787TIP3    H274777   2.100   5.021  13.576  0.2486 -0.9358  0.1936
17788TIP3   OH274778   4.906   6.773  12.279  0.9608 -0.5837  0.6950
17788TIP3    H174779   4.971   6.813  12.337  0.7345  1.4058 -0.3400
17788TIP3    H274780   4.855   6.716  12.336  1.5486  0.3339  2.2021
17789TIP3   OH274781   3.258   4.940  13.440 -0.0458 -0.0599  0.6372
17789TIP3    H174782   3.327   5.007  13.438  0.0691 -0.1974 -0.4723
17789TIP3    H274783   3.231   4.931  13.349 -1.3162 -0.2484  1.0125
17790TIP3   OH274784   3.649   2.505   1.839 -0.2994  0.6548  0.3939
17790TIP3    H174785   3.577   2.492   1.900 -0.5216 -1.9527 -0.2917
17790TIP3    H274786   3.722   2.457   1.878 -0.1963 -0.3029 -0.9100
17791TIP3   OH274787   3.139   5.470   5.106 -0.0942 -0.1089  0.5172
17791TIP3    H174788   3.215   5.435   5.061 -1.3544  0.4293 -2.2500
17791TIP3    H274789   3.102   5.395   5.152  1.5931 -0.5544  1.2325
17792TIP3   OH274790   5.614   2.183  16.714  0.3000  0.4515 -0.3364
17792TIP3    H174791   5.556   2.231  16.772 -0.0168  1.3097 -1.3420
17792TIP3    H274792   5.620   2.237  16.635  1.2632 -0.3541 -0.8389
17793TIP3   OH274793   3.313   0.090   3.389  0.0472  0.1908  0.1409
17793TIP3    H174794   3.237   0.055   3.343 -0.3831  0.5019  0.6034
17793TIP3    H274795   3.386   0.035   3.360 -0.8775 -2.3041  2.1743
17794TIP3   OH274796   5.821   5.512   5.802 -0.7844 -0.1870 -0.3397
17794TIP3    H174797   5.779   5.473   5.878  0.7423 -1.8673 -0.2773
17794TIP3    H274798   5.838   5.603   5.826  1.0722 -1.0529  2.0178
17795TIP3   OH274799   1.610   1.361   4.832 -0.1295  0.3937  0.1899
17795TIP3    H174800   1.546   1.376   4.762 -0.6484 -1.4235  0.2085
17795TIP3    H274801   1.560   1.371   4.913  0.3710  2.0666  0.3215
17796TIP3   OH274802   3.617   0.099   3.673  0.1229 -0.4568 -0.6305
17796TIP3    H174803   3.641   0.130   3.760  0.5388 -1.9304 -0.1971
17796TIP3    H274804   3.626   0.176   3.617  1.1589  0.1856  0.3859
17797TIP3   OH274805   2.840   5.741  16.825  0.2262  0.4226  0.6353
17797TIP3    H174806   2.837   5.670  16.889  2.4251  0.7353  1.1439
17797TIP3    H274807   2.866   5.818  16.875 -0.8033  1.3150 -0.1588
17798TIP3   OH274808   4.718   0.163  13.969  0.8622 -0.2247  0.3711
17798TIP3    H174809   4.770   0.243  13.982  0.1933  0.6588 -1.8442
17798TIP3    H274810   4.765   0.115  13.901  0.7458 -1.2614  1.0106
17799TIP3   OH274811   6.008   6.027   5.024 -0.4468  0.3022  0.2070
17799TIP3    H174812   6.076   6.072   5.074 -2.3726  0.9498  2.4243
17799TIP3    H274813   5.932   6.024   5.083 -2.3951 -0.2993 -2.1396
17800TIP3   OH274814   1.557   2.203  13.117  0.5031 -0.5048 -0.2438
17800TIP3    H174815   1.534   2.285  13.073  0.4579 -0.0954  0.5341
17800TIP3    H274816   1.521   2.135  13.060 -2.2635  0.0711  0.6844
17801TIP3   OH274817   5.637   5.820   1.572  0.1883  0.1014 -0.0592
17801TIP3    H174818   5.614   5.882   1.641 -0.9228  1.2962 -1.4661
17801TIP3    H274819   5.733   5.820   1.571  0.2052  1.0574  0.6036
17802TIP3   OH274820   0.504   4.306  14.858  0.4271 -0.0087  0.0666
17802TIP3    H174821   0.482   4.270  14.945 -2.1816 -1.4836 -1.0652
17802TIP3    H274822   0.563   4.241  14.820 -0.5498 -0.7583 -0.2142
17803TIP3   OH274823   0.517   4.457   1.794  0.7010  0.3651  0.5120
17803TIP3    H174824   0.560   4.532   1.752 -1.1617  0.4604 -1.3991
17803TIP3    H274825   0.541   4.382   1.740 -2.1646  0.5646 -1.2272
17804TIP3   OH274826   2.319   0.868   4.858 -0.0370  0.1654  0.0824
17804TIP3    H174827   2.306   0.778   4.831 -2.7268  0.9334 -1.5758
17804TIP3    H274828   2.388   0.901   4.800 -1.5769  0.1087 -1.9034
17805TIP3   OH274829   4.617   0.950  13.448  0.3449 -0.1347  0.3200
17805TIP3    H174830   4.711   0.947  13.433  0.3921  0.7863  0.3258
17805TIP3    H274831   4.608   0.933  13.542  0.6624  1.4324  0.6646
17806TIP3   OH274832   1.942   0.522  11.533 -0.0726  0.1983  0.2873
17806TIP3    H174833   2.012   0.457  11.545  2.0954  2.0791 -1.2599
17806TIP3    H274834   1.979   0.585  11.472 -1.3700  3.8523  2.9325
17807TIP3   OH274835   1.681   5.158   4.581 -0.3151 -0.3141  0.2912
17807TIP3    H174836   1.770   5.122   4.590 -0.6478 -2.1538 -2.5812
17807TIP3    H274837   1.688   5.220   4.509 -1.6273 -1.7530 -1.1409
17808TIP3   OH274838   2.809   5.124   0.795  0.7813 -0.8096 -0.2477
17808TIP3    H174839   2.759   5.044   0.811  1.4992 -0.9045  1.8659
17808TIP3    H274840   2.747   5.182   0.751 -0.6407 -1.5300  0.7179
17809TIP3   OH274841   0.911   2.053  15.248  0.4626  0.4421  0.4600
17809TIP3    H174842   0.852   2.084  15.179  1.5276  0.6608 -0.3881
17809TIP3    H274843   0.894   1.959  15.253  0.8107  0.3083 -0.5679
17810TIP3   OH274844   2.194   6.397   2.404 -0.5697 -0.6445 -0.5895
17810TIP3    H174845   2.273   6.346   2.383 -0.0594 -0.2806  0.3544
17810TIP3    H274846   2.168   6.365   2.490 -1.1659 -0.4055 -0.6806
17811TIP3   OH274847   2.743   2.311   4.187 -0.2621 -0.2546 -0.3219
17811TIP3    H174848   2.737   2.265   4.271 -0.5778  0.6510  0.1670
17811TIP3    H274849   2.836   2.309   4.166  0.1499  1.3003  1.1094
17812TIP3   OH274850   1.040   2.848   2.083 -0.0679 -0.5002  0.1787
17812TIP3    H174851   1.043   2.837   2.178 -3.0242 -0.7090  0.3330
17812TIP3    H274852   1.100   2.921   2.065  1.5208 -1.2838  1.9979
17813TIP3   OH274853   4.131   0.658  16.130  0.1149  0.4892  0.7958
17813TIP3    H174854   4.149   0.752  16.130  0.5839  0.4085  1.6830
17813TIP3    H274855   4.186   0.623  16.200  2.2259 -0.8978 -1.3922
17814TIP3   OH274856   0.047   6.451  11.319  0.2436 -0.5602  0.3613
17814TIP3    H174857   0.079   6.362  11.308 -0.3963 -0.9227  1.3198
17814TIP3    H274858   0.104   6.504  11.263  0.5800 -1.5737 -0.2777
17815TIP3   OH274859   6.380   2.203  15.534  0.6855 -0.3531  0.6718
17815TIP3    H174860   6.298   2.156  15.518  0.3810 -0.2778  1.9042
17815TIP3    H274861   6.353   2.295  15.542  1.0303 -0.1992  0.1164
17816TIP3   OH274862   6.790   2.011   5.225  0.1851  0.7330 -0.3848
17816TIP3    H174863   6.770   2.022   5.132  0.6653  1.8638 -0.3711
17816TIP3    H274864   6.883   1.987   5.227  0.4046  1.5608 -0.1714
17817TIP3   OH274865   2.038   5.872  15.842  0.1202  0.2880 -0.0301
17817TIP3    H174866   1.947   5.868  15.871 -0.2097 -0.2961 -1.0962
17817TIP3    H274867   2.080   5.932  15.904 -1.0734  0.8780  0.2471
17818TIP3   OH274868   6.413   2.430   3.608 -0.4377  0.2928 -0.4367
17818TIP3    H174869   6.333   2.477   3.630 -0.8083  0.4277 -1.9381
17818TIP3    H274870   6.394   2.389   3.523  0.5786 -0.8946 -0.1235
17819TIP3   OH274871   5.454   2.949  12.110 -0.2040  0.2160 -0.1494
17819TIP3    H174872   5.443   2.898  12.190  0.2689 -0.8191 -0.7272
17819TIP3    H274873   5.443   2.886  12.040  0.1981  0.9564 -0.8897
17820TIP3   OH274874   4.638   6.120   5.323  0.2510  0.0966  0.6129
17820TIP3    H174875   4.708   6.055   5.330  0.7345  0.4446 -0.5940
17820TIP3    H274876   4.566   6.073   5.280  0.4874  0.2605  0.0246
17821TIP3   OH274877   4.466   4.928   3.781  0.6679 -0.1769  0.2327
17821TIP3    H174878   4.516   4.989   3.728  0.3097  0.1188  0.2335
17821TIP3    H274879   4.489   4.951   3.871  0.3495  0.1172  0.2407
17822TIP3   OH274880   0.783   0.914  14.361 -0.0846  0.2799  0.0209
17822TIP3    H174881   0.806   0.927  14.453  0.3157 -1.5732  0.2333
17822TIP3    H274882   0.694   0.947  14.354  0.0313  0.8448  0.9739
17823TIP3   OH274883   1.468   5.091   1.944  0.2131 -0.0472 -0.2447
17823TIP3    H174884   1.431   5.041   2.016 -0.3601 -0.2976 -0.7055
17823TIP3    H274885   1.487   5.177   1.981  0.6684 -0.4165  0.4031
17824TIP3   OH274886   0.944   6.421   3.844 -0.4382 -0.3721  0.0906
17824TIP3    H174887   1.028   6.396   3.882 -0.5065 -1.9266 -0.7177
17824TIP3    H274888   0.930   6.511   3.874  1.9570  0.2697 -0.5129
17825TIP3   OH274889   3.439   1.120   3.627  0.0408  0.1586 -0.1046
17825TIP3    H174890   3.406   1.053   3.567 -0.6298  1.7544 -1.6258
17825TIP3    H274891   3.515   1.080   3.669 -0.1481 -1.4241 -1.1797
17826TIP3   OH274892   2.726   3.862   6.015  0.0763 -0.1260 -0.1098
17826TIP3    H174893   2.767   3.825   6.093 -0.8388 -0.1889  0.3598
17826TIP3    H274894   2.739   3.957   6.023 -0.9733 -0.0239  0.7211
17827TIP3   OH274895   3.633   3.176   4.984  0.2789 -0.0849 -0.2221
17827TIP3    H174896   3.634   3.184   5.079  2.3781  0.4543 -0.2550
17827TIP3    H274897   3.719   3.140   4.962  0.4451  1.2959 -2.0169
17828TIP3   OH274898   5.281   2.689   1.056  0.7045  0.0175  0.0517
17828TIP3    H174899   5.194   2.681   1.015  0.8577  0.0625 -0.2850
17828TIP3    H274900   5.335   2.731   0.989  0.2322  2.8885  1.3367
17829TIP3   OH274901   1.602   4.303   5.591  0.2755  0.3026  0.0460
17829TIP3    H174902   1.650   4.293   5.509  0.4299  1.5607 -0.0397
17829TIP3    H274903   1.648   4.246   5.653  0.4307 -0.3077 -0.6157
17830TIP3   OH274904   5.377   1.703   6.701 -0.1710 -0.2113  0.2162
17830TIP3    H174905   5.346   1.775   6.755  1.6358 -1.2028  2.8156
17830TIP3    H274906   5.316   1.699   6.628 -2.5261  1.5618  1.9213
17831TIP3   OH274907   2.080   4.769   1.027  0.1235  0.0933 -0.0049
17831TIP3    H174908   2.011   4.715   0.990 -0.0558  2.1961 -3.0891
17831TIP3    H274909   2.147   4.706   1.054 -1.5822 -1.8114  0.0407
17832TIP3   OH274910   4.240   3.929   1.445  0.0897  0.1688  0.0799
17832TIP3    H174911   4.304   3.996   1.420 -0.0410  0.7117  1.1625
17832TIP3    H274912   4.293   3.860   1.486  0.1715 -0.1890 -0.6163
17833TIP3   OH274913   6.265   0.755  15.755  0.4333 -0.3661  0.4851
17833TIP3    H174914   6.285   0.779  15.845  0.0298 -0.1978  0.5313
17833TIP3    H274915   6.301   0.826  15.702  1.7152 -1.0308  0.4235
17834TIP3   OH274916   5.581   1.260  10.974 -0.1456 -0.4135  0.2200
17834TIP3    H174917   5.498   1.228  10.940  0.1777 -1.9910  0.8526
17834TIP3    H274918   5.567   1.268  11.068  0.0593  0.5130  0.1845
17835TIP3   OH274919   3.413   3.528  12.423 -0.1139  0.4206 -0.3067
17835TIP3    H174920   3.478   3.499  12.359  1.2113 -0.7490  1.4574
17835TIP3    H274921   3.382   3.612  12.390  1.6513  0.5885 -1.6679
17836TIP3   OH274922   0.223   5.290  14.122 -0.4801 -0.0320 -0.5333
17836TIP3    H174923   0.259   5.280  14.034  2.5647 -0.5662  0.6511
17836TIP3    H274924   0.157   5.221  14.128  1.5284 -2.1699 -1.3889
17837TIP3   OH274925   2.658   5.639  12.834 -0.0352  0.5129 -0.4520
17837TIP3    H174926   2.673   5.703  12.903  1.9053 -0.5308  0.1582
17837TIP3    H274927   2.573   5.663  12.796  0.6934  3.5226 -0.3716
17838TIP3   OH274928   3.073   0.470  12.180 -0.0335  0.1412 -0.1406
17838TIP3    H174929   3.008   0.532  12.148  2.2460  2.2125 -1.0768
17838TIP3    H274930   3.114   0.515  12.254  0.7415 -0.8555  0.0519
17839TIP3   OH274931   2.661   2.360  15.541 -0.2562  0.3961 -0.1465
17839TIP3    H174932   2.676   2.275  15.500 -1.3568 -0.0132  0.2379
17839TIP3    H274933   2.631   2.416  15.470 -0.6580  0.1263 -0.1964
17840TIP3   OH274934   1.048   5.400   0.307  0.0020  0.5923 -0.0901
17840TIP3    H174935   1.139   5.426   0.297  0.1267 -0.6162 -2.7294
17840TIP3    H274936   1.019   5.376   0.219 -1.9125 -2.1412  1.1346
17841TIP3   OH274937   2.952   0.373   4.269  0.2101  0.3008 -0.1465
17841TIP3    H174938   3.013   0.405   4.203  1.1608 -0.9519  0.0639
17841TIP3    H274939   2.950   0.278   4.256 -2.0606  0.3338 -0.4134
17842TIP3   OH274940   1.520   0.954  10.757  0.5422  0.1914  0.0370
17842TIP3    H174941   1.505   0.952  10.663  1.4971 -0.1767 -0.1195
17842TIP3    H274942   1.434   0.970  10.795  0.1432  0.3011 -0.8956
17843TIP3   OH274943   5.607   6.715   0.525 -0.1401 -0.1214 -0.0452
17843TIP3    H174944   5.588   6.666   0.445 -1.4109  1.1258 -0.5435
17843TIP3    H274945   5.589   6.652   0.596 -1.0056 -0.6210 -0.6843
17844TIP3   OH274946   2.086   1.755   0.463 -0.3587  0.2458  0.4058
17844TIP3    H174947   2.166   1.802   0.441 -0.7001  1.2712  1.2810
17844TIP3    H274948   2.087   1.678   0.407  1.3567  0.1223  0.5738
17845TIP3   OH274949   1.385   2.067   5.481 -0.2507 -0.3806 -0.4791
17845TIP3    H174950   1.316   2.131   5.464  0.7181  0.8285 -0.0860
17845TIP3    H274951   1.389   2.060   5.577  0.2417 -0.3389 -0.4915
17846TIP3   OH274952   5.550   0.137   3.841  0.0731  0.1320  0.0025
17846TIP3    H174953   5.502   0.219   3.855  1.3662  0.5938  2.1972
17846TIP3    H274954   5.598   0.152   3.760 -1.7271  0.4822 -1.0648
17847TIP3   OH274955   2.947   3.098  13.329 -0.0329  0.4120  0.2428
17847TIP3    H174956   2.978   3.043  13.401 -0.3907  1.4937  1.2492
17847TIP3    H274957   2.969   3.049  13.250  2.5972  0.2653  0.9672
17848TIP3   OH274958   6.126   4.486   4.755 -0.1451 -0.2798  0.1344
17848TIP3    H174959   6.070   4.409   4.767  1.0913 -1.1539  0.4336
17848TIP3    H274960   6.213   4.457   4.782  1.0333  0.2535 -2.6763
17849TIP3   OH274961   4.261   4.534  16.817 -0.1530  0.1049 -0.3693
17849TIP3    H174962   4.238   4.593  16.745 -0.0381  0.3118 -0.2386
17849TIP3    H274963   4.189   4.471  16.819 -0.3781  0.3543 -0.3920
17850TIP3   OH274964   0.354   0.059   2.103 -0.7142  0.5083  0.7416
17850TIP3    H174965   0.357   0.132   2.040 -0.3708  1.6024  1.9707
17850TIP3    H274966   0.269   0.017   2.087 -0.8568  1.0884 -0.0929
17851TIP3   OH274967   4.722   3.611  14.085 -0.0462 -0.2681  0.7370
17851TIP3    H174968   4.807   3.574  14.110 -0.2681 -0.6635  0.8966
17851TIP3    H274969   4.661   3.538  14.090  0.4874 -1.5213 -4.5802
17852TIP3   OH274970   2.421   5.322   2.055 -0.0567  0.2879  0.3238
17852TIP3    H174971   2.457   5.244   2.098  0.1051  0.1104 -0.1264
17852TIP3    H274972   2.345   5.346   2.108 -0.0629 -0.1348  0.5074
17853TIP3   OH274973   4.939   5.832   4.009  0.6085  0.2275  0.1848
17853TIP3    H174974   4.864   5.778   3.985 -0.2735  1.2134  0.6813
17853TIP3    H274975   5.009   5.802   3.951  0.3583 -1.9209  0.9013
17854TIP3   OH274976   1.264   6.129   0.073 -0.2175 -0.0213 -0.1751
17854TIP3    H174977   1.243   6.154   0.163 -1.4656 -2.7584  0.3949
17854TIP3    H274978   1.282   6.035   0.077  2.6381  0.2703 -2.3537
17855TIP3   OH274979   5.500   2.854   1.423 -0.3915 -0.3838  0.5406
17855TIP3    H174980   5.450   2.892   1.352 -1.4311 -0.0035  1.4436
17855TIP3    H274981   5.561   2.794   1.381 -1.3363 -0.5504 -0.6176
17856TIP3   OH274982   0.986   0.012   1.036 -0.2725  0.7702  0.2989
17856TIP3    H174983   1.045   0.077   0.998  0.9142  0.2614  1.2062
17856TIP3    H274984   0.989  -0.061   0.975 -2.3686  1.8862 -1.2337
17857TIP3   OH274985   1.137   4.827   3.650  0.0083  0.0704  0.0525
17857TIP3    H174986   1.125   4.883   3.727  2.0216 -0.9466  1.1675
17857TIP3    H274987   1.221   4.784   3.664 -0.0191 -0.8827 -2.2815
17858TIP3   OH274988   5.084   0.124  17.097 -0.4477  0.3129  0.1415
17858TIP3    H174989   5.097   0.215  17.072  0.0569 -0.0685 -1.0815
17858TIP3    H274990   5.115   0.118  17.187  1.5521  0.8891 -0.4780
17859TIP3   OH274991   6.721   0.637  14.070 -0.0853 -0.2404  0.1463
17859TIP3    H174992   6.652   0.570  14.066 -0.0237 -0.5898  2.9798
17859TIP3    H274993   6.699   0.698  13.999 -2.7411 -0.8727  0.3121
17860TIP3   OH274994   0.589   5.039   0.847 -0.2404 -0.3922 -0.4058
17860TIP3    H174995   0.549   5.086   0.774 -0.2184  0.6986  0.2573
17860TIP3    H274996   0.532   4.964   0.861 -0.8147 -0.0533 -0.8828
17861TIP3   OH274997   5.420   1.440   4.241  0.0169  0.2264 -0.8209
17861TIP3    H174998   5.412   1.497   4.165  0.2984  0.9386 -0.3209
17861TIP3    H274999   5.331   1.414   4.261 -0.0592  0.0309 -1.3938
17862TIP3   OH275000   0.154   6.099  16.949 -0.1848  0.4081 -0.4117
17862TIP3    H175001   0.062   6.101  16.921 -0.5297  0.8935  0.7067
17862TIP3    H275002   0.201   6.063  16.873 -1.3380 -0.1919 -0.8743
17863TIP3   OH275003   1.799   6.527   4.969 -0.3809 -0.1149 -0.1130
17863TIP3    H175004   1.741   6.452   4.983  0.4354 -0.7935 -0.3103
17863TIP3    H275005   1.825   6.553   5.058  2.3942 -2.5281 -0.0757
17864TIP3   OH275006   0.394   0.265   4.617 -0.0617 -0.0030  0.8007
17864TIP3    H175007   0.301   0.287   4.622 -0.1552  0.0212 -0.6451
17864TIP3    H275008   0.425   0.274   4.707 -1.3384  0.4896  1.2233
17865TIP3   OH275009   5.557   1.151   4.800 -0.4064 -0.7727  0.5777
17865TIP3    H175010   5.575   1.067   4.757  0.1482 -0.5922  0.4374
17865TIP3    H275011   5.475   1.181   4.762  0.1471 -0.5493 -0.4783
17866TIP3   OH275012   5.625   3.773   0.211  0.1750 -0.1265  0.0360
17866TIP3    H175013   5.695   3.798   0.151  0.9693 -1.1110  0.5172
17866TIP3    H275014   5.590   3.692   0.175 -0.8899  0.4591 -0.3125
17867TIP3   OH275015   5.065   5.300   5.055  0.1238 -0.1819  0.1617
17867TIP3    H175016   5.050   5.228   4.994  0.9041  0.6780 -1.1108
17867TIP3    H275017   5.014   5.373   5.020 -0.1884  0.0661  1.0965
17868TIP3   OH275018   5.817   4.423   3.648  0.3117 -0.6347  0.1488
17868TIP3    H175019   5.880   4.474   3.699 -0.3651  0.8026 -0.3858
17868TIP3    H275020   5.732   4.452   3.681 -0.0952 -1.4792 -0.1391
17869TIP3   OH275021   4.752   2.343   2.667 -0.5532  0.6113  0.0559
17869TIP3    H175022   4.760   2.318   2.759  1.1713 -0.2258 -0.2794
17869TIP3    H275023   4.752   2.439   2.668  1.1190  0.6440  0.8467
17870TIP3   OH275024   0.336   0.677  13.285  0.0222 -0.3869  0.5267
17870TIP3    H175025   0.300   0.719  13.364 -0.5246 -1.1800  0.7073
17870TIP3    H275026   0.259   0.662  13.229  0.5077  0.9590 -0.5546
17871TIP3   OH275027   1.882   2.355  16.299  0.1826 -0.2227 -0.2485
17871TIP3    H175028   1.949   2.386  16.359  0.2629 -0.9036  0.0149
17871TIP3    H275029   1.920   2.369  16.212  0.1569  0.5440 -0.1504
17872TIP3   OH275030   1.665   1.140   1.742  0.6356  0.2926 -0.1974
17872TIP3    H175031   1.601   1.181   1.685 -0.4927 -1.2660 -0.1379
17872TIP3    H275032   1.703   1.069   1.690  1.9075  0.8145 -0.0289
17873TIP3   OH275033   2.226   1.746   0.774 -0.0794  0.1908  0.3941
17873TIP3    H175034   2.159   1.799   0.730  0.7349  1.0218  0.1355
17873TIP3    H275035   2.248   1.796   0.853 -0.3316 -0.4802  0.9086
17874TIP3   OH275036   3.992   4.067   2.846 -0.0946  0.1168 -0.2885
17874TIP3    H175037   4.032   4.153   2.840  1.1415 -0.2717  1.6343
17874TIP3    H275038   3.938   4.070   2.924  2.2410 -1.6470  1.5541
17875TIP3   OH275039   4.112   6.333   4.236 -0.1493 -0.2255  1.1649
17875TIP3    H175040   4.041   6.273   4.213  0.9565 -1.0540 -0.2889
17875TIP3    H275041   4.082   6.419   4.207 -0.7875 -0.4597  1.1135
17876TIP3   OH275042   4.897   2.092   0.091  0.3351  0.9106 -0.7442
17876TIP3    H175043   4.818   2.083   0.144  0.5991  2.3337 -0.0495
17876TIP3    H275044   4.878   2.164   0.031  0.7258  0.5560 -1.3027
17877TIP3   OH275045   2.967   5.283  12.053  0.5439 -0.2032  0.2055
17877TIP3    H175046   2.898   5.293  11.987 -0.1140 -0.4584  0.8435
17877TIP3    H275047   3.013   5.203  12.026 -1.9129 -2.3860  1.9329
17878TIP3   OH275048   1.449   2.040   4.827  0.1454 -0.2878  1.1444
17878TIP3    H175049   1.527   2.085   4.860  1.0228 -1.1962  0.3547
17878TIP3    H275050   1.474   2.010   4.739 -1.6445  0.8097  0.2006
17879TIP3   OH275051   6.266   2.687  14.902  0.4037  0.0434  0.3863
17879TIP3    H175052   6.273   2.704  14.808 -0.2172 -0.5946  0.2124
17879TIP3    H275053   6.194   2.624  14.909  2.1840 -2.0695  1.0173
17880TIP3   OH275054   0.198   1.799   6.063  0.1262  0.5941  0.0817
17880TIP3    H175055   0.140   1.861   6.107  2.1143  1.5421  1.5141
17880TIP3    H275056   0.176   1.714   6.101  0.9637  1.2256  2.0564
17881TIP3   OH275057   1.852   6.364   2.112  0.4768  0.1981  0.1620
17881TIP3    H175058   1.783   6.362   2.178 -0.3802  2.2254 -0.5823
17881TIP3    H275059   1.807   6.345   2.030  1.0010  0.4601 -0.1898
17882TIP3   OH275060   3.673   0.009  13.404 -0.2518 -0.0924 -0.4532
17882TIP3    H175061   3.670  -0.043  13.485 -1.3817 -1.2309 -1.1760
17882TIP3    H275062   3.758   0.053  13.406 -1.5183  2.6648  2.9885
17883TIP3   OH275063   5.306   4.622   0.377 -0.0931 -0.6087  0.6358
17883TIP3    H175064   5.290   4.619   0.283  0.6087  0.5380  0.4581
17883TIP3    H275065   5.344   4.536   0.398  0.4568 -0.5963 -0.2724
17884TIP3   OH275066   3.474   5.202  11.734 -0.0509  0.0343 -0.0077
17884TIP3    H175067   3.406   5.154  11.783  0.0176  1.5376  1.6761
17884TIP3    H275068   3.527   5.133  11.693 -1.4041 -1.2326  0.2755
17885TIP3   OH275069   6.691   1.615  13.502  0.2070  0.1267  0.2934
17885TIP3    H175070   6.700   1.643  13.412  1.0246  1.3425  0.7377
17885TIP3    H275071   6.779   1.588  13.528 -0.3487 -1.9899  0.2006
17886TIP3   OH275072   2.231   3.327  13.321  0.0731  0.3580  0.3643
17886TIP3    H175073   2.137   3.311  13.316  0.1184  0.5392 -1.9302
17886TIP3    H275074   2.261   3.272  13.394 -1.5436 -0.9954  0.0637
17887TIP3   OH275075   6.339   4.325   3.469 -0.1372  0.2718 -1.0974
17887TIP3    H175076   6.276   4.299   3.536 -1.1919 -1.4217 -2.6247
17887TIP3    H275077   6.408   4.260   3.474  1.0075  1.5059 -0.1455
17888TIP3   OH275078   1.357   5.775  14.015  0.4871 -0.4293 -0.3175
17888TIP3    H175079   1.366   5.785  14.109  0.6229  0.4700 -0.4154
17888TIP3    H275080   1.444   5.795  13.980  0.2810 -0.1346 -0.6745
17889TIP3   OH275081   2.271   6.322   4.339 -0.1146  0.0620  0.1991
17889TIP3    H175082   2.305   6.399   4.384 -0.8270  0.2916  0.3696
17889TIP3    H275083   2.197   6.294   4.393  1.5552 -2.1914  1.5124
17890TIP3   OH275084   6.800   2.306  15.003 -0.2124 -0.5850  0.5137
17890TIP3    H175085   6.872   2.260  15.045 -0.3111 -1.4486 -0.2379
17890TIP3    H275086   6.725   2.247  15.010 -0.5931 -0.1330  0.3836
17891TIP3   OH275087   0.538   4.092   4.951  0.3698  0.4202  0.0672
17891TIP3    H175088   0.487   4.016   4.923  0.7830 -0.3453  1.2949
17891TIP3    H275089   0.473   4.161   4.963 -0.3315 -0.3673  1.0124
17892TIP3   OH275090   1.635   1.294  12.115  1.1415  0.0205 -0.0104
17892TIP3    H175091   1.644   1.389  12.107  0.4739  0.1397  0.5089
17892TIP3    H275092   1.606   1.280  12.206  0.6420 -0.6277 -0.2547
17893TIP3   OH275093   3.792   4.048   0.927  0.4366 -0.7872 -0.0145
17893TIP3    H175094   3.752   3.981   0.872 -0.8794  0.5610 -0.8036
17893TIP3    H275095   3.811   4.004   1.010 -0.7183 -2.0496 -0.3844
17894TIP3   OH275096   2.357   5.543   3.968 -0.3632 -0.7746 -0.1871
17894TIP3    H175097   2.319   5.578   3.887  0.9776 -0.3611 -0.6710
17894TIP3    H275098   2.290   5.485   4.003 -2.6716  2.0964  0.5788
17895TIP3   OH275099   4.491   0.937   5.809 -0.1236  0.3973  0.0023
17895TIP3    H175100   4.564   0.902   5.860 -1.0575  0.0989  1.1769
17895TIP3    H275101   4.461   1.013   5.859 -2.2488 -0.9871  0.9889
17896TIP3   OH275102   1.554   5.617   0.530  0.4033  0.0903 -0.4800
17896TIP3    H175103   1.496   5.592   0.603 -0.5878  0.7355 -1.0266
17896TIP3    H275104   1.522   5.703   0.503  2.5097  1.1131  0.0863
17897TIP3   OH275105   1.520   1.744   1.650  0.6238 -0.3063 -0.3903
17897TIP3    H175106   1.585   1.714   1.587 -0.3347  1.0076 -2.1052
17897TIP3    H275107   1.529   1.840   1.650 -1.8691  0.0240 -1.4464
17898TIP3   OH275108   4.112   6.324   0.092 -0.4836  0.6664 -0.3257
17898TIP3    H175109   4.038   6.294   0.145 -0.0793  0.2444  0.0160
17898TIP3    H275110   4.187   6.276   0.127 -0.1244  0.7473 -0.9640
17899TIP3   OH275111   6.402   6.112   3.909 -0.1694 -0.0564  0.8357
17899TIP3    H175112   6.442   6.040   3.956  2.3745  0.9897  0.4109
17899TIP3    H275113   6.331   6.142   3.966 -0.4632 -2.0248  1.5741
17900TIP3   OH275114   0.681   1.721  14.190 -0.2176 -0.5626 -0.0534
17900TIP3    H175115   0.730   1.647  14.227  1.0228 -0.0423 -0.5854
17900TIP3    H275116   0.726   1.799  14.223  0.6940 -0.0773 -2.2470
17901TIP3   OH275117   4.820   2.141  13.989 -0.2589 -0.5248  0.6698
17901TIP3    H175118   4.856   2.139  14.078 -0.1511  1.9721  0.7605
17901TIP3    H275119   4.725   2.135  14.001 -0.2989  0.5907  1.0613
17902TIP3   OH275120   2.878   3.942  13.832 -0.1058 -0.2211  0.2341
17902TIP3    H175121   2.908   3.899  13.753  0.3877  0.6077 -0.0425
17902TIP3    H275122   2.956   3.984  13.868 -0.3317 -0.5480  1.1392
17903TIP3   OH275123   2.455   3.372   5.371  0.7695  0.0682 -0.1515
17903TIP3    H175124   2.427   3.281   5.380 -0.1969 -0.1054 -3.4303
17903TIP3    H275125   2.524   3.383   5.436 -1.2019 -2.0135  2.5188
17904TIP3   OH275126   4.509   5.623  11.289  0.1837 -0.4876  0.3093
17904TIP3    H175127   4.588   5.658  11.248  0.2618 -1.0747 -0.0659
17904TIP3    H275128   4.480   5.554  11.229 -0.8759  0.0208  0.2040
17905TIP3   OH275129   3.532   3.068   4.126 -0.0867 -0.2123 -0.1324
17905TIP3    H175130   3.464   3.108   4.073 -1.0703 -0.4977  0.8663
17905TIP3    H275131   3.516   2.974   4.119  0.9501 -0.3575 -0.8281
17906TIP3   OH275132   3.541   2.020   2.365 -0.5749  1.2652 -0.0869
17906TIP3    H175133   3.633   2.005   2.343 -0.5502  0.2105  0.6250
17906TIP3    H275134   3.507   2.075   2.295  0.0512 -0.1279 -1.5279
17907TIP3   OH275135   0.851   6.320  13.945 -0.0909  0.3308 -0.1201
17907TIP3    H175136   0.800   6.350  13.871  1.7954  0.6077 -1.3637
17907TIP3    H275137   0.855   6.395  14.005  1.4018  1.3840 -1.4557
17908TIP3   OH275138   5.413   3.192   2.236 -0.5143  0.0857  0.3431
17908TIP3    H175139   5.439   3.265   2.181  1.0031 -0.4986  0.2292
17908TIP3    H275140   5.323   3.210   2.260 -0.9115  0.8137 -1.5731
17909TIP3   OH275141   4.124   4.674  15.083  0.4778  0.4650  0.0805
17909TIP3    H175142   4.035   4.706  15.101  0.2135  0.0953 -0.5310
17909TIP3    H275143   4.160   4.738  15.021  0.6949  0.6991  0.4477
17910TIP3   OH275144   4.327   6.800  13.213  0.0080  0.2988  0.4703
17910TIP3    H175145   4.258   6.857  13.179  1.1176  0.1976 -2.2258
17910TIP3    H275146   4.408   6.848  13.197  0.9183 -1.5840 -1.1611
17911TIP3   OH275147   5.459   5.725  11.262 -0.6496  0.0027 -0.1808
17911TIP3    H175148   5.388   5.783  11.235 -0.0327  1.1393  0.5483
17911TIP3    H275149   5.539   5.775  11.245 -0.1306 -0.3735  1.0163
17912TIP3   OH275150   4.206   0.565  16.705 -0.0201  0.7341 -0.2599
17912TIP3    H175151   4.120   0.587  16.671 -0.6491  0.5855  1.1785
17912TIP3    H275152   4.235   0.492  16.649 -1.1674  0.2564 -0.2693
17913TIP3   OH275153   5.028   1.103   4.039 -0.0431 -0.3747 -0.2992
17913TIP3    H175154   5.018   1.131   3.948 -2.2092  1.8911  0.5249
17913TIP3    H275155   5.109   1.144   4.068  0.0121 -0.0739 -0.8531
17914TIP3   OH275156   0.219   1.330  16.766 -0.0853 -0.2948 -0.2617
17914TIP3    H175157   0.163   1.299  16.837  1.3396  2.4081  2.3076
17914TIP3    H275158   0.160   1.371  16.704 -1.1633  1.5453  1.8400
17915TIP3   OH275159   5.822   4.024  11.805 -0.9436 -0.2784  0.1014
17915TIP3    H175160   5.878   4.099  11.823 -0.8991 -0.6783  1.8226
17915TIP3    H275161   5.875   3.948  11.829 -1.7518 -0.7207  0.5332
17916TIP3   OH275162   4.512   1.241  11.824 -0.0706  0.2621 -0.3115
17916TIP3    H175163   4.484   1.320  11.871 -1.4124 -0.4881  0.2052
17916TIP3    H275164   4.579   1.272  11.764 -1.2038  1.9815 -0.7753
17917TIP3   OH275165   6.449   2.006  12.432  0.4340  0.0721 -0.1594
17917TIP3    H175166   6.502   1.929  12.453 -0.6290 -0.6549 -0.0545
17917TIP3    H275167   6.358   1.974  12.435 -0.0486  1.4030  0.2354
17918TIP3   OH275168   1.103   1.258   0.239  0.3880 -0.2822  0.8880
17918TIP3    H175169   1.069   1.176   0.201  0.2300  0.3489 -0.3835
17918TIP3    H275170   1.113   1.316   0.164  0.6992  0.8062  1.7579
17919TIP3   OH275171   0.669   2.728  13.166  0.6858 -0.0716  0.0188
17919TIP3    H175172   0.591   2.723  13.221  2.0125 -0.7269  1.9635
17919TIP3    H275173   0.737   2.764  13.224  1.3814  2.5687 -2.1936
17920TIP3   OH275174   3.614   1.443   5.350  0.3025  0.2117 -0.0568
17920TIP3    H175175   3.586   1.517   5.403  2.0228  0.5481  0.4473
17920TIP3    H275176   3.694   1.412   5.392  0.7047 -0.6770 -1.4032
17921TIP3   OH275177   0.097   1.040  11.477  0.0174 -0.1744  0.8105
17921TIP3    H175178   0.038   1.024  11.550  0.8080 -0.6030  1.3634
17921TIP3    H275179   0.097   0.958  11.427 -0.6543  0.1732  0.2216
17922TIP3   OH275180   4.655   5.826  13.065 -0.9537  0.3460  0.1064
17922TIP3    H175181   4.642   5.883  12.990 -1.9424 -0.9274 -0.7348
17922TIP3    H275182   4.606   5.868  13.136 -1.5932  0.5958 -0.4720
17923TIP3   OH275183   3.543   3.534  13.584  0.3238 -0.0492  0.1860
17923TIP3    H175184   3.584   3.465  13.531 -1.4669 -1.0294 -0.0004
17923TIP3    H275185   3.561   3.507  13.674  1.7474  0.5998  0.1167
17924TIP3   OH275186   2.654   5.408  14.500 -0.0834 -0.8673  0.0390
17924TIP3    H175187   2.602   5.380  14.425 -0.3808 -0.0021 -0.0794
17924TIP3    H275188   2.641   5.502  14.506  1.7363 -0.5611 -0.1945
17925TIP3   OH275189   6.381   3.359  16.562 -0.3982 -0.1241 -0.1395
17925TIP3    H175190   6.443   3.353  16.634  0.1407  2.0039 -0.3317
17925TIP3    H275191   6.415   3.300  16.495 -1.7049 -3.2752  1.8027
17926TIP3   OH275192   3.113   4.584  11.325 -0.7287  0.4401 -0.0852
17926TIP3    H175193   3.204   4.587  11.297 -0.8007  3.7766 -0.3904
17926TIP3    H275194   3.071   4.656  11.278 -3.1032  0.1656  1.4317
17927TIP3   OH275195   2.614   2.057   2.264 -0.1938  0.1639  0.5243
17927TIP3    H175196   2.639   2.049   2.356  2.3309  0.5110 -0.0555
17927TIP3    H275197   2.688   2.101   2.223 -0.5809 -1.3111 -1.9631
17928TIP3   OH275198   4.884   5.962   3.524  0.3229 -0.1741  0.1540
17928TIP3    H175199   4.958   5.916   3.484  0.4467  0.4184 -0.3078
17928TIP3    H275200   4.847   6.015   3.453  1.0303  1.4950  0.9747
17929TIP3   OH275201   6.245   4.478  12.122  0.0111 -0.3346  0.0523
17929TIP3    H175202   6.237   4.569  12.092 -2.6523 -0.4002  0.3595
17929TIP3    H275203   6.329   4.476  12.167  0.1040  2.0088  0.1291
17930TIP3   OH275204   4.464   0.842   4.043 -0.1624  0.4023 -0.1496
17930TIP3    H175205   4.385   0.896   4.048 -2.3916 -2.6746  0.7566
17930TIP3    H275206   4.487   0.826   4.135 -0.6666 -1.5734 -0.3278
17931TIP3   OH275207   1.531   0.968  12.882 -0.4629  0.0922  0.3764
17931TIP3    H175208   1.443   0.991  12.910 -0.4802 -1.0150  1.3689
17931TIP3    H275209   1.519   0.901  12.815 -0.3790  0.0270  0.4260
17932TIP3   OH275210   4.331   3.522   4.259 -0.1218 -0.1897  0.2993
17932TIP3    H175211   4.264   3.492   4.320  0.5762 -2.7182 -0.0899
17932TIP3    H275212   4.410   3.475   4.284  0.8370  0.6843 -0.9410
17933TIP3   OH275213   5.013   6.595   6.076  0.4782  0.2164  0.1966
17933TIP3    H175214   4.932   6.613   6.124  0.2573  0.4650 -0.2657
17933TIP3    H275215   5.020   6.500   6.075 -0.2703  0.1593 -0.5244
17934TIP3   OH275216   6.651   2.418  12.223 -0.5483  0.7236 -0.5095
17934TIP3    H175217   6.576   2.403  12.281 -0.8693  1.2960 -0.7703
17934TIP3    H275218   6.710   2.344  12.240 -0.3975  1.1430  0.9287
17935TIP3   OH275219   6.618   5.884  14.778 -0.5954  0.0376 -0.0056
17935TIP3    H175220   6.662   5.959  14.818 -1.2182  0.4011  0.0158
17935TIP3    H275221   6.540   5.922  14.736 -1.4138 -0.7132  0.7907
17936TIP3   OH275222   1.996   5.712   2.510 -0.3248 -0.1960  0.3474
17936TIP3    H175223   1.968   5.775   2.444 -1.5044 -0.9148  0.1168
17936TIP3    H275224   2.039   5.643   2.460  1.3531  0.6015  0.6408
17937TIP3   OH275225   1.819   5.183  16.245 -0.1030  0.0612 -0.3979
17937TIP3    H175226   1.758   5.111  16.256 -0.2887 -0.0272 -1.8498
17937TIP3    H275227   1.862   5.191  16.330 -0.6748 -1.2029  0.0331
17938TIP3   OH275228   3.890   6.037  13.357 -0.2781 -0.6196  0.2519
17938TIP3    H175229   3.854   6.043  13.268  0.5573  0.3191 -0.0360
17938TIP3    H275230   3.813   6.033  13.414 -0.8219 -0.8433 -0.4860
17939TIP3   OH275231   4.754   5.788   0.058  0.2705 -0.2248  0.0922
17939TIP3    H175232   4.806   5.732   0.115  0.6518  0.2372  0.2109
17939TIP3    H275233   4.779   5.763  -0.030 -0.2259 -0.8526  0.1174
17940TIP3   OH275234   2.360   6.626  17.028 -0.3058  0.1204  0.2916
17940TIP3    H175235   2.280   6.676  17.049 -1.0571 -1.2032  0.7279
17940TIP3    H275236   2.330   6.559  16.967  0.4377 -0.5135  0.6157
17941TIP3   OH275237   5.397   5.179  10.437 -0.0457  0.5695  0.2281
17941TIP3    H175238   5.356   5.126  10.369  0.9036  1.1423 -0.8221
17941TIP3    H275239   5.335   5.250  10.452  0.3339  1.1999 -1.0434
17942TIP3   OH275240   1.868   0.057   6.063 -0.6854  0.2221  0.1559
17942TIP3    H175241   1.776   0.029   6.066 -1.3816  2.4241  1.8059
17942TIP3    H275242   1.871   0.122   5.993 -0.0511 -0.7705 -0.7686
17943TIP3   OH275243   0.480   4.629  12.772 -0.4689 -0.0387 -0.1794
17943TIP3    H175244   0.527   4.618  12.690  0.3823  2.4098 -0.0994
17943TIP3    H275245   0.493   4.546  12.818 -1.4853 -1.7086 -2.6960
17944TIP3   OH275246   2.367   6.223  16.980 -0.3038 -0.4200 -0.4181
17944TIP3    H175247   2.412   6.230  16.896 -0.3592  0.7483 -0.3644
17944TIP3    H275248   2.437   6.219  17.046 -0.2509 -1.7222 -0.5170
17945TIP3   OH275249   3.227   5.735  11.334 -0.2261 -0.1822 -0.3699
17945TIP3    H175250   3.167   5.793  11.288 -0.1780 -0.1925 -0.4453
17945TIP3    H275251   3.197   5.737  11.425  0.6202  1.0428 -0.0937
17946TIP3   OH275252   4.248   4.998  12.743  0.6047  0.7118  0.0230
17946TIP3    H175253   4.342   5.006  12.760  0.6562  1.2428 -0.4694
17946TIP3    H275254   4.238   5.023  12.652 -0.1404  1.6928  0.3491
17947TIP3   OH275255   6.104   0.953  13.815 -0.0059  0.2557 -0.2331
17947TIP3    H175256   6.038   1.006  13.770  1.6748  3.1487  0.4719
17947TIP3    H275257   6.160   1.017  13.859  3.4713 -2.0258 -1.0173
17948TIP3   OH275258   5.474   1.800  10.550  0.3062 -0.3844  0.4820
17948TIP3    H175259   5.484   1.892  10.523 -1.8719  0.0019  0.8251
17948TIP3    H275260   5.505   1.749  10.476 -1.0887  0.6568 -0.8703
17949TIP3   OH275261   6.594   2.453  13.399 -0.3306 -0.0100  0.3125
17949TIP3    H175262   6.685   2.442  13.425 -0.9006  0.3824  2.7598
17949TIP3    H275263   6.551   2.371  13.425 -0.6836 -0.2052 -0.8465
17950TIP3   OH275264   4.428   4.323   3.285  0.3216  0.0248  0.3749
17950TIP3    H175265   4.517   4.334   3.251  0.0938  0.7075 -0.0155
17950TIP3    H275266   4.374   4.378   3.228 -0.3360 -0.2964  0.6825
17951TIP3   OH275267   2.243   6.095   5.898  0.4074  0.0318 -0.2420
17951TIP3    H175268   2.291   6.080   5.980  1.3436 -0.8969 -0.9428
17951TIP3    H275269   2.305   6.143   5.843 -0.7325  2.0097  0.0804
17952TIP3   OH275270   0.394   3.923  12.722  0.3253 -0.7870 -0.2428
17952TIP3    H175271   0.343   3.875  12.656 -0.4566 -3.0348  1.8671
17952TIP3    H275272   0.343   4.001  12.740 -0.4111 -1.0998 -0.9124
17953TIP3   OH275273   6.321   4.839   5.096 -0.7271 -0.8742  0.1634
17953TIP3    H175274   6.368   4.793   5.027 -1.1781  0.9502 -1.4441
17953TIP3    H275275   6.236   4.860   5.058 -0.4953  1.3690  0.7214
17954TIP3   OH275276   4.021   5.542  11.510 -0.3175  0.0499 -0.0755
17954TIP3    H175277   3.983   5.586  11.586 -2.6799 -0.1131 -1.0732
17954TIP3    H275278   4.011   5.604  11.438  1.7729  0.1546 -0.3367
17955TIP3   OH275279   2.398   3.258  15.426 -0.0870 -0.1098 -0.0770
17955TIP3    H175280   2.459   3.300  15.488 -2.3838  3.1158  0.3021
17955TIP3    H275281   2.346   3.199  15.480 -0.2608  0.6204  0.5842
17956TIP3   OH275282   1.000   6.114  16.479 -0.3917 -0.3789 -0.5710
17956TIP3    H175283   1.039   6.078  16.559 -0.2065  1.6662  0.3135
17956TIP3    H275284   0.907   6.092  16.486 -0.8863  1.9113  1.5595
17957TIP3   OH275285   0.415   2.410  15.901  0.5787 -0.0723 -0.2043
17957TIP3    H175286   0.470   2.485  15.879  2.0898 -0.8794  0.6915
17957TIP3    H275287   0.440   2.387  15.990  0.6924 -2.0902 -0.7195
17958TIP3   OH275288   3.563   5.693   4.581  0.0003  0.4201  0.4033
17958TIP3    H175289   3.575   5.775   4.630 -0.6818 -0.5881  2.3511
17958TIP3    H275290   3.594   5.625   4.641  0.4262 -0.7857 -1.1314
17959TIP3   OH275291   1.875   3.886  15.525 -0.3106  0.3409 -0.1481
17959TIP3    H175292   1.788   3.855  15.548  1.3842 -4.2128  1.1392
17959TIP3    H275293   1.893   3.847  15.439  2.0894 -3.2330  1.7314
17960TIP3   OH275294   0.439   2.672   6.192  0.4207  0.1175  0.1764
17960TIP3    H175295   0.457   2.599   6.251  1.9871 -2.2688 -2.9272
17960TIP3    H275296   0.449   2.750   6.245 -2.6457 -1.7939  4.0770
17961TIP3   OH275297   5.015   3.845  16.436 -0.4483 -0.3048  0.4127
17961TIP3    H175298   4.996   3.761  16.477 -0.4499 -0.3444  0.3309
17961TIP3    H275299   5.002   3.909  16.506  1.7671 -0.5567  1.1453
17962TIP3   OH275300   5.295   2.046  11.008  0.7633 -0.3894 -0.4068
17962TIP3    H175301   5.350   1.992  11.066 -0.0669 -1.0900 -0.2514
17962TIP3    H275302   5.270   1.987  10.937  1.0879  0.2335 -1.0548
17963TIP3   OH275303   4.070   3.153  10.854 -0.1493 -0.2415  0.8195
17963TIP3    H175304   4.000   3.218  10.858  0.4692  0.7531 -2.1831
17963TIP3    H275305   4.025   3.069  10.866 -1.7801  0.4188 -0.2942
17964TIP3   OH275306   3.989   5.148   5.136 -0.6836  0.1808  0.4023
17964TIP3    H175307   3.983   5.238   5.169 -1.2946  0.1465  0.3927
17964TIP3    H275308   3.901   5.114   5.144 -0.7422  0.0017 -0.8084
17965TIP3   OH275309   2.872   4.355   5.582  0.6619  0.0158 -0.2982
17965TIP3    H175310   2.909   4.289   5.524 -0.2933  0.1169 -1.0485
17965TIP3    H275311   2.798   4.311   5.623  0.6924  0.2803  0.0419
17966TIP3   OH275312   4.113   5.119  14.932 -0.1411  0.4247  0.7854
17966TIP3    H175313   4.049   5.131  15.002 -0.7157 -0.5489  0.4522
17966TIP3    H275314   4.198   5.130  14.975 -0.5232  2.3779  1.1030
17967TIP3   OH275315   0.415   4.874   4.956  0.1137  0.2489 -0.3376
17967TIP3    H175316   0.448   4.852   4.869  0.4916 -1.6469  0.2325
17967TIP3    H275317   0.328   4.911   4.940 -0.3919 -1.2990 -1.4830
17968TIP3   OH275318   3.844   6.301   3.115  0.0733 -0.1768  0.7409
17968TIP3    H175319   3.801   6.384   3.095 -1.2564 -0.9933  0.0323
17968TIP3    H275320   3.937   6.323   3.120  0.0040  0.9972 -1.5647
17969TIP3   OH275321   3.338   1.154   1.574  0.0654  0.1607  0.3145
17969TIP3    H175322   3.290   1.176   1.653 -1.9237  1.7180 -1.2163
17969TIP3    H275323   3.422   1.200   1.583  0.0994 -0.1285  1.7037
17970TIP3   OH275324   4.143   1.140  14.768  0.1662 -0.1082  0.0808
17970TIP3    H175325   4.123   1.051  14.739 -0.1644 -0.0617  0.1644
17970TIP3    H275326   4.172   1.129  14.859  0.0980 -0.1290  0.1005
17971TIP3   OH275327   5.066   1.987   0.980  0.4951  0.2057  0.6580
17971TIP3    H175328   5.028   2.063   1.023  0.2261  0.2657  0.3185
17971TIP3    H275329   5.081   1.924   1.050  2.3796  1.2229  1.2456
17972TIP3   OH275330   6.757   5.307  11.278  0.4308  0.0390 -0.1859
17972TIP3    H175331   6.676   5.344  11.245  1.7308  1.2098 -2.3154
17972TIP3    H275332   6.739   5.286  11.370 -2.4292 -0.3891 -0.7808
17973TIP3   OH275333   4.014   2.734  10.933  0.2073  0.3251 -1.0016
17973TIP3    H175334   3.951   2.662  10.931 -0.8343  1.1592  0.1199
17973TIP3    H275335   3.977   2.801  10.876 -0.2201  1.0186  0.0502
17974TIP3   OH275336   3.577   2.842   1.226  0.1607  0.1170  0.5339
17974TIP3    H175337   3.629   2.811   1.151  1.8505  1.2517  1.1854
17974TIP3    H275338   3.642   2.860   1.294 -1.2586  0.0601  1.9407
17975TIP3   OH275339   0.989   4.307  13.218 -0.6049 -0.2856  0.5399
17975TIP3    H175340   0.941   4.225  13.235 -0.6101 -0.6954 -1.2841
17975TIP3    H275341   1.080   4.280  13.207 -0.7264 -0.2037 -0.9061
17976TIP3   OH275342   5.983   1.940  14.500 -0.3204 -0.3249 -0.6431
17976TIP3    H175343   6.015   1.971  14.416  1.0589 -3.6938 -1.5452
17976TIP3    H275344   5.901   1.895  14.480  0.5207 -2.0259 -0.4448
17977TIP3   OH275345   0.354   3.450  15.587  0.1847  0.4937  0.0370
17977TIP3    H175346   0.349   3.518  15.654  0.5193  0.7929 -0.2377
17977TIP3    H275347   0.339   3.496  15.505  2.0800  0.5426 -0.3184
17978TIP3   OH275348   1.254   0.258  13.266 -0.0636  0.2631  0.3235
17978TIP3    H175349   1.195   0.274  13.339  1.5078  1.4098  1.4007
17978TIP3    H275350   1.301   0.340  13.253  1.7198 -0.7580 -0.0856
17979TIP3   OH275351   0.785   6.318   5.923  0.4635  0.1877 -0.0432
17979TIP3    H175352   0.691   6.333   5.934  0.6821  1.0216  0.9115
17979TIP3    H275353   0.791   6.241   5.867 -0.7880 -0.0861  0.1636
17980TIP3   OH275354   3.526   1.245   2.422  0.2366  0.6927  0.1918
17980TIP3    H175355   3.570   1.194   2.490  0.8597  2.1424  0.8978
17980TIP3    H275356   3.442   1.268   2.461  1.0233  2.4406  0.9299
17981TIP3   OH275357   6.775   0.865   5.637  0.5101  1.0234  0.7450
17981TIP3    H175358   6.866   0.856   5.664  0.2687  1.3635  1.7269
17981TIP3    H275359   6.752   0.955   5.661  0.0112  1.0499  0.1938
17982TIP3   OH275360   2.420   2.348   5.718 -0.1998 -0.1947  0.3868
17982TIP3    H175361   2.376   2.391   5.790 -1.6107  0.4165 -0.7860
17982TIP3    H275362   2.400   2.255   5.730  0.1324 -0.1737  1.1344
17983TIP3   OH275363   4.398   3.305  16.876  0.3728 -0.0130 -0.1608
17983TIP3    H175364   4.364   3.393  16.890  1.8797  0.3739  1.3754
17983TIP3    H275365   4.425   3.304  16.784 -1.6186  0.3754 -0.8037
17984TIP3   OH275366   2.325   6.588  14.051  0.6208 -0.1527  0.1653
17984TIP3    H175367   2.248   6.608  14.104  0.3902  0.5514 -0.4157
17984TIP3    H275368   2.353   6.501  14.081 -1.7359 -1.4676 -1.1663
17985TIP3   OH275369   1.082   5.341  10.182  0.2999  0.5383  0.3813
17985TIP3    H175370   1.165   5.342  10.229  0.6133  0.5962 -0.1633
17985TIP3    H275371   1.041   5.425  10.201  1.3531  1.4314 -1.0597
17986TIP3   OH275372   0.950   0.706  10.875 -0.4724 -0.4195  0.5991
17986TIP3    H175373   0.892   0.722  10.949  0.4623 -0.7894  1.4463
17986TIP3    H275374   1.002   0.630  10.902 -1.5534 -1.9309 -1.3277
17987TIP3   OH275375   0.276   3.779  15.654 -0.4117 -0.2812  0.0388
17987TIP3    H175376   0.281   3.779  15.750  0.6236  1.3058  0.0314
17987TIP3    H275377   0.193   3.822  15.634 -0.8619 -1.0552  0.2107
17988TIP3   OH275378   5.399   3.502  14.250 -0.0813  0.0949  0.2114
17988TIP3    H175379   5.491   3.531  14.251  0.2563 -0.9348  1.2055
17988TIP3    H275380   5.404   3.410  14.274 -1.4155  0.0972  0.5230
17989TIP3   OH275381   4.900   2.817   4.873 -0.1720 -0.0978 -0.1028
17989TIP3    H175382   4.936   2.901   4.843 -1.3311  0.4758  0.0431
17989TIP3    H275383   4.968   2.753   4.854  0.8430  0.9227  0.0202
17990TIP3   OH275384   3.719   4.923   1.856 -0.1794 -0.1181  0.5101
17990TIP3    H175385   3.773   4.886   1.926  0.9521 -1.3681 -0.9398
17990TIP3    H275386   3.745   5.014   1.850  0.1321 -0.1478  1.3229
17991TIP3   OH275387   1.543   6.567  10.632  0.2270  0.2499 -0.0572
17991TIP3    H175388   1.486   6.491  10.637  0.9782 -0.2898  0.6145
17991TIP3    H275389   1.483   6.642  10.628 -0.5499 -0.4043 -2.3618
17992TIP3   OH275390   6.612   6.254   0.538 -0.6751 -0.4770 -0.3889
17992TIP3    H175391   6.618   6.183   0.602 -0.7968 -1.0116 -0.9686
17992TIP3    H275392   6.569   6.215   0.463 -0.0863  0.0181 -0.9907
17993TIP3   OH275393   6.029   1.906  12.653  0.2123  0.1777 -0.0872
17993TIP3    H175394   5.953   1.855  12.623  0.7465 -0.3803 -0.5391
17993TIP3    H275395   6.024   1.987  12.603  0.8590 -0.5724 -1.4334
17994TIP3   OH275396   4.721   0.522   5.973 -0.1719 -0.4851  0.0514
17994TIP3    H175397   4.720   0.426   5.976 -1.1478 -0.4759  0.6076
17994TIP3    H275398   4.748   0.543   5.884  1.5629 -1.2476  0.3656
17995TIP3   OH275399   6.052   0.507   3.786 -0.3998 -0.0268 -0.5158
17995TIP3    H175400   6.046   0.423   3.741 -3.5109 -0.8219  1.1106
17995TIP3    H275401   5.962   0.531   3.805  0.5521  1.3412  3.2093
17996TIP3   OH275402   5.531   2.938   4.570  1.0440 -0.1239  0.3342
17996TIP3    H175403   5.605   2.998   4.566  1.6527 -0.9607 -1.4043
17996TIP3    H275404   5.568   2.854   4.597  0.4105 -0.1185  1.3119
17997TIP3   OH275405   5.206   4.491   1.957  0.3861 -0.4147 -0.5301
17997TIP3    H175406   5.152   4.569   1.941  1.7090  0.4178 -1.1284
17997TIP3    H275407   5.161   4.422   1.908 -0.7774 -0.0364 -0.0435
17998TIP3   OH275408   4.984   3.023   0.214 -0.3053 -0.0519 -0.3680
17998TIP3    H175409   5.072   2.986   0.209 -0.1989  0.3031 -1.1781
17998TIP3    H275410   4.998   3.117   0.204 -0.5660  0.2651  1.6994
17999TIP3   OH275411   2.591   3.719   1.685 -0.1250  0.2540  0.0077
17999TIP3    H175412   2.525   3.701   1.752  1.6916 -1.7987  1.3673
17999TIP3    H275413   2.554   3.681   1.605 -0.7034 -0.6947  0.7042
18000TIP3   OH275414   0.084   3.272  15.660 -0.0116  0.0448  0.8825
18000TIP3    H175415   0.171   3.278  15.621  0.3650 -0.6925  1.5691
18000TIP3    H275416   0.024   3.265  15.586  0.2038  3.1598  0.2483
18001TIP3   OH275417   3.261   2.418   4.129  0.1246  0.0597 -0.3950
18001TIP3    H175418   3.332   2.470   4.166  0.7879 -1.3087  0.3372
18001TIP3    H275419   3.304   2.345   4.085 -0.8025 -0.4343 -0.5215
18002TIP3   OH275420   6.190   6.186  14.821  0.0126 -0.4789  0.1854
18002TIP3    H175421   6.102   6.164  14.851 -0.3630  0.0355 -0.5248
18002TIP3    H275422   6.232   6.225  14.898 -0.2285 -1.1279  0.6525
18003TIP3   OH275423   0.282   4.341  11.403 -0.2837  0.7064  0.6274
18003TIP3    H175424   0.303   4.415  11.347 -1.0496  0.6899  0.3133
18003TIP3    H275425   0.192   4.355  11.429 -1.2573 -1.2712 -1.3201
18004TIP3   OH275426   6.040   5.602   5.139 -0.2528 -0.1421 -0.5064
18004TIP3    H175427   6.128   5.633   5.162 -0.2503 -1.6278  1.7355
18004TIP3    H275428   6.054   5.518   5.097 -0.5850 -0.2380 -0.4306
18005TIP3   OH275429   1.454   0.537  17.060  0.0739  0.5019  0.8315
18005TIP3    H175430   1.389   0.531  16.990 -0.3893 -0.2912  1.3337
18005TIP3    H275431   1.526   0.482  17.030 -0.2322 -0.0437  1.0941
18006TIP3   OH275432   6.527   4.351  14.298 -0.5460 -0.0605  0.1394
18006TIP3    H175433   6.615   4.376  14.269  0.1816  0.8728  2.9073
18006TIP3    H275434   6.468   4.400  14.240  0.7781  1.2573 -0.1607
18007TIP3   OH275435   6.065   2.398   2.468 -0.2927  0.2020  0.0647
18007TIP3    H175436   6.100   2.414   2.556 -0.3409 -2.7341  0.7219
18007TIP3    H275437   6.083   2.479   2.420  1.2451  1.2861  2.2969
18008TIP3   OH275438   2.793   1.504   0.761 -0.1066 -0.3093  0.3896
18008TIP3    H175439   2.786   1.409   0.763  0.8115 -0.3778  0.8883
18008TIP3    H275440   2.706   1.534   0.737 -0.4473 -1.2707  0.3903
18009TIP3   OH275441   5.983   5.321  14.417  0.5151  0.3476  0.2509
18009TIP3    H175442   6.072   5.332  14.449  1.1076 -1.3673 -0.6765
18009TIP3    H275443   5.984   5.238  14.369 -1.2597  0.9117 -0.8899
18010TIP3   OH275444   2.977   0.100   2.359  0.2114  0.5775  0.0153
18010TIP3    H175445   2.972   0.030   2.423 -0.2201 -1.6908 -2.3488
18010TIP3    H275446   3.066   0.134   2.367  0.6759 -0.7445  0.7084
18011TIP3   OH275447   0.663   6.234  15.860 -0.5334  0.2493 -0.3338
18011TIP3    H175448   0.707   6.310  15.822 -0.7402  0.7668  0.4504
18011TIP3    H275449   0.569   6.254  15.852 -0.6795 -0.9546 -2.2262
18012TIP3   OH275450   0.346   4.958   5.843 -0.0368 -0.1985  0.1013
18012TIP3    H175451   0.303   5.018   5.904  0.7151 -0.8967  1.3779
18012TIP3    H275452   0.438   4.962   5.866  0.2123 -0.7920 -0.7271
18013TIP3   OH275453   2.898   4.172  12.950  0.1300 -0.0247  0.0554
18013TIP3    H175454   2.908   4.128  12.866 -2.6170 -3.6430  1.3377
18013TIP3    H275455   2.803   4.174  12.964  0.4965 -0.9007  3.6003
18014TIP3   OH275456   0.461   2.906   4.749  0.6294 -0.2841  0.1499
18014TIP3    H175457   0.521   2.941   4.683  0.6067 -1.6886 -0.6608
18014TIP3    H275458   0.374   2.921   4.713  0.6108 -0.8949 -0.0740
18015TIP3   OH275459   4.041   6.478  12.888  0.3348 -0.0730 -0.2995
18015TIP3    H175460   4.031   6.429  12.806 -1.8000 -0.6549  0.2419
18015TIP3    H275461   4.135   6.476  12.906  0.5509 -2.2054 -1.3798
18016TIP3   OH275462   3.740   3.387   1.591 -0.2213 -0.1480  0.5128
18016TIP3    H175463   3.751   3.463   1.648 -1.2632  0.8114 -0.5314
18016TIP3    H275464   3.829   3.354   1.577  0.5772  2.3989 -1.0394
18017TIP3   OH275465   0.252   5.497  12.331 -0.1996 -0.6043 -0.7081
18017TIP3    H175466   0.236   5.493  12.425  0.4878 -0.4138 -0.5762
18017TIP3    H275467   0.253   5.590  12.310 -0.0154 -0.6368 -0.8446
18018TIP3   OH275468   3.382   4.785   5.486 -0.5389  0.0033 -0.3140
18018TIP3    H175469   3.464   4.831   5.469 -0.9474  0.6986 -0.4649
18018TIP3    H275470   3.328   4.805   5.410 -1.0315 -0.0029  0.0286
18019TIP3   OH275471   3.287   3.671  16.841  0.5431  0.0819 -0.4403
18019TIP3    H175472   3.270   3.595  16.896 -0.9550  0.3726 -0.4618
18019TIP3    H275473   3.209   3.725  16.849  1.0992  1.0696 -1.3341
18020TIP3   OH275474   4.111   0.380   1.193 -0.4854  0.3807 -0.7421
18020TIP3    H175475   4.023   0.350   1.216  0.5781 -2.8903 -0.4039
18020TIP3    H275476   4.102   0.414   1.104 -2.0476 -0.0841 -0.8006
18021TIP3   OH275477   0.241   0.896  11.882 -0.4766  0.2036 -0.0939
18021TIP3    H175478   0.267   0.961  11.946  1.4561 -0.0227 -0.6022
18021TIP3    H275479   0.152   0.870  11.908 -1.0702  2.5880  0.4463
18022TIP3   OH275480   5.594   3.793   4.484 -0.4678 -0.0932  0.1705
18022TIP3    H175481   5.541   3.719   4.513 -0.5735 -0.6162 -1.2861
18022TIP3    H275482   5.670   3.792   4.543 -1.3487 -0.2125  1.3407
18023TIP3   OH275483   1.767   2.848  12.295 -0.1103  0.1590 -0.1367
18023TIP3    H175484   1.822   2.926  12.295  0.7824 -0.4471 -1.2496
18023TIP3    H275485   1.827   2.775  12.281 -0.9129 -0.7698  1.0112
18024TIP3   OH275486   0.337   3.817  10.860  0.5822 -0.5258  0.4873
18024TIP3    H175487   0.421   3.771  10.860  0.3769 -0.9156 -0.1273
18024TIP3    H275488   0.284   3.769  10.796  1.0140  1.7696 -1.7368
18025TIP3   OH275489   2.493   3.335   6.097 -0.2567  0.3450  0.2565
18025TIP3    H175490   2.488   3.428   6.120  0.4128  0.6202 -0.6662
18025TIP3    H275491   2.549   3.297   6.165  2.3397  1.2939 -1.2141
18026TIP3   OH275492   5.900   1.826   3.212  0.2878  0.0750  0.6447
18026TIP3    H175493   5.979   1.856   3.256  1.4648  0.5993 -1.6756
18026TIP3    H275494   5.903   1.731   3.220  1.5627  0.0360 -0.0108
18027TIP3   OH275495   0.748   4.114  11.217 -0.0334 -0.4186 -0.2940
18027TIP3    H175496   0.676   4.140  11.275  0.0305 -2.3776  0.7670
18027TIP3    H275497   0.763   4.190  11.161 -1.0108  1.0773  1.3697
18028TIP3   OH275498   1.963   0.302   4.030  0.2821  0.3047 -0.5888
18028TIP3    H175499   1.930   0.322   4.118 -1.0972  0.5623 -1.1458
18028TIP3    H275500   1.958   0.386   3.983 -0.2601 -0.1128 -1.2960
18029TIP3   OH275501   5.722   5.695  15.997  0.4083  0.1283 -0.8273
18029TIP3    H175502   5.634   5.684  16.034  0.1060  3.8110 -0.0599
18029TIP3    H275503   5.777   5.715  16.072  1.6316 -0.5971 -1.5005
18030TIP3   OH275504   3.192   1.213  15.371 -0.1886 -0.5148  0.0901
18030TIP3    H175505   3.121   1.266  15.334  0.2484 -1.5754 -2.4186
18030TIP3    H275506   3.222   1.264  15.446 -0.2148  2.5040 -1.7817
18031TIP3   OH275507   5.116   5.262  16.852 -0.4859 -0.0162  0.2169
18031TIP3    H175508   5.133   5.195  16.918  0.7300  0.2000  0.1340
18031TIP3    H275509   5.149   5.224  16.771  2.2853  1.5019  0.5256
18032TIP3   OH275510   5.423   3.480   0.697 -0.0405 -0.0475 -0.4207
18032TIP3    H175511   5.464   3.529   0.768 -2.6568  0.8825  0.5948
18032TIP3    H275512   5.483   3.407   0.679  1.5263  0.6781  1.5352
18033TIP3   OH275513   4.781   0.759  15.088 -0.0172 -0.0285 -0.1581
18033TIP3    H175514   4.804   0.688  15.147  1.3943  1.2320  0.8762
18033TIP3    H275515   4.686   0.770  15.100 -0.0623 -0.9986  0.4828
18034TIP3   OH275516   0.592   4.507   3.948 -0.1262 -0.1245 -0.0131
18034TIP3    H175517   0.645   4.464   3.880  1.6477 -0.4222  1.4819
18034TIP3    H275518   0.637   4.589   3.965 -0.9022  0.2283  0.3960
18035TIP3   OH275519   4.095   1.655  16.888  0.1252 -0.0371 -0.1472
18035TIP3    H175520   4.114   1.661  16.794 -2.3156  0.6509 -0.6621
18035TIP3    H275521   4.008   1.615  16.893 -0.3047  0.9923  1.7438
18036TIP3   OH275522   4.411   1.471  11.924 -0.5153  0.4101 -0.5030
18036TIP3    H175523   4.406   1.498  12.015 -0.0332 -1.1057 -0.0097
18036TIP3    H275524   4.465   1.537  11.882  3.1694 -1.2087  1.2826
18037TIP3   OH275525   5.078   0.869   1.179  0.0370  0.6798  0.3944
18037TIP3    H175526   5.099   0.959   1.155  0.0805  1.1107  1.9061
18037TIP3    H275527   5.042   0.876   1.268  0.9095 -0.8741  0.9165
18038TIP3   OH275528   2.590   2.253  14.745 -0.1411  0.3301 -0.1334
18038TIP3    H175529   2.664   2.313  14.757  0.2973 -0.0999 -0.6444
18038TIP3    H275530   2.611   2.177  14.800 -0.0322  0.0559 -0.5534
18039TIP3   OH275531   1.549   1.034  12.319 -0.2749 -0.0266  0.4224
18039TIP3    H175532   1.624   1.019  12.262  0.0540 -0.9406  1.0616
18039TIP3    H275533   1.585   1.074  12.397 -0.3870 -0.8168  0.8878
18040TIP3   OH275534   4.817   2.862  15.404  0.5416 -0.9424 -0.2983
18040TIP3    H175535   4.786   2.832  15.489  0.0345 -0.4663 -0.3087
18040TIP3    H275536   4.805   2.787  15.345 -3.5774  0.0554 -1.0507
18041TIP3   OH275537   3.312   0.390   1.922  0.1633 -0.1548 -0.1680
18041TIP3    H175538   3.228   0.367   1.882 -0.2516  0.8706  0.0880
18041TIP3    H275539   3.366   0.311   1.911 -0.9055 -0.9207 -0.1019
18042TIP3   OH275540   6.628   5.812   1.916  0.3015 -1.0258 -0.5640
18042TIP3    H175541   6.600   5.787   1.828  0.3853 -0.6523 -0.7020
18042TIP3    H275542   6.684   5.741   1.945  0.0105 -1.3057 -0.6836
18043TIP3   OH275543   2.702   3.613  15.504 -0.2050  0.1813  0.3318
18043TIP3    H175544   2.760   3.649  15.571 -0.1990 -1.3469  1.1872
18043TIP3    H275545   2.630   3.676  15.499  0.9947  1.5821 -0.0353
18044TIP3   OH275546   2.333   3.464   5.731  0.4297 -1.1058  0.5850
18044TIP3    H175547   2.409   3.474   5.673 -0.4299 -2.4321 -0.8762
18044TIP3    H275548   2.343   3.377   5.769  2.0158  0.4475  4.1648
18045TIP3   OH275549   6.055   3.406   5.627 -0.1817  0.3579  0.4574
18045TIP3    H175550   6.049   3.411   5.531 -1.0539  0.2578  0.5007
18045TIP3    H275551   6.123   3.469   5.650 -0.6812  1.1379 -0.1540
18046TIP3   OH275552   5.591   2.198  13.884 -0.2066 -0.0885  0.0357
18046TIP3    H175553   5.649   2.178  13.810  0.0678 -2.5547  0.8368
18046TIP3    H275554   5.512   2.147  13.868  0.0770 -1.1302  1.6755
18047TIP3   OH275555   3.675   2.143  12.879 -0.5505 -0.1123 -1.1086
18047TIP3    H175556   3.766   2.168  12.864 -0.9306  0.2900 -3.0384
18047TIP3    H275557   3.659   2.161  12.972  0.9265  1.1541 -1.0682
18048TIP3   OH275558   4.110   5.567  16.626  0.5688 -0.1500 -0.0105
18048TIP3    H175559   4.099   5.631  16.555 -0.0728  0.5005  0.6588
18048TIP3    H275560   4.062   5.490  16.597 -0.0541  0.2672 -0.0958
18049TIP3   OH275561   4.931   1.809   3.442  0.5035 -0.6330  0.2003
18049TIP3    H175562   4.900   1.752   3.371  0.3591  0.0568 -0.2936
18049TIP3    H275563   5.002   1.758   3.483  0.2908 -1.2239 -0.1476
18050TIP3   OH275564   5.549   5.871  13.461 -0.1395  0.1345 -0.0378
18050TIP3    H175565   5.617   5.884  13.394  0.6067 -1.8559  0.2596
18050TIP3    H275566   5.504   5.791  13.433  0.8606 -1.3665  2.3159
18051TIP3   OH275567   2.333   4.963   1.026  1.1910  0.1761  0.1314
18051TIP3    H175568   2.314   5.056   1.038 -0.6545 -0.2862  1.2886
18051TIP3    H275569   2.300   4.942   0.939 -1.9492 -0.1032  1.2490
18052TIP3   OH275570   5.465   3.150  10.882  0.1378 -0.3983  0.2531
18052TIP3    H175571   5.547   3.144  10.930  0.6657  1.0743 -0.3949
18052TIP3    H275572   5.491   3.158  10.791 -0.7342 -0.2190  0.0096
18053TIP3   OH275573   4.727   4.950  14.324  0.1873 -0.1439 -0.3416
18053TIP3    H175574   4.815   4.973  14.293 -0.5071 -0.0152 -2.4017
18053TIP3    H275575   4.714   4.861  14.292  0.2642 -0.9084  1.6403
18054TIP3   OH275576   5.793   3.099  14.914 -0.3403 -0.4184 -0.3996
18054TIP3    H175577   5.746   3.182  14.905 -0.9493 -0.7604 -0.4174
18054TIP3    H275578   5.742   3.036  14.863  0.5827 -0.6312 -1.0900
18055TIP3   OH275579   2.287   1.195   5.219  0.7601  0.0665  0.1281
18055TIP3    H175580   2.213   1.232   5.171  1.4134  0.0200 -0.9504
18055TIP3    H275581   2.248   1.134   5.281 -0.3122  2.0549  1.5308
18056TIP3   OH275582   2.576   6.067  12.175  0.0495  0.0023  0.1516
18056TIP3    H175583   2.650   6.014  12.206  0.7560  0.1375 -1.2353
18056TIP3    H275584   2.614   6.125  12.110 -1.4466 -0.5729 -1.3049
18057TIP3   OH275585   6.144   1.227  16.719 -0.2910  0.4244 -0.1932
18057TIP3    H175586   6.116   1.318  16.710 -0.3788  0.3271 -0.9273
18057TIP3    H275587   6.220   1.220  16.662 -1.3072 -0.4016 -1.4788
18058TIP3   OH275588   0.833   5.642  14.565 -0.1661  0.4406 -0.6014
18058TIP3    H175589   0.870   5.727  14.542  1.7367 -0.3402 -0.6295
18058TIP3    H275590   0.861   5.628  14.656 -3.4855  1.3506  0.7023
18059TIP3   OH275591   2.463   0.917  10.604  0.6154 -0.7794 -0.2330
18059TIP3    H175592   2.424   0.833  10.629  0.0683 -0.5131 -0.1618
18059TIP3    H275593   2.415   0.943  10.526 -1.8108  1.1904  1.7502
18060TIP3   OH275594   4.763   6.459   0.751  0.2425 -0.0952 -0.7046
18060TIP3    H175595   4.779   6.399   0.678  0.5328 -0.6156 -0.2210
18060TIP3    H275596   4.788   6.545   0.717 -2.2827  0.1825 -2.1818
18061TIP3   OH275597   1.822   2.257   5.230  0.3096  0.0516  0.3201
18061TIP3    H175598   1.888   2.260   5.161 -1.2880  2.7828 -1.2739
18061TIP3    H275599   1.742   2.229   5.185 -0.2547 -0.4922  1.6163
18062TIP3   OH275600   2.398   1.616   0.585 -0.2087 -0.0977 -0.0126
18062TIP3    H175601   2.351   1.547   0.539  0.6259 -1.4528  1.0696
18062TIP3    H275602   2.330   1.670   0.624 -0.9000 -1.5379  0.8465
18063TIP3   OH275603   5.527   4.096  13.680 -0.4212  0.5278  0.4213
18063TIP3    H175604   5.484   4.144  13.610 -1.2530  1.2186  1.3663
18063TIP3    H275605   5.616   4.080  13.648 -0.7745  0.8451 -0.7634
18064TIP3   OH275606   2.569   6.045   4.280  0.2645  0.0946 -0.5366
18064TIP3    H175607   2.527   6.120   4.239 -2.6229 -1.2681 -0.3175
18064TIP3    H275608   2.506   5.974   4.270  2.0090 -1.8009  1.0421
18065TIP3   OH275609   3.834   4.426  15.594  0.2432 -0.2675  0.0927
18065TIP3    H175610   3.914   4.451  15.640  0.5236 -2.4177  0.9247
18065TIP3    H275611   3.763   4.449  15.654  0.1652  1.8088 -0.7215
18066TIP3   OH275612   4.518   0.740  13.757  0.0999 -0.4199 -0.1386
18066TIP3    H175613   4.582   0.674  13.785  0.6797 -0.1593 -0.7935
18066TIP3    H275614   4.518   0.732  13.661  1.6727  1.8698 -0.3933
18067TIP3   OH275615   4.281   0.537  15.675  0.3921  0.1989  0.1147
18067TIP3    H175616   4.280   0.458  15.620  0.4588  0.2924 -0.0199
18067TIP3    H275617   4.213   0.593  15.637  0.7404  0.4483 -0.1422
18068TIP3   OH275618   3.510   6.295  12.390  0.1018  0.1161 -0.1097
18068TIP3    H175619   3.468   6.352  12.454 -0.9952 -0.4425 -0.3134
18068TIP3    H275620   3.598   6.332  12.380 -0.3418  1.3494  0.2851
18069TIP3   OH275621   4.948   1.370  13.530  0.2556 -0.1961 -0.4261
18069TIP3    H175622   4.880   1.425  13.490  0.2821 -0.2689 -0.5707
18069TIP3    H275623   4.961   1.299  13.468  0.5016 -0.1547 -0.4216
18070TIP3   OH275624   4.986   2.849  14.311 -0.2378 -0.3055 -0.0488
18070TIP3    H175625   5.059   2.799  14.276 -0.5015  0.0335 -1.1077
18070TIP3    H275626   5.026   2.929  14.345  0.0314 -0.6840  0.5371
18071TIP3   OH275627   6.752   2.521   1.243  0.2633  0.0233 -0.2667
18071TIP3    H175628   6.824   2.520   1.306 -0.4544  0.5969  0.6049
18071TIP3    H275629   6.791   2.555   1.163  1.0452 -0.0273  0.0796
18072TIP3   OH275630   1.177   3.713   0.898  0.1639 -0.4078  0.3101
18072TIP3    H175631   1.141   3.632   0.863  0.6267 -0.4453 -0.0838
18072TIP3    H275632   1.194   3.694   0.990 -2.5147  0.1573  1.0313
18073TIP3   OH275633   2.418   4.238  14.853 -0.4936 -0.0147 -0.5350
18073TIP3    H175634   2.508   4.271  14.850  0.2789 -1.9464 -0.2234
18073TIP3    H275635   2.405   4.213  14.945 -1.0820 -0.4284 -0.7252
18074TIP3   OH275636   2.784   0.291   2.327  0.1088 -0.1064  0.4444
18074TIP3    H175637   2.825   0.326   2.248  0.5213 -0.1620  0.6327
18074TIP3    H275638   2.834   0.212   2.347 -0.0068 -0.1015  0.7479
18075TIP3   OH275639   1.907   1.186   0.484 -0.0507  0.3892  0.4656
18075TIP3    H175640   1.947   1.211   0.401 -0.7181 -2.2995 -0.7455
18075TIP3    H275641   1.836   1.250   0.497 -0.5264  0.3016 -1.5102
18076TIP3   OH275642   0.808   3.963  13.527  0.2959 -0.1906  0.1668
18076TIP3    H175643   0.776   3.986  13.614 -0.0712 -0.4604  0.1075
18076TIP3    H275644   0.765   3.879  13.508 -0.3577  0.3166 -0.6536
18077TIP3   OH275645   1.869   1.259  13.146 -0.5080 -0.0919 -0.1232
18077TIP3    H175646   1.885   1.167  13.128 -0.9020 -0.1613 -0.1289
18077TIP3    H275647   1.924   1.279  13.222  0.2566 -0.0963 -0.6729
18078TIP3   OH275648   4.552   1.665  16.034 -0.6400  0.2143 -1.0164
18078TIP3    H175649   4.612   1.726  16.077  1.6620 -1.7375 -1.2070
18078TIP3    H275650   4.535   1.597  16.099 -1.9001  0.2346 -1.2936
18079TIP3   OH275651   0.584   2.751   4.137 -0.1205  0.5746  0.2748
18079TIP3    H175652   0.633   2.783   4.212 -0.1294  0.6154  0.2631
18079TIP3    H275653   0.551   2.666   4.165 -1.5512  1.3200  0.9355
18080TIP3   OH275654   4.559   6.276   5.812  0.3294 -0.0946  0.5544
18080TIP3    H175655   4.483   6.329   5.836  0.3616 -0.4878  1.5684
18080TIP3    H275656   4.617   6.336   5.767 -0.3045  0.3638  0.3302
18081TIP3   OH275657   3.858   2.425  13.854 -0.3515  0.4154 -0.2851
18081TIP3    H175658   3.892   2.440  13.942 -0.0998 -0.8063 -0.1582
18081TIP3    H275659   3.784   2.485  13.847 -0.6258  0.2454  0.9166
18082TIP3   OH275660   1.938   6.213  16.220  0.1597  0.1168  0.1211
18082TIP3    H175661   1.983   6.197  16.303 -0.5969  0.5221  0.6208
18082TIP3    H275662   2.006   6.247  16.163  0.5792  0.3487  0.7404
18083TIP3   OH275663   0.145   1.649   4.523 -0.1275 -0.0285  0.1122
18083TIP3    H175664   0.119   1.717   4.586 -0.6380 -1.4791  1.5444
18083TIP3    H275665   0.063   1.625   4.479  0.4092  1.7970 -2.0353
18084TIP3   OH275666   5.691   6.616  14.532 -0.1565  0.0380  0.0375
18084TIP3    H175667   5.782   6.619  14.563 -0.3278  0.0703  0.5309
18084TIP3    H275668   5.653   6.540  14.577 -1.2119  1.6836  2.1028
18085TIP3   OH275669   6.763   6.288  14.699 -0.3869 -0.2157 -0.6106
18085TIP3    H175670   6.713   6.215  14.664 -0.2180 -0.5181 -0.2372
18085TIP3    H275671   6.843   6.291  14.646 -0.5629 -0.0696 -0.8648
18086TIP3   OH275672   6.597   3.810  15.267  0.3600 -0.0585  0.7625
18086TIP3    H175673   6.507   3.781  15.252  0.7856 -0.1046 -2.2556
18086TIP3    H275674   6.590   3.905  15.281 -0.2764 -0.3207  2.4454
18087TIP3   OH275675   2.944   2.910  15.243 -0.0447  0.0943 -0.3437
18087TIP3    H175676   2.986   2.842  15.294  0.7872  1.4467  0.8641
18087TIP3    H275677   3.006   2.930  15.172 -0.1022 -0.1074 -0.4511
18088TIP3   OH275678   3.083   4.004  16.667 -0.0844  0.1406 -0.0312
18088TIP3    H175679   3.078   4.036  16.757  0.4582  2.8426 -0.8673
18088TIP3    H275680   3.133   3.923  16.673 -0.9277 -0.2769  2.1954
18089TIP3   OH275681   5.891   5.756   5.964 -0.1688 -0.0617  0.6837
18089TIP3    H175682   5.965   5.705   5.998 -0.9288 -0.5348  1.6762
18089TIP3    H275683   5.829   5.760   6.037 -0.4238  1.7423  0.4212
18090TIP3   OH275684   2.767   0.173   4.955 -0.4345 -0.2708 -0.3711
18090TIP3    H175685   2.847   0.211   4.990 -1.0008  1.2989 -0.6914
18090TIP3    H275686   2.720   0.142   5.032  1.0962 -2.5919 -0.2779
18091TIP3   OH275687   4.393   2.676   2.067 -0.2039  0.0895 -0.6560
18091TIP3    H175688   4.398   2.581   2.057  1.7560 -0.0503  0.8798
18091TIP3    H275689   4.320   2.689   2.127 -1.2530 -0.3119 -1.7945
18092TIP3   OH275690   6.390   5.999   4.848 -0.3080 -0.1658 -0.0723
18092TIP3    H175691   6.406   6.015   4.941  0.5708 -1.2317 -0.0360
18092TIP3    H275692   6.413   5.908   4.835 -0.6448 -0.0839 -1.3045
18093TIP3   OH275693   2.704   5.985  14.192 -0.5502 -0.0219 -0.2741
18093TIP3    H175694   2.746   6.054  14.140  1.3759 -1.4303 -0.7247
18093TIP3    H275695   2.719   5.905  14.141 -0.3756 -1.1520  1.4753
18094TIP3   OH275696   4.295   4.637  14.695  0.2934  0.5807  0.1005
18094TIP3    H175697   4.296   4.620  14.601  0.8151 -1.6964  0.4518
18094TIP3    H275698   4.383   4.615  14.724  0.6468  2.8422  0.9375
18095TIP3   OH275699   1.194   0.323  13.707 -0.1522  0.0141  0.1756
18095TIP3    H175700   1.240   0.243  13.682  1.9905  0.9927  0.7557
18095TIP3    H275701   1.153   0.354  13.626 -0.4407 -1.2830 -0.1984
18096TIP3   OH275702   1.707   1.406   1.344 -0.0818  0.0623  0.0931
18096TIP3    H175703   1.727   1.437   1.255 -2.6488 -1.0912 -1.0092
18096TIP3    H275704   1.784   1.356   1.370  0.3965 -0.3437 -1.9227
18097TIP3   OH275705   2.784   6.186  15.835  0.3252 -0.6408  0.6461
18097TIP3    H175706   2.831   6.256  15.881  1.6120  0.1352 -1.6999
18097TIP3    H275707   2.718   6.230  15.784 -0.4259 -1.3968  0.9376
18098TIP3   OH275708   3.087   6.156   5.931  0.6191  0.0247  0.6492
18098TIP3    H175709   3.087   6.184   6.023  2.5076  0.1687  0.6375
18098TIP3    H275710   3.110   6.235   5.882 -0.4833 -0.0287  0.0300
18099TIP3   OH275711   3.888   4.419   1.922  0.4886  0.6461 -0.1489
18099TIP3    H175712   3.953   4.480   1.886  2.2263 -0.3889  1.0377
18099TIP3    H275713   3.909   4.414   2.015 -1.2930  0.2070  0.2658
18100TIP3   OH275714   1.898   0.870   5.310 -0.2517  0.4865  0.0027
18100TIP3    H175715   1.968   0.832   5.257 -0.2064  3.0718 -1.9599
18100TIP3    H275716   1.943   0.923   5.376 -0.3551 -0.4931  0.8834
18101TIP3   OH275717   6.677   1.305   0.321  0.6937  0.0586  0.3712
18101TIP3    H175718   6.758   1.281   0.366 -0.9937  0.3178  3.8800
18101TIP3    H275719   6.680   1.400   0.314  1.2509 -0.0261 -0.7963
18102TIP3   OH275720   5.568   6.710  14.281 -0.7690  0.3576 -0.0026
18102TIP3    H175721   5.641   6.691  14.341 -1.7019  1.9700  1.7219
18102TIP3    H275722   5.511   6.633  14.288 -0.2451 -0.0225  0.1823
18103TIP3   OH275723   0.366   1.595  16.109  0.4067 -0.1463 -0.2843
18103TIP3    H175724   0.373   1.689  16.121  0.2685 -0.1567 -0.1127
18103TIP3    H275725   0.451   1.568  16.073  0.4122  0.0557 -0.4203
18104TIP3   OH275726   2.296   5.605   3.720  0.2154 -0.0439 -0.3337
18104TIP3    H175727   2.275   5.695   3.695 -1.8037 -0.9971 -2.3499
18104TIP3    H275728   2.215   5.556   3.707  1.6549 -2.4720 -0.8337
18105TIP3   OH275729   0.066   6.336   5.320  0.8349  0.0670 -0.0139
18105TIP3    H175730  -0.006   6.314   5.261  1.7396 -3.5148  0.0060
18105TIP3    H275731   0.023   6.368   5.400 -0.5196  1.4088 -1.2155
18106TIP3   OH275732   1.844   0.983  11.458 -0.0580  0.3035  0.4726
18106TIP3    H175733   1.907   0.919  11.427 -0.1196  1.3338 -1.9780
18106TIP3    H275734   1.889   1.067  11.451 -1.0529  0.8590  0.4941
18107TIP3   OH275735   5.001   1.072  14.914  0.2120 -0.1090  0.5799
18107TIP3    H175736   5.089   1.062  14.951  0.6924  0.4527 -0.3415
18107TIP3    H275737   4.992   0.997  14.855 -0.1513 -0.4713  1.0997
18108TIP3   OH275738   5.828   4.623   4.970 -0.0883 -0.2467 -0.0417
18108TIP3    H175739   5.920   4.638   4.990 -0.4862  1.8274  0.4108
18108TIP3    H275740   5.794   4.581   5.049  0.5959 -1.7742 -0.5134
18109TIP3   OH275741   6.654   1.298   2.166 -0.3690  0.1544 -0.4464
18109TIP3    H175742   6.731   1.283   2.220 -0.7857 -1.8117 -0.3435
18109TIP3    H275743   6.629   1.211   2.134 -0.8633  1.0792 -2.8299
18110TIP3   OH275744   1.827   4.038  15.735  0.3514 -0.3871 -0.0577
18110TIP3    H175745   1.732   4.029  15.742  0.4787 -0.8328  1.5113
18110TIP3    H275746   1.849   3.991  15.655 -0.7145 -0.5833 -0.2554
18111TIP3   OH275747   0.435   3.946   1.986 -0.5808  0.6282  0.0877
18111TIP3    H175748   0.426   3.944   1.891 -1.1640 -0.1866  0.1466
18111TIP3    H275749   0.398   3.862   2.015 -2.0029  1.5780  1.1510
18112TIP3   OH275750   2.507   0.205  13.037  0.5447 -0.0218  0.2525
18112TIP3    H175751   2.507   0.113  13.010  0.6137  0.5880 -2.0561
18112TIP3    H275752   2.414   0.229  13.039  0.5782  0.3738 -1.2989
18113TIP3   OH275753   5.873   3.206   2.226 -0.4171 -0.0363  0.2231
18113TIP3    H175754   5.954   3.222   2.178 -1.1698  0.3958 -0.9451
18113TIP3    H275755   5.871   3.111   2.240  0.0161 -0.1185 -0.2423
18114TIP3   OH275756   1.261   0.627  16.862 -0.0594  0.0957 -0.2777
18114TIP3    H175757   1.320   0.670  16.799  2.1972  0.0982  1.6606
18114TIP3    H275758   1.173   0.653  16.834  1.0075  3.4294 -1.0822
18115TIP3   OH275759   3.707   3.359   5.450 -0.7230 -0.6771  0.2968
18115TIP3    H175760   3.632   3.373   5.509  1.1415  2.1290  2.2265
18115TIP3    H275761   3.764   3.434   5.465  2.1245 -2.2436 -1.7264
18116TIP3   OH275762   0.018   0.289  16.209 -0.2609  0.0377  0.4657
18116TIP3    H175763  -0.068   0.315  16.176 -0.4895 -0.7557  0.3974
18116TIP3    H275764   0.066   0.263  16.130 -1.1723 -2.9218  0.7344
18117TIP3   OH275765   1.758   5.916  14.111  0.5103  0.4056 -0.0968
18117TIP3    H175766   1.795   5.985  14.166  0.3729 -0.7849  1.5544
18117TIP3    H275767   1.808   5.838  14.133 -0.4908 -0.4098 -0.6360
18118TIP3   OH275768   3.880   5.856  17.022  0.0465 -0.1819 -0.1336
18118TIP3    H175769   3.804   5.809  17.057  1.0652 -2.1082 -0.3899
18118TIP3    H275770   3.950   5.792  17.022  1.9342  1.7557  0.8174
18119TIP3   OH275771   4.272   5.260   2.976  0.0240 -0.4972 -0.6039
18119TIP3    H175772   4.352   5.208   2.977  0.7981  0.6037  1.4690
18119TIP3    H275773   4.265   5.296   3.064 -1.5195  1.2993 -1.3659
18120TIP3   OH275774   0.863   3.895   2.620  0.9233 -0.0911  0.3621
18120TIP3    H175775   0.834   3.877   2.531  1.3001 -1.0424  0.4210
18120TIP3    H275776   0.819   3.976   2.644 -1.1985 -1.1538  0.2482
18121TIP3   OH275777   3.016   0.433   5.199 -1.3477 -0.4842  0.0134
18121TIP3    H175778   3.092   0.403   5.247  0.6845  1.1303 -1.9810
18121TIP3    H275779   2.994   0.518   5.239 -1.2571 -0.3347 -0.2497
18122TIP3   OH275780   4.427   3.674  11.939  0.3611  0.0859 -0.1778
18122TIP3    H175781   4.493   3.605  11.950 -0.3775 -0.7076 -0.5756
18122TIP3    H275782   4.451   3.740  12.004  2.1155  0.2803 -0.9563
18123TIP3   OH275783   6.003   1.178  15.961  0.0646 -0.4417 -0.3779
18123TIP3    H175784   6.017   1.267  15.927 -1.3965 -0.1325 -0.2493
18123TIP3    H275785   5.986   1.192  16.054  0.4404 -0.9240 -0.2372
18124TIP3   OH275786   6.631   3.969  12.414 -0.2534 -0.4215 -0.7934
18124TIP3    H175787   6.613   3.993  12.505 -2.4683  0.7637 -1.4750
18124TIP3    H275788   6.716   4.009  12.395 -0.4142  0.5054  0.3346
18125TIP3   OH275789   3.660   3.924   2.267 -0.2796  0.0852 -0.1041
18125TIP3    H175790   3.737   3.977   2.285 -0.3354  0.2413 -0.3221
18125TIP3    H275791   3.662   3.910   2.172 -0.1658 -0.4518 -0.0296
18126TIP3   OH275792   2.197   6.231   3.792  0.1357  0.0681 -0.0928
18126TIP3    H175793   2.187   6.174   3.869 -0.4877  0.5910  0.2309
18126TIP3    H275794   2.107   6.248   3.765  0.1878  2.5686  1.0814
18127TIP3   OH275795   5.397   1.534  13.215 -0.0124 -0.1362 -0.7465
18127TIP3    H175796   5.441   1.519  13.131 -0.0738  0.8083 -0.9664
18127TIP3    H275797   5.319   1.585  13.192 -1.0144 -1.4109 -0.3130
18128TIP3   OH275798   5.607   2.660  15.768  0.2275  0.1642  0.5268
18128TIP3    H175799   5.612   2.567  15.744  0.7926 -0.2132  2.0157
18128TIP3    H275800   5.562   2.661  15.852 -0.5498  1.3336  0.1239
18129TIP3   OH275801   1.855   4.896  12.096 -0.4220 -0.1772  0.0961
18129TIP3    H175802   1.822   4.825  12.041 -1.2708 -0.7677  1.3231
18129TIP3    H275803   1.815   4.975  12.060 -0.9560 -0.5533 -0.1573
18130TIP3   OH275804   4.610   4.991   5.599  0.8196  0.6209 -0.1363
18130TIP3    H175805   4.658   4.952   5.672  0.7242  0.7220 -0.0181
18130TIP3    H275806   4.523   5.009   5.635 -0.6474 -3.1018 -1.3829
18131TIP3   OH275807   3.117   5.871  15.593 -0.0227  0.4121 -0.1968
18131TIP3    H175808   3.040   5.871  15.536 -0.2550 -0.2879  0.0991
18131TIP3    H275809   3.116   5.957  15.636  0.0127  0.8438 -1.0461
18132TIP3   OH275810   5.648   0.297  12.447  0.6550  0.4843  0.2880
18132TIP3    H175811   5.589   0.265  12.514  1.2186 -0.8330  0.1945
18132TIP3    H275812   5.706   0.358  12.493  0.9412 -0.2879  0.9828
18133TIP3   OH275813   5.535   1.208  11.233 -0.3175  0.2296  0.2727
18133TIP3    H175814   5.550   1.259  11.313 -0.7610  0.9746 -0.1049
18133TIP3    H275815   5.555   1.118  11.258 -0.3803  0.4609  1.2028
18134TIP3   OH275816   6.815   5.286  11.619  0.0340  0.1620 -0.6661
18134TIP3    H175817   6.797   5.350  11.688  2.4842 -0.0066  0.2193
18134TIP3    H275818   6.729   5.266  11.582 -0.8514  3.8993 -0.9764
18135TIP3   OH275819   4.781   6.801   4.767 -0.7987  0.3592  0.2043
18135TIP3    H175820   4.820   6.737   4.828 -0.2173  1.5822  1.1777
18135TIP3    H275821   4.812   6.886   4.799 -2.4404  1.2286 -0.3883
18136TIP3   OH275822   5.700   0.788   5.816 -0.3759  0.0481 -0.1432
18136TIP3    H175823   5.753   0.773   5.737 -0.0386 -0.5281  0.1768
18136TIP3    H275824   5.740   0.864   5.858  0.4668 -0.6019  0.2884
18137TIP3   OH275825   3.218   6.306   2.053 -0.4515  0.4331 -0.0168
18137TIP3    H175826   3.124   6.314   2.071 -0.5177 -0.8685  0.3286
18137TIP3    H275827   3.239   6.216   2.076  1.2012  1.1016  1.3256
18138TIP3   OH275828   0.883   5.863   0.847  0.6997  0.5052  0.5492
18138TIP3    H175829   0.853   5.944   0.806 -0.3928  0.8875  2.0379
18138TIP3    H275830   0.830   5.794   0.808  0.6303  0.6828  0.3297
18139TIP3   OH275831   0.192   4.770  13.070  0.1584  0.4693  0.8610
18139TIP3    H175832   0.240   4.693  13.041  0.0596  0.4453  0.7579
18139TIP3    H275833   0.146   4.800  12.991  0.8874  1.1487  0.6772
18140TIP3   OH275834   2.239   3.609  12.469 -0.4409  0.8877 -0.4629
18140TIP3    H175835   2.331   3.584  12.476 -1.0658 -1.6907 -0.2926
18140TIP3    H275836   2.221   3.657  12.550  0.3312 -0.2183  0.3970
18141TIP3   OH275837   3.693   6.743  13.675  0.2140  0.2657 -0.2206
18141TIP3    H175838   3.622   6.798  13.709  1.6555  0.9212  1.8940
18141TIP3    H275839   3.769   6.767  13.727  1.5695 -1.7541 -1.1536
18142TIP3   OH275840   5.011   3.744  14.274 -0.8676 -0.3662  0.1740
18142TIP3    H175841   4.997   3.658  14.234  0.5396 -0.9649  0.9174
18142TIP3    H275842   5.087   3.732  14.331  0.5181  1.8134 -1.0669
18143TIP3   OH275843   0.569   4.542   5.573  0.3138  0.7019  0.0561
18143TIP3    H175844   0.580   4.637   5.574  1.5882  0.6206  2.3458
18143TIP3    H275845   0.637   4.511   5.512  1.9835  1.1627  1.5864
18144TIP3   OH275846   0.667   1.969   2.000  0.6998  0.3849  0.4162
18144TIP3    H175847   0.752   2.010   1.985  0.5555 -0.2130 -2.9601
18144TIP3    H275848   0.611   2.005   1.931 -0.2073 -3.2295 -0.9538
18145TIP3   OH275849   1.027   3.489   0.857  0.3311 -0.8312  0.1042
18145TIP3    H175850   0.972   3.473   0.934 -2.0400 -0.6466 -1.4686
18145TIP3    H275851   1.053   3.402   0.827  0.7535 -0.9266  0.7176
18146TIP3   OH275852   3.789   5.219   2.211 -0.0651  0.1782  0.2737
18146TIP3    H175853   3.879   5.249   2.200 -0.1139  0.7768  1.3476
18146TIP3    H275854   3.738   5.273   2.150  0.0564  1.2556  1.0891
18147TIP3   OH275855   6.565   0.769  12.098 -0.1074 -0.1204 -0.3445
18147TIP3    H175856   6.615   0.724  12.167  1.4030 -0.0682 -1.3649
18147TIP3    H275857   6.478   0.730  12.103  0.0658 -0.3738  1.3552
18148TIP3   OH275858   5.674   5.250   4.210  0.0449 -0.0037 -0.3094
18148TIP3    H175859   5.585   5.277   4.189 -0.7522 -1.3686  1.1696
18148TIP3    H275860   5.712   5.225   4.125 -0.7962  1.0212 -1.0193
18149TIP3   OH275861   2.711   6.351   1.306 -0.0172 -0.3657 -0.0723
18149TIP3    H175862   2.790   6.382   1.351 -0.3294 -0.8034  0.8191
18149TIP3    H275863   2.653   6.322   1.377 -0.9962 -0.0231 -0.7035
18150TIP3   OH275864   2.257   0.030  13.401 -0.0981  0.0205 -0.6839
18150TIP3    H175865   2.345   0.021  13.438 -0.7528 -2.6452  0.4775
18150TIP3    H275866   2.270   0.019  13.307  0.8004 -0.4736 -0.5147
18151TIP3   OH275867   0.350   1.042   1.941 -0.2839 -0.7569 -0.3438
18151TIP3    H175868   0.341   0.956   1.902 -1.0208 -1.7139  1.7640
18151TIP3    H275869   0.336   1.104   1.869  0.3655 -2.3734 -1.9158
18152TIP3   OH275870   4.328   0.633  12.559  0.6534 -0.1798 -0.6895
18152TIP3    H175871   4.390   0.698  12.525 -0.8200  1.7807  0.1397
18152TIP3    H275872   4.269   0.616  12.486  0.2420  0.4605 -0.5089
18153TIP3   OH275873   5.077   5.753  13.850 -0.3033  0.1540 -0.2934
18153TIP3    H175874   5.041   5.838  13.876  0.6364  0.7730 -0.9282
18153TIP3    H275875   5.151   5.775  13.793  1.8514 -0.9977  1.8536
18154TIP3   OH275876   4.425   6.238  14.096 -0.5532 -0.0380  0.0742
18154TIP3    H175877   4.352   6.295  14.073 -0.7453 -0.3045  0.0177
18154TIP3    H275878   4.445   6.259  14.187 -1.7027 -1.0519  0.5734
18155TIP3   OH275879   0.478   5.130   2.349  0.4837  0.4060 -0.5864
18155TIP3    H175880   0.443   5.168   2.430 -0.4021 -0.4603 -0.5430
18155TIP3    H275881   0.446   5.040   2.349  2.2985 -0.2909 -0.8187
18156TIP3   OH275882   3.093   4.964  15.495 -0.6618  0.2095 -0.3631
18156TIP3    H175883   3.110   5.058  15.501 -0.7751  0.1813  0.6597
18156TIP3    H275884   3.163   4.924  15.547  1.3224 -0.5393 -3.3351
18157TIP3   OH275885   2.393   3.911  16.708 -0.4918 -0.0056  0.2430
18157TIP3    H175886   2.398   3.971  16.783  1.1932 -1.1140  1.0799
18157TIP3    H275887   2.300   3.907  16.687 -1.0692  0.0218  2.5464
18158TIP3   OH275888   0.786   1.228  11.096  0.5541  0.1985  0.3439
18158TIP3    H175889   0.719   1.290  11.127  0.3976 -0.0636  0.5338
18158TIP3    H275890   0.863   1.250  11.148  0.9520  1.2294 -0.6369
18159TIP3   OH275891   5.951   3.040   6.259 -0.0536  0.7571 -0.2547
18159TIP3    H175892   5.918   2.954   6.235  1.2275  0.5533 -1.3822
18159TIP3    H275893   5.996   3.072   6.181 -0.8142  2.6309  0.0090
18160TIP3   OH275894   2.954   1.262  13.101 -0.0446 -0.2979  0.3684
18160TIP3    H175895   3.044   1.285  13.079 -0.5432  0.8708 -0.5891
18160TIP3    H275896   2.923   1.335  13.156 -0.8704  0.1287 -0.6213
18161TIP3   OH275897   1.676   6.191  16.061 -0.6490 -0.4184 -0.3093
18161TIP3    H175898   1.752   6.229  16.104 -0.3796  1.2005 -2.0609
18161TIP3    H275899   1.668   6.241  15.979 -2.6835 -1.5720 -0.8751
18162TIP3   OH275900   3.777   2.102   2.155  0.4859  0.2912 -0.2415
18162TIP3    H175901   3.787   2.036   2.224  0.3057  1.1891  0.6569
18162TIP3    H275902   3.866   2.133   2.139  0.4858  0.3217 -0.1816
18163TIP3   OH275903   1.798   2.108   6.016 -0.0929  0.0838  0.1717
18163TIP3    H175904   1.752   2.043   6.069 -0.9225  1.3025  1.0051
18163TIP3    H275905   1.729   2.160   5.975  0.5460  0.1912 -0.8141
18164TIP3   OH275906   4.823   3.650  13.377  0.3293  0.0833  0.2018
18164TIP3    H175907   4.833   3.666  13.471  0.2784  0.7205  0.0999
18164TIP3    H275908   4.784   3.730  13.342 -0.4703 -0.4731 -0.2270
18165TIP3   OH275909   4.644   0.387   0.580 -0.4383 -0.0633  0.1429
18165TIP3    H175910   4.581   0.454   0.552  1.5628  1.7416 -0.3089
18165TIP3    H275911   4.631   0.379   0.674 -3.6086 -2.3012 -0.3046
18166TIP3   OH275912   5.146   3.057   4.437  0.0994 -0.0101 -0.0933
18166TIP3    H175913   5.081   3.111   4.392  0.3561  0.0525 -0.3911
18166TIP3    H275914   5.220   3.115   4.453 -0.2301  0.1362  0.9805
18167TIP3   OH275915   6.226   2.005  16.740  0.3130 -0.4887 -0.0214
18167TIP3    H175916   6.320   1.989  16.747  0.1019 -2.1778 -0.6898
18167TIP3    H275917   6.214   2.033  16.649  0.2263  0.2419  0.2091
18168TIP3   OH275918   4.289   1.984   5.856  0.0040  0.0081 -0.1809
18168TIP3    H175919   4.385   1.988   5.852  0.0379 -1.0253 -2.7507
18168TIP3    H275920   4.268   1.999   5.948  2.7419 -1.7700  0.8845
18169TIP3   OH275921   3.181   5.525  16.464 -0.0630 -0.4703 -0.3389
18169TIP3    H175922   3.149   5.580  16.536  1.3712 -1.4462  1.1037
18169TIP3    H275923   3.238   5.583  16.414 -1.4359  0.3525 -1.0249
18170TIP3   OH275924   5.654   5.355  14.331 -0.3812 -0.0569 -0.1000
18170TIP3    H175925   5.582   5.419  14.332 -0.1204  0.2849  2.0248
18170TIP3    H275926   5.731   5.407  14.355  0.1804 -0.8303 -0.2238
18171TIP3   OH275927   4.943   2.682   3.882  0.5548  0.1846 -0.3211
18171TIP3    H175928   4.966   2.684   3.975  0.5991 -1.9856 -0.2322
18171TIP3    H275929   4.877   2.613   3.875  1.5222 -0.6468 -2.0732
18172TIP3   OH275930   6.066   2.160  15.013 -0.7576  0.2854  0.0190
18172TIP3    H175931   5.984   2.126  15.050 -1.0472 -0.6177 -1.3581
18172TIP3    H275932   6.111   2.082  14.980 -0.0476  0.9342 -0.5765
18173TIP3   OH275933   2.923   0.383   5.962  0.4037 -0.0415 -0.3260
18173TIP3    H175934   2.967   0.319   5.906  0.5215  0.2345 -0.5536
18173TIP3    H275935   2.862   0.331   6.014  0.0708 -0.2684 -0.9311
18174TIP3   OH275936   0.745   6.085  11.680  0.7035 -0.1793  0.2982
18174TIP3    H175937   0.687   6.051  11.612  1.1748 -0.0361 -0.1776
18174TIP3    H275938   0.717   6.040  11.760 -0.8903  0.8039  0.3284
18175TIP3   OH275939   5.784   6.046   1.447  0.3403 -0.0448  0.1314
18175TIP3    H175940   5.750   6.113   1.507  1.1894  1.0072 -0.5282
18175TIP3    H275941   5.864   6.084   1.412  0.0760 -0.8154 -1.3652
18176TIP3   OH275942   4.352   1.859   2.169  0.1818  0.3853 -0.0918
18176TIP3    H175943   4.298   1.917   2.222  0.3443 -0.7300  1.3586
18176TIP3    H275944   4.417   1.824   2.230 -1.2582 -3.0322 -0.2330
18177TIP3   OH275945   3.443   4.048   3.845  0.5778 -0.4648  0.2434
18177TIP3    H175946   3.494   4.116   3.889 -0.0366  1.0283 -1.2780
18177TIP3    H275947   3.352   4.067   3.867  0.4286 -1.0902  0.1969
18178TIP3   OH275948   4.703   5.446   4.677 -0.3665  0.1308 -0.1925
18178TIP3    H175949   4.743   5.524   4.640 -0.2110 -0.3068 -0.9730
18178TIP3    H275950   4.759   5.374   4.649 -1.7531 -0.5206 -1.4540
18179TIP3   OH275951   2.000   3.902  14.430 -0.5405 -0.8184 -0.4424
18179TIP3    H175952   1.970   3.954  14.355  0.0834 -0.1691 -0.2473
18179TIP3    H275953   1.983   3.811  14.404  1.4969 -0.7710 -2.2253
18180TIP3   OH275954   2.628   0.630   3.172  0.2351  0.0185  0.5579
18180TIP3    H175955   2.599   0.698   3.233 -1.3510 -1.3255  1.3849
18180TIP3    H275956   2.618   0.669   3.085  1.0736  1.4424  1.0821
18181TIP3   OH275957   3.350   5.720  15.824  0.2925 -0.1345 -0.0824
18181TIP3    H175958   3.284   5.724  15.893 -1.3590 -0.9858 -1.5224
18181TIP3    H275959   3.302   5.689  15.747  1.2869  3.6439 -2.4935
18182TIP3   OH275960   4.641   6.695  11.370 -0.3296 -0.1914 -0.2933
18182TIP3    H175961   4.549   6.667  11.375  0.3315 -2.6887 -0.8693
18182TIP3    H275962   4.650   6.734  11.284 -0.9966  0.6642  0.0177
18183TIP3   OH275963   2.226   0.293   6.131  0.2421  0.0145  0.2165
18183TIP3    H175964   2.175   0.349   6.190 -1.4791 -1.8125  0.5799
18183TIP3    H275965   2.313   0.288   6.171 -0.0059  1.2193  0.9491
18184TIP3   OH275966   0.125   4.385  12.245 -0.2790 -0.1466 -0.7696
18184TIP3    H175967   0.158   4.466  12.207 -2.5281  0.8044 -0.8298
18184TIP3    H275968   0.074   4.344  12.175  0.5284 -1.4668 -0.6272
18185TIP3   OH275969   6.242   1.094  16.110 -0.4342 -0.1919  0.5555
18185TIP3    H175970   6.165   1.091  16.055  0.5445  0.2722 -0.9054
18185TIP3    H275971   6.245   1.184  16.143 -0.5929 -0.2491  0.7262
18186TIP3   OH275972   2.116   1.732  13.791  0.7743  0.4896  0.3529
18186TIP3    H175973   2.077   1.740  13.703 -1.9888 -0.7584  1.3348
18186TIP3    H275974   2.077   1.652  13.826  2.0263  0.8189  2.6286
18187TIP3   OH275975   4.349   2.482  14.663  0.0069 -0.4425 -0.2127
18187TIP3    H175976   4.275   2.438  14.704 -0.1933  1.6742  1.9136
18187TIP3    H275977   4.419   2.479  14.729  0.4533  1.0652 -0.5685
18188TIP3   OH275978   4.626   1.195   3.863  0.1233 -0.0015  0.4542
18188TIP3    H175979   4.643   1.255   3.791  0.8272 -1.0407 -0.2637
18188TIP3    H275980   4.675   1.232   3.937  0.0778  0.6117  0.1825
18189TIP3   OH275981   1.485   1.951  15.355 -0.0652 -0.2131  0.2670
18189TIP3    H175982   1.414   1.891  15.332  1.5124 -1.9066 -0.5134
18189TIP3    H275983   1.508   1.994  15.272  0.7024 -0.7102  0.2124
18190TIP3   OH275984   0.776   6.478  13.018 -0.1179 -0.8424 -0.3972
18190TIP3    H175985   0.744   6.512  12.935  0.1110  0.7776  0.1435
18190TIP3    H275986   0.790   6.556  13.073  0.1213 -1.8322  1.0218
18191TIP3   OH275987   2.907   4.807   3.275  0.2114  1.4435 -0.3877
18191TIP3    H175988   2.988   4.813   3.326  1.6725 -2.2416 -1.9533
18191TIP3    H275989   2.841   4.782   3.340  1.9430 -2.7876  0.0747
18192TIP3   OH275990   3.180   4.251   5.039 -0.1762 -0.7562  0.7327
18192TIP3    H175991   3.133   4.302   5.105 -1.0057 -0.8616  0.2448
18192TIP3    H275992   3.270   4.248   5.070  0.4463  2.7773 -0.1948
18193TIP3   OH275993   2.460   4.399   1.638 -0.2425  0.0089 -0.4246
18193TIP3    H175994   2.446   4.390   1.544 -0.9609  0.8244 -0.4051
18193TIP3    H275995   2.378   4.437   1.671  0.0491 -0.1534  0.5093
18194TIP3   OH275996   4.600   1.136   3.262  0.7410 -0.4754  0.2668
18194TIP3    H175997   4.516   1.182   3.265  1.4507  0.8967  0.0225
18194TIP3    H275998   4.655   1.191   3.206  1.4626 -1.9516 -0.5031
18195TIP3   OH275999   1.728   2.706   1.254  0.1674  0.1647  0.0394
18195TIP3    H176000   1.677   2.629   1.279  1.7149 -1.5848 -1.8106
18195TIP3    H276001   1.697   2.727   1.166  0.8369  0.6506 -0.0879
18196TIP3   OH276002   0.394   6.814  14.217 -0.3915  0.0531  0.0294
18196TIP3    H176003   0.433   6.857  14.293  0.7908  0.5524 -0.8329
18196TIP3    H276004   0.301   6.807  14.239 -0.1385  0.5314  1.3563
18197TIP3   OH276005   1.966   4.360  13.314 -0.6600 -0.0372 -0.6828
18197TIP3    H176006   1.979   4.292  13.248  2.2023 -0.2676 -0.0074
18197TIP3    H276007   1.921   4.316  13.386 -1.6178 -0.3901 -1.4760
18198TIP3   OH276008   6.098   5.518  14.013 -0.0692  0.5039  0.1428
18198TIP3    H176009   6.149   5.562  14.082 -0.6411 -0.3071  1.1144
18198TIP3    H276010   6.116   5.425  14.026  0.2376  0.3613 -1.1665
18199TIP3   OH276011   2.536   1.921   0.868 -0.0275 -0.0588 -0.1668
18199TIP3    H176012   2.620   1.965   0.878 -0.6748  1.0893  0.3134
18199TIP3    H276013   2.528   1.865   0.945  0.3823 -0.3264 -0.3179
18200TIP3   OH276014   5.208   6.247  17.108  0.1830  0.2580 -0.0882
18200TIP3    H176015   5.117   6.279  17.109  0.6335  1.6025  0.7140
18200TIP3    H276016   5.261   6.326  17.122  1.3888 -0.7698  1.4715
18201TIP3   OH276017   0.626   1.410  10.804  0.8884 -0.0300 -0.2880
18201TIP3    H176018   0.605   1.316  10.810 -1.1626  0.1821 -2.4289
18201TIP3    H276019   0.601   1.446  10.888 -1.0039 -1.0116 -0.3677
18202TIP3   OH276020   5.451   2.454  13.066  0.9711 -0.1892  0.5273
18202TIP3    H176021   5.398   2.448  12.987  0.8865 -0.3789  0.5978
18202TIP3    H276022   5.394   2.421  13.136  1.0988 -0.1719  0.6413
18203TIP3   OH276023   3.482   4.191   2.175 -0.3721  0.3034 -0.0688
18203TIP3    H176024   3.537   4.269   2.166 -0.8544  0.5031 -1.7741
18203TIP3    H276025   3.511   4.134   2.104 -1.7171  0.0258 -0.4256
18204TIP3   OH276026   5.916   6.062  16.773 -0.1647 -0.4463  0.4313
18204TIP3    H176027   5.870   6.062  16.689 -0.9197  0.9851  0.8115
18204TIP3    H276028   5.847   6.076  16.838  0.6740  0.7992  1.0927
18205TIP3   OH276029   0.815   2.444  13.787  0.1353  0.4715  0.2321
18205TIP3    H176030   0.909   2.441  13.769  0.4272  2.0505  1.2709
18205TIP3    H276031   0.775   2.455  13.701  0.8002 -1.1339 -0.3294
18206TIP3   OH276032   1.086   3.435   3.092  0.3436 -0.4998 -0.0012
18206TIP3    H176033   1.001   3.391   3.095 -0.1450  0.4212  2.8500
18206TIP3    H276034   1.076   3.504   3.027 -0.4251 -1.5949 -1.0805
18207TIP3   OH276035   5.624   0.135   1.747 -0.2685  0.1956 -0.0928
18207TIP3    H176036   5.640   0.053   1.794 -2.7494  1.2132  2.8424
18207TIP3    H276037   5.538   0.164   1.777 -0.7209  2.5429 -3.1485
18208TIP3   OH276038   6.026   0.504  12.951 -0.1956  0.3348  0.2252
18208TIP3    H176039   6.101   0.536  12.901 -0.7370 -0.1052 -0.8808
18208TIP3    H276040   6.029   0.409  12.941 -0.2144  0.2228  1.1878
18209TIP3   OH276041   6.112   5.697   4.492  0.4408 -0.2112  0.8440
18209TIP3    H176042   6.141   5.689   4.583  2.1449 -3.4367  0.1802
18209TIP3    H276043   6.082   5.609   4.469 -1.5345  0.9047 -1.2754
18210TIP3   OH276044   6.217   4.339  12.746  0.4330 -0.4530 -0.2806
18210TIP3    H176045   6.124   4.316  12.749  0.1045  0.9093  1.3856
18210TIP3    H276046   6.234   4.354  12.653 -1.1639 -0.2185 -0.5700
18211TIP3   OH276047   3.776   0.232   4.772  0.2001  0.4652  0.4593
18211TIP3    H176048   3.722   0.158   4.743  1.2930 -0.4530  0.7035
18211TIP3    H276049   3.725   0.309   4.749  1.4702  0.0191 -5.2336
18212TIP3   OH276050   5.368   0.304   0.639  0.4078  0.1597 -0.0616
18212TIP3    H176051   5.419   0.385   0.645 -0.4821  0.6136  2.6949
18212TIP3    H276052   5.418   0.248   0.580  1.4677  2.4001 -1.4010
18213TIP3   OH276053   6.772   1.762  16.196 -1.3504 -0.2350 -0.5512
18213TIP3    H176054   6.679   1.744  16.183 -1.7670  0.6687  0.9545
18213TIP3    H276055   6.784   1.851  16.162 -1.4543  0.3573  0.9187
18214TIP3   OH276056   3.923   1.957  15.245 -0.2415 -0.4128  0.0211
18214TIP3    H176057   3.861   1.912  15.302 -0.0758 -1.0341 -0.2816
18214TIP3    H276058   3.920   1.908  15.163  1.2955 -0.9871  0.2824
18215TIP3   OH276059   6.340   2.986  12.773  0.1073  0.4233  0.2236
18215TIP3    H176060   6.427   3.020  12.794  0.1601  0.5748 -0.2380
18215TIP3    H276061   6.357   2.899  12.737 -0.0962 -0.6139  2.4712
18216TIP3   OH276062   1.144   0.410   1.689 -0.0508  0.1135  0.1429
18216TIP3    H176063   1.191   0.413   1.606 -0.8609 -1.1709 -0.3812
18216TIP3    H276064   1.135   0.317   1.709  0.9148  0.4075  2.1396
18217TIP3   OH276065   1.527   3.515  13.166 -0.3852  0.0265 -0.2741
18217TIP3    H176066   1.543   3.560  13.083  0.5020  1.2371  0.5210
18217TIP3    H276067   1.438   3.542  13.190 -1.1373 -1.3095 -1.3928
18218TIP3   OH276068   1.748   0.922  14.612 -0.2509 -0.2045  0.3253
18218TIP3    H176069   1.740   0.973  14.532 -1.4720  2.4940  2.0018
18218TIP3    H276070   1.674   0.861  14.609 -0.8535  0.5335 -0.1796
18219TIP3   OH276071   1.682   0.512  11.940  0.5560  0.2318  0.1616
18219TIP3    H176072   1.666   0.453  12.013 -0.9729 -0.9247 -1.0591
18219TIP3    H276073   1.695   0.455  11.864  1.8308  1.4018 -0.5568
18220TIP3   OH276074   0.011   2.544  14.841  0.7150  0.0694  0.1484
18220TIP3    H176075   0.030   2.460  14.881 -0.5599 -2.1981 -3.5397
18220TIP3    H276076  -0.081   2.562  14.862  0.5656 -0.2194 -0.2454
18221TIP3   OH276077   4.180   1.036   5.668  0.6943  0.6578  0.1370
18221TIP3    H176078   4.252   0.983   5.634 -0.2443  0.5618 -1.8296
18221TIP3    H276079   4.222   1.116   5.700  1.6863  0.8210 -1.4417
18222TIP3   OH276080   4.687   5.894  16.784 -0.0596 -0.1239  0.1531
18222TIP3    H176081   4.702   5.929  16.696  1.9567 -1.3244 -0.0366
18222TIP3    H276082   4.643   5.810  16.769 -0.6677  0.1505  0.3663
18223TIP3   OH276083   5.693   3.904  14.923 -0.4405 -0.3974  0.0559
18223TIP3    H176084   5.653   3.846  14.858 -1.7439  1.0467 -0.5010
18223TIP3    H276085   5.619   3.947  14.965  0.4279 -0.4961  1.7713
18224TIP3   OH276086   2.362   6.092  13.350  0.0389  0.2459 -0.0646
18224TIP3    H176087   2.311   6.080  13.430  1.1498 -4.1665  0.2272
18224TIP3    H276088   2.298   6.082  13.280 -0.4286  1.0696  0.2216
18225TIP3   OH276089   2.935   4.733   4.438  0.1965  0.4275 -0.0188
18225TIP3    H176090   3.004   4.766   4.495  0.6891  0.3582 -0.5670
18225TIP3    H276091   2.854   4.760   4.481  0.5720  1.7744 -0.1156
18226TIP3   OH276092   3.036   2.243   0.431  0.3524 -0.0782 -0.1868
18226TIP3    H176093   3.131   2.235   0.429  0.3463 -0.4912  0.6647
18226TIP3    H276094   3.012   2.269   0.342  1.5016  2.7572  0.2219
18227TIP3   OH276095   1.761   3.075  13.218 -0.2026 -0.0951 -0.2162
18227TIP3    H176096   1.792   3.069  13.309 -0.4696  0.8321 -0.0530
18227TIP3    H276097   1.779   2.989  13.181  0.5887 -0.2580  0.5034
18228TIP3   OH276098   4.530   5.196   3.612  0.1497  0.3863  0.3447
18228TIP3    H176099   4.591   5.239   3.672 -0.4074  1.1873  0.3490
18228TIP3    H276100   4.543   5.240   3.529 -1.0692  1.2184  0.5679
18229TIP3   OH276101   1.405   0.559   5.195  0.0438  0.1411 -0.1366
18229TIP3    H176102   1.315   0.527   5.201 -0.3482  1.1580 -0.4483
18229TIP3    H276103   1.429   0.581   5.285 -1.2837  3.1908 -0.4325
18230TIP3   OH276104   0.613   2.869   6.652 -0.2729 -0.7158 -0.5205
18230TIP3    H176105   0.683   2.833   6.707 -1.0188 -0.6342  0.5102
18230TIP3    H276106   0.631   2.963   6.648  0.2184 -0.8259 -1.0760
18231TIP3   OH276107   4.808   4.265  16.636 -0.2424  0.3880 -0.5470
18231TIP3    H176108   4.767   4.267  16.550  0.8312 -0.3521 -1.0893
18231TIP3    H276109   4.824   4.358  16.657 -3.0358  0.8166  0.1503
18232TIP3   OH276110   5.042   0.112   5.691  0.0936  0.5266 -0.4207
18232TIP3    H176111   5.071   0.202   5.706  0.3976  0.2556  0.7160
18232TIP3    H276112   5.062   0.067   5.773 -0.6203 -0.4318 -0.7608
18233TIP3   OH276113   1.271   6.702   2.931  0.2247  0.0275 -0.2360
18233TIP3    H176114   1.245   6.678   3.020  1.3664  0.4764  0.2333
18233TIP3    H276115   1.199   6.757   2.900  0.6664  1.4641  1.1341
18234TIP3   OH276116   3.997   5.420  14.806  0.1759 -0.3859 -0.3963
18234TIP3    H176117   4.078   5.369  14.799 -0.1568 -0.8253 -1.2374
18234TIP3    H276118   4.019   5.492  14.864  0.9636 -0.9110 -0.0190
18235TIP3   OH276119   6.350   5.166   0.420 -0.3629 -0.0947  0.0956
18235TIP3    H176120   6.399   5.086   0.436 -0.9585  0.0242  3.1985
18235TIP3    H276121   6.284   5.142   0.355  2.7095 -0.6230 -3.0800
18236TIP3   OH276122   0.747   5.851   4.936 -0.3399 -0.4876 -0.1600
18236TIP3    H176123   0.729   5.839   5.030  0.7400  0.4268  0.1894
18236TIP3    H276124   0.842   5.843   4.929 -0.4196 -0.6563 -1.2049
18237TIP3   OH276125   1.985   4.053  13.959 -0.1413  0.1130 -0.6058
18237TIP3    H176126   1.960   4.143  13.977  1.0424  0.7956 -2.1978
18237TIP3    H276127   1.997   4.048  13.864  0.3339 -1.5687 -0.5066
18238TIP3   OH276128   3.638   2.855  12.687 -0.3702  0.4360  0.7649
18238TIP3    H176129   3.622   2.768  12.724 -2.1084  1.2251  2.0461
18238TIP3    H276130   3.676   2.839  12.601  0.1046 -1.5604  1.3037
18239TIP3   OH276131   4.967   6.114  15.971  0.1489  0.2408  0.6405
18239TIP3    H176132   5.016   6.109  15.889 -0.1402  0.5683  0.4442
18239TIP3    H276133   4.967   6.024  16.005  0.6955  0.1954  0.5373
18240TIP3   OH276134   4.294   4.153   2.226 -0.0015  0.0077 -0.1495
18240TIP3    H176135   4.261   4.233   2.268 -0.0476  0.1820 -0.5111
18240TIP3    H276136   4.233   4.137   2.155  0.2384 -0.1251 -0.3259
18241TIP3   OH276137   0.123   0.096   2.565 -0.5737 -0.2570  0.1027
18241TIP3    H176138   0.082   0.158   2.505  1.1514  2.0697  1.1467
18241TIP3    H276139   0.210   0.081   2.528 -0.7980 -1.7613  0.1175
18242TIP3   OH276140   6.750   3.563  14.085 -0.0314  0.5292 -0.2597
18242TIP3    H176141   6.802   3.496  14.130 -2.0278 -1.2786 -0.4761
18242TIP3    H276142   6.664   3.522  14.071 -1.0402  2.7944 -1.3269
18243TIP3   OH276143   0.621   2.325   5.988 -0.2142 -0.3627 -0.0679
18243TIP3    H176144   0.577   2.350   5.907 -0.3072  0.7893  0.3243
18243TIP3    H276145   0.552   2.329   6.055  0.6108  2.3828  0.7275
18244TIP3   OH276146   3.426   2.649   3.172  0.1290  0.8530 -0.0785
18244TIP3    H176147   3.500   2.706   3.192 -1.3097  2.3737  1.2822
18244TIP3    H276148   3.384   2.634   3.256 -1.1229  0.0376 -0.8116
18245TIP3   OH276149   0.663   4.217  13.116 -0.2982  0.2195 -0.2132
18245TIP3    H176150   0.740   4.170  13.147 -0.8648 -0.6081 -0.0386
18245TIP3    H276151   0.639   4.275  13.189 -0.4830 -0.3137  0.1510
18246TIP3   OH276152   3.349   1.911  13.848 -0.0342 -0.4015  0.3030
18246TIP3    H176153   3.305   1.841  13.897 -0.2219 -0.2676  0.3261
18246TIP3    H276154   3.338   1.887  13.756 -0.8193  0.0277  0.2813
18247TIP3   OH276155   2.416   1.063  10.833  0.0958 -0.2954  0.1223
18247TIP3    H176156   2.357   1.135  10.809 -0.4321 -0.1282  1.7732
18247TIP3    H276157   2.447   1.029  10.749 -1.3516  0.4383 -0.7639
18248TIP3   OH276158   4.806   1.244   2.806 -0.3554  0.6287  0.1112
18248TIP3    H176159   4.780   1.296   2.730 -0.5463  0.4913  0.0819
18248TIP3    H276160   4.768   1.290   2.881 -0.5831  0.4965  0.0793
18249TIP3   OH276161   5.035   1.852   1.473 -0.2080 -0.0767  0.2442
18249TIP3    H176162   5.013   1.846   1.380 -0.2818  1.1294  0.1732
18249TIP3    H276163   5.121   1.894   1.475 -0.0538 -0.4047  0.7073
18250TIP3   OH276164   1.040   0.498   0.805 -0.5771  0.4949 -0.9029
18250TIP3    H176165   1.049   0.490   0.709  1.5047  0.6125 -0.7771
18250TIP3    H276166   0.956   0.541   0.818 -0.2279  1.8557 -2.7634
18251TIP3   OH276167   6.083   4.217  10.688  0.5883  0.2281  0.4097
18251TIP3    H176168   6.153   4.277  10.663  0.4934  0.1053 -0.1492
18251TIP3    H276169   6.049   4.183  10.606  0.8273 -0.8088  0.7257
18252TIP3   OH276170   6.029   4.542  14.108 -0.2654  0.3689  0.2071
18252TIP3    H176171   6.035   4.578  14.019  0.3949 -1.9319 -0.7738
18252TIP3    H276172   5.935   4.527  14.121 -0.4713  1.6698  0.3410
18253TIP3   OH276173   0.372   6.173  13.322  0.0017  0.0738  0.0325
18253TIP3    H176174   0.295   6.231  13.318 -0.4863 -0.5711 -3.8596
18253TIP3    H276175   0.430   6.216  13.385 -3.4093  0.6046  3.2339
18254TIP3   OH276176   6.301   4.024   1.976 -0.0048 -0.0162  0.2428
18254TIP3    H176177   6.223   3.972   1.954  1.0391 -1.3871 -0.4088
18254TIP3    H276178   6.271   4.115   1.974 -2.1053 -0.5648  2.1670
18255TIP3   OH276179   4.357   3.565  14.201 -0.3887 -0.3306 -0.5702
18255TIP3    H176180   4.372   3.579  14.108 -0.5076 -0.2836 -0.5821
18255TIP3    H276181   4.294   3.633  14.226  1.8473  1.6107  0.1748
18256TIP3   OH276182   1.648   0.478   1.151 -0.2224  0.0415  0.2649
18256TIP3    H176183   1.592   0.552   1.124 -0.4609 -0.3445 -0.3414
18256TIP3    H276184   1.601   0.401   1.119  0.5658 -0.3045 -0.0806
18257TIP3   OH276185   3.750   5.894  12.831  0.9895  0.3245  0.1830
18257TIP3    H176186   3.823   5.904  12.893  1.5626  1.9836 -0.6874
18257TIP3    H276187   3.677   5.863  12.885  2.2704 -1.2695  1.1073
18258TIP3   OH276188   2.093   3.840  11.176 -0.0634 -0.0700 -0.4453
18258TIP3    H176189   2.170   3.844  11.233 -0.0462 -3.6115 -0.0305
18258TIP3    H276190   2.025   3.801  11.230 -1.3983  0.5592 -1.6069
18259TIP3   OH276191   4.480   0.138   1.918  0.0483  0.1590 -0.7629
18259TIP3    H176192   4.440   0.063   1.873  3.1124 -3.6874  2.1254
18259TIP3    H276193   4.415   0.163   1.984  0.6166 -3.4366  1.4193
18260TIP3   OH276194   3.943   4.033  11.613  0.0553 -0.0589 -0.0836
18260TIP3    H176195   3.987   4.028  11.698  3.0962 -0.5776 -1.5456
18260TIP3    H276196   3.928   3.942  11.588  1.6171 -0.0653 -1.1754
18261TIP3   OH276197   5.491   4.965  16.355 -0.3564  0.3617 -0.2411
18261TIP3    H176198   5.570   5.014  16.380  0.1502  0.5188 -1.9809
18261TIP3    H276199   5.443   5.025  16.297 -1.0681 -0.2389 -0.2879
18262TIP3   OH276200   1.417   1.073  11.196  0.2752  0.1954 -0.2933
18262TIP3    H176201   1.395   1.113  11.112  0.6901 -0.2049 -0.5995
18262TIP3    H276202   1.508   1.097  11.212  0.5092 -0.5477 -0.4479
18263TIP3   OH276203   4.113   5.124   1.008 -0.4416 -0.0368  0.0359
18263TIP3    H176204   4.098   5.216   1.029  0.1600  0.4628 -1.5822
18263TIP3    H276205   4.025   5.088   0.995 -0.6197  0.8137 -1.2696
18264TIP3   OH276206   1.780   2.085   4.537  0.6452  0.2819  0.3513
18264TIP3    H176207   1.870   2.056   4.547  0.7099  0.2080 -0.4232
18264TIP3    H276208   1.763   2.081   4.443 -1.5581 -4.0385  0.6520
18265TIP3   OH276209   2.183   6.085  16.749 -0.4755 -0.1283 -0.6146
18265TIP3    H176210   2.277   6.084  16.765 -0.4265  0.8135 -0.8152
18265TIP3    H276211   2.172   6.143  16.674 -1.3613  1.0827  0.4164
18266TIP3   OH276212   2.887   2.672   1.449 -0.0838 -0.0101 -0.0323
18266TIP3    H176213   2.943   2.648   1.523  0.4598 -0.4809 -0.5807
18266TIP3    H276214   2.917   2.758   1.423 -0.0895  0.0371  0.1150
18267TIP3   OH276215   1.547   0.838   0.557 -0.5863 -0.3008 -0.0951
18267TIP3    H176216   1.476   0.896   0.529  0.6046  0.0230 -2.7771
18267TIP3    H276217   1.611   0.897   0.598 -0.4892 -0.1089 -0.5220
18268TIP3   OH276218   5.001   1.052   5.181 -0.3152 -0.0905 -0.4492
18268TIP3    H176219   5.039   1.130   5.141  2.5884  0.8734  3.5882
18268TIP3    H276220   5.044   0.979   5.136 -0.2737  0.7194 -1.7836
18269TIP3   OH276221   4.312   2.539  15.380  0.9116  0.4305  0.4446
18269TIP3    H176222   4.289   2.579  15.296 -0.0740  0.3568  0.6649
18269TIP3    H276223   4.408   2.546  15.385  1.3252 -2.0640 -1.9237
18270TIP3   OH276224   5.623   0.179  13.032 -0.5502 -0.0439  0.7267
18270TIP3    H176225   5.628   0.093  13.073 -0.2042 -2.3233 -3.5727
18270TIP3    H276226   5.674   0.236  13.089 -0.0779 -2.8072  3.3161
18271TIP3   OH276227   1.908   5.965  11.723  0.6911  0.0123 -0.2443
18271TIP3    H176228   1.969   5.938  11.654  1.7064  1.4055  0.0660
18271TIP3    H276229   1.962   6.010  11.787 -0.4615 -0.0008  0.7852
18272TIP3   OH276230   2.645   6.072  12.891 -0.0966  0.3150  0.2525
18272TIP3    H176231   2.625   6.163  12.915 -1.3943 -0.2070  1.2825
18272TIP3    H276232   2.587   6.054  12.817  0.7784  0.5684 -0.5137
18273TIP3   OH276233   2.393   5.385   3.083  0.1096  0.4204  0.4935
18273TIP3    H176234   2.307   5.375   3.040  0.6811  0.4047 -0.6804
18273TIP3    H276235   2.401   5.479   3.097  0.2475  0.5061 -0.1409
18274TIP3   OH276236   5.487   3.657   5.889  0.5639  0.3365 -0.4454
18274TIP3    H176237   5.527   3.662   5.976  1.4551 -0.1293 -0.8119
18274TIP3    H276238   5.534   3.722   5.837  0.2829  0.3629 -0.6660
18275TIP3   OH276239   4.026   4.499  16.051  0.1694  0.2179  0.0925
18275TIP3    H176240   3.947   4.517  15.999 -0.4260 -0.3340  0.7844
18275TIP3    H276241   4.045   4.407  16.034 -0.7272 -0.3037  1.7400
18276TIP3   OH276242   3.414   1.149   2.081  0.4741 -0.1287 -0.2876
18276TIP3    H176243   3.373   1.081   2.134  3.1971 -0.7477  1.2195
18276TIP3    H276244   3.453   1.102   2.008 -0.1662  0.2528 -0.8887
18277TIP3   OH276245   4.479   1.615   2.964  0.5953 -0.4089 -0.6375
18277TIP3    H176246   4.519   1.591   3.048 -0.4262  1.2739  0.3787
18277TIP3    H276247   4.540   1.677   2.925 -0.0239  0.6275 -0.0078
18278TIP3   OH276248   3.635   1.141   5.595  0.2515 -0.5740 -0.1222
18278TIP3    H176249   3.621   1.234   5.579 -1.4077 -0.3243  2.3002
18278TIP3    H276250   3.638   1.133   5.690  2.2260 -2.7861 -0.2889
18279TIP3   OH276251   3.782   2.449  11.318 -1.4055 -0.2096 -0.0902
18279TIP3    H176252   3.726   2.512  11.365 -2.5589 -0.5016 -1.0355
18279TIP3    H276253   3.734   2.429  11.238  0.3976  0.0814 -1.3099
18280TIP3   OH276254   0.969   1.779  11.843 -0.6103 -0.3101  0.6271
18280TIP3    H176255   0.945   1.869  11.821 -1.1223 -0.3745  0.9195
18280TIP3    H276256   1.046   1.761  11.788  0.2834  0.7351  1.4808
18281TIP3   OH276257   2.883   6.011  16.922  0.0182  0.3416 -0.2925
18281TIP3    H176258   2.901   6.056  17.005 -0.6005 -0.3932  0.2642
18281TIP3    H276259   2.900   6.076  16.855 -1.9225  1.7718  0.5198
18282TIP3   OH276260   6.311   2.747  12.669  0.4931  0.6985  0.8539
18282TIP3    H176261   6.222   2.729  12.699  1.0803 -0.1278  2.2158
18282TIP3    H276262   6.318   2.700  12.586 -0.0123 -0.1448  1.2737
18283TIP3   OH276263   1.546   4.744   1.013 -0.4655  0.2604 -0.3877
18283TIP3    H176264   1.477   4.677   1.015  0.3358 -0.5694  0.0619
18283TIP3    H276265   1.499   4.826   0.996 -1.6350 -0.1972  0.5027
18284TIP3   OH276266   1.607   4.915   0.570 -0.0733  0.5536  0.1884
18284TIP3    H176267   1.551   4.987   0.601 -0.9000  0.7622 -1.6979
18284TIP3    H276268   1.619   4.932   0.477  1.3106 -0.7367  0.0938
18285TIP3   OH276269   3.166   1.148   5.937 -0.2076  0.3660  0.0058
18285TIP3    H176270   3.137   1.057   5.947 -0.3621  0.3890 -0.2134
18285TIP3    H276271   3.181   1.158   5.844  2.3370 -0.1797  0.2947
18286TIP3   OH276272   3.457   6.753  14.503 -0.2509 -0.4587 -0.1923
18286TIP3    H176273   3.492   6.742  14.591  1.4815 -0.2672 -0.8352
18286TIP3    H276274   3.433   6.846  14.498 -0.6408 -0.5373  0.1633
18287TIP3   OH276275   4.257   3.842   0.170 -0.6472 -0.2404 -0.1560
18287TIP3    H176276   4.299   3.865   0.253 -0.9119 -0.5655  0.0720
18287TIP3    H276277   4.163   3.845   0.190 -0.7126 -0.3119 -0.4472
18288TIP3   OH276278   4.451   5.795  16.563 -0.1429  0.0926  0.7198
18288TIP3    H176279   4.387   5.773  16.631  0.4106  0.8343  1.5007
18288TIP3    H276280   4.511   5.721  16.561 -2.1432 -1.6197 -1.4860
18289TIP3   OH276281   0.830   0.110  12.438  0.6394 -0.0268 -0.1431
18289TIP3    H176282   0.795   0.071  12.357  1.6958  1.8441 -1.5869
18289TIP3    H276283   0.925   0.105  12.427  0.7958  1.4574  0.3480
18290TIP3   OH276284   1.584   2.782  12.578 -0.2845 -0.0122  0.0856
18290TIP3    H176285   1.572   2.800  12.672 -0.0426  0.4030  0.0435
18290TIP3    H276286   1.674   2.810  12.561 -0.1072 -0.7186 -0.1271
18291TIP3   OH276287   5.730   4.135   1.559 -0.1250 -0.1351 -0.0415
18291TIP3    H176288   5.653   4.191   1.563  1.2221  1.8692 -1.0129
18291TIP3    H276289   5.702   4.053   1.601 -2.3984  0.9368  0.6729
18292TIP3   OH276290   3.836   5.758   0.474  0.4092  0.3605  0.0948
18292TIP3    H176291   3.783   5.691   0.517 -1.6731  1.9228  0.0805
18292TIP3    H276292   3.818   5.748   0.381  0.3862  0.7050  0.0609
18293TIP3   OH276293   5.043   6.402   5.674  0.3331  0.4294  0.4613
18293TIP3    H176294   5.091   6.470   5.721 -1.5615  1.0899  1.5372
18293TIP3    H276295   4.951   6.427   5.682 -0.7238 -3.4598  3.0130
18294TIP3   OH276296   2.358   0.252  15.246  0.5696 -0.0565  0.0525
18294TIP3    H176297   2.262   0.251  15.247  0.5759 -1.3140  0.7339
18294TIP3    H276298   2.382   0.278  15.335  0.8823  0.9576 -0.3093
18295TIP3   OH276299   6.048   4.063   0.977 -0.5786  0.5315 -0.7489
18295TIP3    H176300   6.127   4.036   1.024 -0.6408  1.9030  0.1895
18295TIP3    H276301   6.081   4.104   0.897 -0.2807  1.7389 -0.0293
18296TIP3   OH276302   5.302   0.703   2.984 -0.1172 -0.5522  0.0189
18296TIP3    H176303   5.297   0.797   2.968 -0.4062 -0.7665 -1.2656
18296TIP3    H276304   5.395   0.682   2.981 -0.0051 -0.2174  0.9346
18297TIP3   OH276305   0.128   2.453   2.255 -0.1224  0.4353  0.2256
18297TIP3    H176306   0.194   2.470   2.322 -1.0556  0.7363  1.0868
18297TIP3    H276307   0.172   2.397   2.191  0.1741 -1.7055  2.1698
18298TIP3   OH276308   5.085   0.538   6.474 -0.1742  0.0799  0.6160
18298TIP3    H176309   5.023   0.515   6.543 -0.2727  0.0669  0.5228
18298TIP3    H276310   5.153   0.588   6.519 -0.1203 -0.1257  0.7633
18299TIP3   OH276311   5.744   5.825  11.483 -0.1416  0.1044 -0.5504
18299TIP3    H176312   5.820   5.767  11.482 -0.9808 -1.1850 -3.5001
18299TIP3    H276313   5.779   5.912  11.501  1.4706 -0.9210  1.7557
18300TIP3   OH276314   2.311   1.042  15.405  0.6160  0.0134 -0.1636
18300TIP3    H176315   2.267   0.973  15.355  1.1076 -0.4356  0.0157
18300TIP3    H276316   2.327   1.004  15.491  0.1368  0.6499  0.2162
18301TIP3   OH276317   0.031   5.465   1.450  0.2454 -0.4019 -0.0657
18301TIP3    H176318  -0.042   5.414   1.484 -0.1982 -1.3466 -2.2416
18301TIP3    H276319   0.024   5.550   1.494 -1.5635 -0.8052  0.5087
18302TIP3   OH276320   1.165   4.845  13.444 -0.2237  0.2757 -0.0515
18302TIP3    H176321   1.229   4.901  13.401 -0.4150  0.1952 -0.4437
18302TIP3    H276322   1.154   4.770  13.385 -1.5066  0.8151 -0.5463
18303TIP3   OH276323   0.461   2.264   4.505 -0.3703 -0.4347  0.5543
18303TIP3    H176324   0.471   2.226   4.418 -0.4113  1.3111 -0.2453
18303TIP3    H276325   0.367   2.282   4.513 -0.2744  0.0000  0.7113
18304TIP3   OH276326   5.267   6.168  12.718 -0.3881 -0.3200 -0.2191
18304TIP3    H176327   5.362   6.167  12.712 -0.1485  1.5252  1.9918
18304TIP3    H276328   5.249   6.184  12.811 -2.9206 -3.3827 -0.0111
18305TIP3   OH276329   4.360   2.065  11.989  0.4502 -0.0583 -0.2900
18305TIP3    H176330   4.281   2.095  11.945  0.3455 -0.7506 -0.5813
18305TIP3    H276331   4.388   1.988  11.940 -0.3682 -1.5997  1.5674
18306TIP3   OH276332   3.440   4.060  16.416 -0.4755  0.5161 -0.2660
18306TIP3    H176333   3.390   4.125  16.367  0.8021  0.4373 -1.7583
18306TIP3    H276334   3.392   3.978  16.405  0.1474  0.3459 -2.0518
18307TIP3   OH276335   0.495   5.698  15.148  0.6622  0.6821 -0.2464
18307TIP3    H176336   0.572   5.719  15.200  0.0084 -0.4189  1.2396
18307TIP3    H276337   0.530   5.668  15.064  1.8213  0.6190  0.2447
18308TIP3   OH276338   5.144   1.200   6.200 -0.0560 -0.0687 -0.0968
18308TIP3    H176339   5.141   1.293   6.175  0.4903  0.1937  0.7817
18308TIP3    H276340   5.058   1.166   6.175 -0.7454  0.9841  0.7732
18309TIP3   OH276341   1.765   3.270   4.601 -0.1507  0.4201 -0.1820
18309TIP3    H176342   1.855   3.299   4.611 -0.0040  0.2816 -1.0228
18309TIP3    H276343   1.770   3.174   4.605 -0.4783  0.4321  1.3507
18310TIP3   OH276344   2.122   4.144  14.979 -0.6711 -0.1644 -0.2757
18310TIP3    H176345   2.084   4.229  15.001  0.9023  0.6638 -0.6114
18310TIP3    H276346   2.136   4.101  15.064  1.5185  1.2924  0.1737
18311TIP3   OH276347   5.461   2.075  11.911 -0.4174 -0.0004  0.1124
18311TIP3    H176348   5.437   2.109  11.825 -0.1696  0.8034  0.3439
18311TIP3    H276349   5.414   1.992  11.919 -2.0761  0.8733  0.0126
18312TIP3   OH276350   3.372   2.012   1.594  0.0997  0.3488 -0.1655
18312TIP3    H176351   3.449   1.956   1.592 -0.8120 -0.9326 -1.8838
18312TIP3    H276352   3.330   1.993   1.677  0.0582 -1.2068 -0.5139
18313TIP3   OH276353   3.496   4.769   1.490  0.5212  0.1908 -0.0319
18313TIP3    H176354   3.434   4.841   1.504 -0.6075 -1.0844  1.8202
18313TIP3    H276355   3.556   4.803   1.423 -0.7051  2.3772 -0.1238
18314TIP3   OH276356   4.524   1.411  11.173 -0.1688 -0.0246 -0.4364
18314TIP3    H176357   4.570   1.343  11.125  0.7460  0.3820 -0.1621
18314TIP3    H276358   4.583   1.487  11.169 -0.8608  0.5374 -0.1555
18315TIP3   OH276359   4.368   5.762  16.037  0.4182 -0.7738 -0.4389
18315TIP3    H176360   4.408   5.676  16.022 -0.6949 -1.3261 -0.3329
18315TIP3    H276361   4.432   5.809  16.092  0.1271 -2.3086  1.3240
18316TIP3   OH276362   2.738   0.929  14.410 -0.2154 -0.2536  0.9952
18316TIP3    H176363   2.722   0.966  14.323  0.5933 -0.1041  0.8987
18316TIP3    H276364   2.658   0.881  14.431 -0.7495  0.4146  0.5326
18317TIP3   OH276365   6.207   1.089   5.254 -0.4554 -0.0202 -0.1608
18317TIP3    H176366   6.237   1.168   5.299  0.7309  0.0241 -0.9788
18317TIP3    H276367   6.204   1.114   5.161 -1.1318 -0.6152 -0.3042
18318TIP3   OH276368   4.434   5.319   4.533 -0.0856  0.0922 -0.0606
18318TIP3    H176369   4.496   5.266   4.482 -0.8791 -0.8122 -0.1145
18318TIP3    H276370   4.416   5.395   4.477  0.9077  0.3330 -0.0725
18319TIP3   OH276371   3.424   6.055   4.258  0.0265  0.2307  0.0970
18319TIP3    H176372   3.496   6.090   4.310  1.1513 -2.4929  0.5446
18319TIP3    H276373   3.425   5.961   4.275 -1.2801 -0.4309 -2.7718
18320TIP3   OH276374   0.232   1.876   3.577  0.8444  0.4791 -0.2673
18320TIP3    H176375   0.259   1.793   3.538  0.5880  0.0311  0.4823
18320TIP3    H276376   0.205   1.853   3.666 -1.5933  0.9161 -0.7990
18321TIP3   OH276377   3.415   5.505  12.538 -0.1984  0.4382 -0.2438
18321TIP3    H176378   3.455   5.526  12.454  0.9776  2.6297  0.7403
18321TIP3    H276379   3.476   5.443  12.579  0.1487  0.7059 -0.3456
18322TIP3   OH276380   6.541   2.586  10.784 -0.2055 -0.4309  0.2775
18322TIP3    H176381   6.518   2.669  10.826 -0.7380 -0.3759 -0.1196
18322TIP3    H276382   6.596   2.611  10.710 -1.9262 -0.2626 -0.9968
18323TIP3   OH276383   0.597   3.285  14.334  0.3556 -0.1536 -0.2186
18323TIP3    H176384   0.605   3.205  14.385  2.3968  1.4672  2.2304
18323TIP3    H276385   0.552   3.346  14.392 -6.4799 -0.7303 -3.8376
18324TIP3   OH276386   1.376   2.539  12.744 -0.3873 -0.7065 -0.3615
18324TIP3    H176387   1.356   2.596  12.669  0.8233  0.8358  0.4299
18324TIP3    H276388   1.461   2.570  12.776 -0.0345 -2.5142  0.5597
18325TIP3   OH276389   2.013   2.778  15.317 -0.6427 -0.5488  0.0244
18325TIP3    H176390   1.954   2.751  15.387  0.0994 -0.0166  0.8767
18325TIP3    H276391   2.091   2.724  15.330 -0.7413 -0.8931 -0.7841
18326TIP3   OH276392   6.415   2.704  11.779  0.4875  0.3820 -0.0279
18326TIP3    H176393   6.459   2.789  11.777  0.1377  0.5907  0.6419
18326TIP3    H276394   6.400   2.687  11.872 -0.0319 -0.1095 -0.1918
18327TIP3   OH276395   5.463   0.453   2.721  0.1682  0.0716 -0.2230
18327TIP3    H176396   5.412   0.372   2.715  0.8243 -0.4019  0.3395
18327TIP3    H276397   5.399   0.521   2.740 -0.2408 -0.5264  0.5971
18328TIP3   OH276398   2.907   3.535  11.528 -0.4405 -0.1554 -0.2008
18328TIP3    H176399   2.952   3.458  11.563 -1.2780  0.3031  2.0491
18328TIP3    H276400   2.966   3.608  11.547 -0.2453 -0.0536 -1.1341
18329TIP3   OH276401   3.169   3.017   0.730  0.2621  0.3959 -0.2566
18329TIP3    H176402   3.119   2.971   0.798  0.2252 -0.3701 -0.7969
18329TIP3    H276403   3.255   3.031   0.770  0.6022 -1.0336 -0.4291
18330TIP3   OH276404   4.066   3.752   6.097  0.0761 -0.0007  0.2521
18330TIP3    H176405   3.993   3.704   6.137  1.6078 -0.8423  2.2142
18330TIP3    H276406   4.125   3.770   6.170  1.2681  1.7329 -1.0724
18331TIP3   OH276407   4.048   6.061   3.219 -0.0491 -0.0081  0.2130
18331TIP3    H176408   3.967   6.112   3.215 -0.2206 -0.2859  0.1022
18331TIP3    H276409   4.038   5.994   3.151  0.5113  0.2977 -0.1771
18332TIP3   OH276410   1.970   2.801   1.361  0.4746  0.0736 -0.1259
18332TIP3    H176411   1.916   2.739   1.313 -1.1897  0.3417  1.3342
18332TIP3    H276412   2.058   2.762   1.360  0.0354 -0.9498 -1.5101
18333TIP3   OH276413   4.936   1.265  14.708  0.3586  0.1530 -0.3530
18333TIP3    H176414   4.974   1.191  14.756 -1.6989 -0.5438  0.3133
18333TIP3    H276415   5.012   1.314  14.677  1.7882 -0.6628  1.5928
18334TIP3   OH276416   5.506   2.425  16.021  0.1487  0.1345 -0.2646
18334TIP3    H176417   5.429   2.458  15.974  0.3360  1.2968  0.2139
18334TIP3    H276418   5.488   2.443  16.113 -0.0363 -1.7639  0.0910
18335TIP3   OH276419   3.435   0.169  13.084  0.2728  0.1615 -0.2554
18335TIP3    H176420   3.353   0.122  13.099  1.7184 -2.1852  0.8429
18335TIP3    H276421   3.410   0.261  13.090 -1.9832 -0.4649  2.0469
18336TIP3   OH276422   5.262   0.110  16.403  0.2564  0.2787 -0.4231
18336TIP3    H176423   5.320   0.036  16.388  0.3053  0.2894 -0.2836
18336TIP3    H276424   5.315   0.187  16.380  0.6679  0.3677  0.7710
18337TIP3   OH276425   0.387   0.202  14.422 -0.1025 -0.4480  0.2745
18337TIP3    H176426   0.411   0.264  14.353 -3.0787 -0.2063 -0.7088
18337TIP3    H276427   0.335   0.254  14.483  0.5289 -1.1823  1.4645
18338TIP3   OH276428   0.350   2.463   1.742 -0.0067  0.2804  0.3140
18338TIP3    H176429   0.412   2.398   1.708 -1.9539 -1.0398 -0.8818
18338TIP3    H276430   0.379   2.478   1.832  2.0009 -0.3071 -0.1749
18339TIP3   OH276431   5.318   0.126  14.684  0.5521  0.0730  0.0251
18339TIP3    H176432   5.371   0.046  14.680  1.4080  0.6708 -1.0441
18339TIP3    H276433   5.341   0.174  14.605 -0.8955  0.8055  0.0225
18340TIP3   OH276434   3.402   0.104  11.354  0.1393  0.4993  0.0740
18340TIP3    H176435   3.464   0.087  11.425 -1.0543 -1.6190  0.7101
18340TIP3    H276436   3.455   0.141  11.283  1.8599  0.0956  1.1030
18341TIP3   OH276437   0.377   1.218  11.077 -0.0844 -0.3216  0.5558
18341TIP3    H176438   0.433   1.234  11.153 -0.9195  1.3342  0.8712
18341TIP3    H276439   0.326   1.140  11.102  1.5513 -1.4508  0.5220
18342TIP3   OH276440   2.899   1.274   0.366 -0.2006 -0.4101 -0.0438
18342TIP3    H176441   2.836   1.245   0.432  1.8164  1.3457  2.8772
18342TIP3    H276442   2.984   1.254   0.404  1.1021  0.0601 -2.4987
18343TIP3   OH276443   4.139   4.605  16.553 -0.1073 -0.0911  0.5898
18343TIP3    H176444   4.070   4.663  16.585  0.8628  0.5658  1.5610
18343TIP3    H276445   4.104   4.569  16.472 -1.6344  0.1380  1.1052
18344TIP3   OH276446   0.562   5.882   0.438 -0.0059 -0.2562  0.0262
18344TIP3    H176447   0.596   5.971   0.446 -1.1960  0.4168 -1.6542
18344TIP3    H276448   0.535   5.858   0.526  1.1578  0.6891  0.6640
18345TIP3   OH276449   2.365   2.085   5.110  0.3375  0.0151 -0.0507
18345TIP3    H176450   2.376   2.066   5.017  1.6866 -1.0906  0.2944
18345TIP3    H276451   2.454   2.089   5.144 -0.1198 -2.4029  1.6967
18346TIP3   OH276452   4.856   1.871   2.792  0.0463 -0.0824 -0.5006
18346TIP3    H176453   4.934   1.829   2.756 -0.1111 -1.1555  0.3742
18346TIP3    H276454   4.888   1.955   2.826  0.9203 -0.7207  0.2836
18347TIP3   OH276455   6.057   3.620   3.347  0.1083 -0.2264 -0.0451
18347TIP3    H176456   6.079   3.603   3.255  2.2447  0.1333  0.3252
18347TIP3    H276457   6.140   3.605   3.394 -0.5406  1.0652  1.6076
18348TIP3   OH276458   4.547   2.825  12.958 -0.2032 -0.3207  0.0896
18348TIP3    H176459   4.576   2.857  12.872 -0.5557  0.1465  0.1380
18348TIP3    H276460   4.615   2.856  13.018 -1.2662  1.7046  0.3589
18349TIP3   OH276461   4.525   6.084  12.851 -0.1085  0.3230  0.2375
18349TIP3    H176462   4.473   6.090  12.771 -0.7084  1.5057  0.6798
18349TIP3    H276463   4.476   6.136  12.915  1.2727  0.9323  0.8599
18350TIP3   OH276464   1.475   6.405  16.885 -0.2792  0.0928 -0.0653
18350TIP3    H176465   1.494   6.348  16.960  1.0863  0.1442 -0.3471
18350TIP3    H276466   1.557   6.452  16.869 -0.8356  0.7830 -1.0038
18351TIP3   OH276467   2.279   3.632  11.321  0.1236 -0.1611 -0.0370
18351TIP3    H176468   2.338   3.661  11.250  0.9920 -1.3718  0.1687
18351TIP3    H276469   2.276   3.707  11.381  0.0344  0.5747 -0.9356
18352TIP3   OH276470   3.575   1.503   3.015  0.2004  0.3795  0.5232
18352TIP3    H176471   3.482   1.482   3.016  0.1433  0.6325  0.6939
18352TIP3    H276472   3.594   1.521   2.923  0.2117 -0.2355  0.4058
18353TIP3   OH276473   1.281   5.028  13.263  0.2565 -0.2707 -0.2871
18353TIP3    H176474   1.253   5.103  13.210  0.6827 -0.8612 -1.4038
18353TIP3    H276475   1.336   5.066  13.332 -1.5224  0.6816  0.6783
18354TIP3   OH276476   3.369   5.430   1.259  0.2397 -0.1580 -0.2564
18354TIP3    H176477   3.433   5.449   1.328 -1.9773 -1.4575  2.3825
18354TIP3    H276478   3.393   5.342   1.228  0.6900  0.0478 -0.5081
18355TIP3   OH276479   1.103   3.892  15.347 -0.4089 -0.4050  0.1451
18355TIP3    H176480   1.182   3.939  15.322 -1.7572  1.2193 -1.2501
18355TIP3    H276481   1.085   3.834  15.273 -1.5927  0.6738 -0.4296
18356TIP3   OH276482   5.001   0.733  12.652 -0.0686  0.6056  0.6265
18356TIP3    H176483   4.987   0.815  12.605 -2.4886  0.2378  0.5822
18356TIP3    H276484   5.047   0.677  12.590  0.0353  1.3459  0.0164
18357TIP3   OH276485   6.343   3.140  16.360 -0.1461  0.2853 -0.1130
18357TIP3    H176486   6.332   3.170  16.270 -1.7748  1.1088  0.3189
18357TIP3    H276487   6.294   3.058  16.364 -0.3039  0.3902  0.0940
18358TIP3   OH276488   0.558   0.918   2.557  1.0159  0.3656  0.4216
18358TIP3    H176489   0.633   0.978   2.558  1.1557  0.1999 -0.0617
18358TIP3    H276490   0.578   0.856   2.487  0.0879  0.7561 -0.1945
18359TIP3   OH276491   1.104   5.592  14.163  0.1849 -0.4376 -0.5248
18359TIP3    H176492   1.085   5.670  14.111 -1.0976 -0.2174  0.2647
18359TIP3    H276493   1.143   5.531  14.100 -0.4000  0.2023 -1.5281
18360TIP3   OH276494   1.330   3.799  16.776 -0.5263 -0.1209  0.1126
18360TIP3    H176495   1.334   3.862  16.848 -1.6504  0.5479 -0.3695
18360TIP3    H276496   1.328   3.853  16.697 -1.0626 -0.7648 -0.3319
18361TIP3   OH276497   0.330   2.961   3.045  1.2291 -0.0163 -0.5261
18361TIP3    H176498   0.346   2.936   3.136  0.6175 -0.3267 -0.5058
18361TIP3    H276499   0.394   2.910   2.995  0.3482 -1.2325 -0.4383
18362TIP3   OH276500   0.139   1.895  13.848 -0.3128 -0.6400  0.0425
18362TIP3    H176501   0.201   1.922  13.916  0.0829 -2.1668  0.3442
18362TIP3    H276502   0.053   1.915  13.884 -0.0448  1.8514 -0.5335
18363TIP3   OH276503   5.116   1.295  16.719  0.1948 -0.3975  0.4983
18363TIP3    H176504   5.113   1.365  16.654  0.6002 -0.6504  0.2095
18363TIP3    H276505   5.028   1.294  16.756 -0.7332 -1.6852 -1.5535
18364TIP3   OH276506   5.655   6.610   1.429 -0.9148 -0.0374  0.4077
18364TIP3    H176507   5.600   6.602   1.507  0.9010  0.2072  1.8045
18364TIP3    H276508   5.698   6.695   1.439 -1.5374  0.5453 -1.5126
18365TIP3   OH276509   3.858   2.752  16.540 -0.3495 -0.5219  0.0593
18365TIP3    H176510   3.894   2.722  16.623  0.5270  0.7534  0.1657
18365TIP3    H276511   3.771   2.786  16.562  0.8618  2.2896  1.0377
18366TIP3   OH276512   6.543   5.705  15.862 -0.0185  0.0203 -0.2993
18366TIP3    H176513   6.510   5.795  15.855  0.0580 -0.0388 -1.8332
18366TIP3    H276514   6.636   5.712  15.838 -0.0994 -0.5125 -0.7934
18367TIP3   OH276515   2.251   0.892   5.724  0.1494  0.2108  0.4695
18367TIP3    H176516   2.299   0.941   5.791 -1.7133  1.0567  1.2823
18367TIP3    H276517   2.195   0.832   5.774  0.3061 -0.7021 -0.4242
18368TIP3   OH276518   1.912   2.250   4.280  0.6663 -0.3200  0.8855
18368TIP3    H176519   1.818   2.239   4.267  0.5754  1.3833 -0.1913
18368TIP3    H276520   1.950   2.168   4.247 -0.3835 -0.7486  0.6912
18369TIP3   OH276521   6.199   4.486   2.922 -0.5464  0.1281 -0.4247
18369TIP3    H176522   6.255   4.443   2.988 -1.2518  0.0809  0.1524
18369TIP3    H276523   6.261   4.528   2.863  0.2557 -2.7195 -1.7752
18370TIP3   OH276524   6.560   3.411  12.018 -0.6801 -0.3641 -0.1156
18370TIP3    H176525   6.640   3.378  11.977 -1.3115 -0.0917 -1.6103
18370TIP3    H276526   6.505   3.438  11.945 -2.1347 -0.5015  0.8999
18371TIP3   OH276527   3.181   5.093   0.163  0.3315  0.8737 -0.0407
18371TIP3    H176528   3.265   5.052   0.142  1.0222  1.1206  2.0070
18371TIP3    H276529   3.154   5.051   0.244 -2.1590 -0.0387 -1.2344
18372TIP3   OH276530   0.705   5.328   5.598 -0.1807  0.1356  0.1781
18372TIP3    H176531   0.662   5.370   5.671 -0.4352  0.1847  0.0014
18372TIP3    H276532   0.795   5.313   5.627 -0.3408 -0.0490  0.5789
18373TIP3   OH276533   4.127   2.400  15.118  1.0038  0.0117 -0.4592
18373TIP3    H176534   4.069   2.474  15.133 -0.7827 -1.5321  0.7420
18373TIP3    H276535   4.068   2.325  15.105  2.7180 -1.4678 -0.1245
18374TIP3   OH276536   6.325   3.254  13.281  0.1152  0.3193 -0.3054
18374TIP3    H176537   6.373   3.268  13.362 -0.1719  1.8888 -0.3852
18374TIP3    H276538   6.368   3.310  13.217 -1.7600  1.7558 -0.3819
18375TIP3   OH276539   2.429   2.426   4.145 -0.1864  0.1589  0.0164
18375TIP3    H176540   2.482   2.451   4.070  0.7183 -2.2675 -0.2738
18375TIP3    H276541   2.375   2.353   4.113 -0.3486 -0.4003  1.4799
18376TIP3   OH276542   5.748   3.157  10.352  0.1447  0.5603  0.2810
18376TIP3    H176543   5.724   3.074  10.312  1.8014 -0.2428  0.8674
18376TIP3    H276544   5.671   3.213  10.338 -1.3465 -1.3000  0.6016
18377TIP3   OH276545   3.310   5.337  14.999  0.2209  0.1563 -0.5696
18377TIP3    H176546   3.324   5.404  15.065  0.4625  0.1775 -0.6415
18377TIP3    H276547   3.309   5.254  15.047 -2.1677  0.3488 -0.1847
18378TIP3   OH276548   0.330   4.746  14.752 -0.2249  0.0913  0.3330
18378TIP3    H176549   0.395   4.787  14.696 -1.1047 -1.0988 -1.6690
18378TIP3    H276550   0.372   4.738  14.837  2.9366 -2.1620 -1.2453
18379TIP3   OH276551   0.180   2.397   3.688 -0.5349 -0.1007 -0.4711
18379TIP3    H176552   0.145   2.462   3.627 -1.8641 -0.3374 -0.0146
18379TIP3    H276553   0.171   2.314   3.643 -1.2363 -0.2411 -0.0886
18380TIP3   OH276554   5.191   0.373  11.349 -0.3511 -0.2339 -0.2125
18380TIP3    H176555   5.194   0.408  11.260  0.3745  1.8061  0.5357
18380TIP3    H276556   5.278   0.392  11.385 -1.1615  0.6069  1.4538
18381TIP3   OH276557   1.704   6.194  14.624 -0.1647  0.1585  0.1399
18381TIP3    H176558   1.756   6.149  14.690  0.1138 -0.0448 -0.2132
18381TIP3    H276559   1.669   6.271  14.670 -0.0721 -0.0427  0.5528
18382TIP3   OH276560   2.125   3.762   0.435  0.5166 -0.4994  0.9442
18382TIP3    H176561   2.145   3.699   0.365  1.2225 -0.4828  1.1226
18382TIP3    H276562   2.185   3.835   0.420 -1.1794  0.7469 -0.0289
18383TIP3   OH276563   3.864   0.675  13.018  0.0036 -0.0315 -0.2017
18383TIP3    H176564   3.893   0.586  13.037  0.8819  0.0556 -1.0889
18383TIP3    H276565   3.908   0.729  13.084  1.0520 -0.0275 -0.8876
18384TIP3   OH276566   3.394   6.204   0.676  0.1648 -0.3363 -0.1151
18384TIP3    H176567   3.384   6.142   0.604 -1.3538 -1.1056  0.7180
18384TIP3    H276568   3.469   6.171   0.726  0.2651 -0.6664 -0.4763
18385TIP3   OH276569   5.655   6.411   0.415  0.4425 -0.6228 -0.2746
18385TIP3    H176570   5.647   6.364   0.332  0.7263  0.8553 -1.1678
18385TIP3    H276571   5.745   6.442   0.416  0.6866 -1.3187  0.9903
18386TIP3   OH276572   2.549   0.093  15.843 -0.3698 -0.2192 -0.5070
18386TIP3    H176573   2.579   0.173  15.885  0.4943 -0.0059 -1.4950
18386TIP3    H276574   2.467   0.118  15.800 -0.1837  0.1115 -0.6796
18387TIP3   OH276575   6.440   4.603  14.114  0.1699  0.1982  0.2951
18387TIP3    H176576   6.434   4.619  14.019 -1.2939  1.6204  0.5758
18387TIP3    H276577   6.506   4.665  14.145 -1.1365  1.5399  0.5160
18388TIP3   OH276578   5.035   4.673   3.452 -0.2981 -0.4606 -0.1717
18388TIP3    H176579   4.977   4.630   3.514 -1.9003 -0.3939 -1.5653
18388TIP3    H276580   5.084   4.737   3.505 -2.8447  0.8399  0.7547
18389TIP3   OH276581   4.497   0.874  15.624  0.2892 -0.6831 -0.9635
18389TIP3    H176582   4.445   0.953  15.611  2.2763  0.9645  0.3388
18389TIP3    H276583   4.563   0.877  15.554 -0.6336 -2.1503 -1.9414
18390TIP3   OH276584   6.608   0.859   3.860  0.4025  0.7390  0.3993
18390TIP3    H176585   6.567   0.801   3.796 -0.8065  2.3217 -0.3487
18390TIP3    H276586   6.542   0.870   3.929  0.0648  2.2232 -0.1289
18391TIP3   OH276587   0.182   6.246   2.608  0.2650  0.2015 -0.3901
18391TIP3    H176588   0.176   6.309   2.536  0.9559  0.0253 -0.6107
18391TIP3    H276589   0.276   6.234   2.622  0.1664  1.1367  1.3496
18392TIP3   OH276590   1.481   4.975   2.259 -0.3636  0.4415 -0.4041
18392TIP3    H176591   1.412   4.997   2.322 -1.2616  1.6728 -1.7649
18392TIP3    H276592   1.559   4.960   2.313 -1.2649  0.8011  1.0406
18393TIP3   OH276593   0.940   5.434   1.017 -0.1093 -0.2670 -0.0242
18393TIP3    H176594   0.914   5.395   0.934 -1.9531  0.5616  0.1112
18393TIP3    H276595   0.858   5.455   1.061  0.7978  1.5657  0.9358
18394TIP3   OH276596   1.845   1.830   5.594 -0.1312 -0.7606 -0.2087
18394TIP3    H176597   1.789   1.907   5.583  1.4285  0.5569  0.7255
18394TIP3    H276598   1.921   1.848   5.539  1.5814 -0.2327  2.1763
18395TIP3   OH276599   0.711   1.373   4.751  0.0494  0.0016  0.2876
18395TIP3    H176600   0.683   1.291   4.792 -0.5587 -1.1024 -2.1601
18395TIP3    H276601   0.632   1.426   4.750  0.1961  0.2439  0.9748
18396TIP3   OH276602   4.006   2.753  14.016  0.0161  0.2628 -0.0985
18396TIP3    H176603   4.071   2.689  14.047 -0.4598  0.4264  1.3057
18396TIP3    H276604   4.058   2.826  13.984  0.5926 -0.9721 -2.2004
18397TIP3   OH276605   4.956   4.514  12.616  0.6578 -0.0895  0.8806
18397TIP3    H176606   5.048   4.489  12.611  0.7820  0.2714  1.2595
18397TIP3    H276607   4.953   4.580  12.686  0.1513  0.0714  0.7132
18398TIP3   OH276608   5.117   0.866   2.051  0.3368 -0.0897 -0.0998
18398TIP3    H176609   5.130   0.877   1.957 -2.0895  1.1970 -0.3637
18398TIP3    H276610   5.168   0.937   2.090  1.3500 -0.6249 -0.3989
18399TIP3   OH276611   2.889   4.304   4.542 -0.2100  0.4158  0.1137
18399TIP3    H176612   2.959   4.365   4.519  1.6097 -0.9315  1.7549
18399TIP3    H276613   2.868   4.325   4.633 -0.1374 -0.7916  0.4363
18400TIP3   OH276614   6.369   5.643   5.254  0.4636 -0.1740  0.1954
18400TIP3    H176615   6.385   5.645   5.348 -1.4843 -0.2582  0.5760
18400TIP3    H276616   6.387   5.552   5.228  3.2633  0.3610 -0.0205
18401TIP3   OH276617   4.482   3.231  11.301 -0.5335 -0.5069  0.0167
18401TIP3    H176618   4.432   3.312  11.291 -0.0504 -0.4040 -2.0028
18401TIP3    H276619   4.440   3.170  11.240 -1.7328 -2.2873  2.4202
18402TIP3   OH276620   1.532   1.780   5.533 -0.2234 -0.2439  0.1620
18402TIP3    H176621   1.493   1.852   5.483 -0.8220 -0.1236  0.7946
18402TIP3    H276622   1.535   1.812   5.623 -1.4725 -1.4011  0.6316
18403TIP3   OH276623   4.996   4.997   0.255  0.1186  0.5615  0.3143
18403TIP3    H176624   5.083   4.968   0.283  0.4117  0.7317 -0.3891
18403TIP3    H276625   4.947   4.917   0.240 -0.5452  0.4467  2.7434
18404TIP3   OH276626   5.313   0.221   4.366 -0.0986 -0.1079 -0.3248
18404TIP3    H176627   5.316   0.316   4.356  0.5443 -0.1817 -0.8942
18404TIP3    H276628   5.241   0.193   4.310 -2.1274  0.2801  1.9494
18405TIP3   OH276629   3.323   0.029  12.133  0.6596 -0.4764  0.1423
18405TIP3    H176630   3.229   0.015  12.146  0.6162 -0.3841 -0.0684
18405TIP3    H276631   3.338   0.118  12.166  0.9267 -0.9883  1.4395
18406TIP3   OH276632   1.515   0.624   0.369 -0.0491  0.0251 -0.6559
18406TIP3    H176633   1.600   0.583   0.380  0.4525  1.1298 -0.2807
18406TIP3    H276634   1.520   0.705   0.419 -1.8814 -0.6270  0.7212
18407TIP3   OH276635   1.572   0.205   4.524 -0.7592  0.7983  0.0212
18407TIP3    H176636   1.569   0.169   4.613 -1.6111  2.4294  0.6963
18407TIP3    H276637   1.627   0.282   4.531  0.5835  0.0069 -1.2789
18408TIP3   OH276638   1.352   6.471   2.553  0.5112  0.4681 -0.5260
18408TIP3    H176639   1.263   6.487   2.521  0.3136 -0.5004 -0.4804
18408TIP3    H276640   1.340   6.432   2.639  0.9572 -0.5194 -0.8998
18409TIP3   OH276641   3.657   4.672  16.231  0.4723  0.1617  0.8016
18409TIP3    H176642   3.707   4.738  16.279  0.5001 -1.1061  2.5994
18409TIP3    H276643   3.567   4.683  16.261 -0.5272  2.4733 -2.4605
18410TIP3   OH276644   5.575   6.726  15.922  0.0946  0.0500 -0.2058
18410TIP3    H176645   5.531   6.763  15.844  0.3823  0.0650 -0.3612
18410TIP3    H276646   5.560   6.791  15.990  0.8736  0.6154 -0.5614
18411TIP3   OH276647   3.595   4.150  11.126 -0.1601  0.1842  0.4277
18411TIP3    H176648   3.563   4.165  11.037  0.3879 -0.1296  0.1700
18411TIP3    H276649   3.554   4.218  11.178 -0.5714  0.3065 -0.0470
18412TIP3   OH276650   2.703   2.744   2.202  0.0801 -0.0167 -0.4416
18412TIP3    H176651   2.687   2.831   2.165  0.6804  0.5146  0.5038
18412TIP3    H276652   2.649   2.742   2.281  0.8859 -0.0843  0.1161
18413TIP3   OH276653   5.829   6.414   5.958  0.3870 -0.6368  0.0212
18413TIP3    H176654   5.846   6.342   5.898 -1.4192 -1.6815  0.6999
18413TIP3    H276655   5.758   6.464   5.916  0.3783 -0.3045  0.4231
18414TIP3   OH276656   3.828   1.713   4.203 -0.6036 -0.1685  0.3336
18414TIP3    H176657   3.889   1.709   4.276 -0.4477 -2.9709  0.1443
18414TIP3    H276658   3.791   1.802   4.207  2.2452  1.0684  1.4094
18415TIP3   OH276659   3.903   0.420   1.448 -0.0890  0.2456  0.8698
18415TIP3    H176660   3.960   0.347   1.424  0.6538  0.7661  0.9880
18415TIP3    H276661   3.894   0.471   1.368 -2.2301 -0.9935  0.2510
18416TIP3   OH276662   0.841   3.192   0.552  0.4403  0.1172 -0.0665
18416TIP3    H176663   0.890   3.178   0.471  1.8122  1.6327  0.4308
18416TIP3    H276664   0.787   3.269   0.534 -0.7205 -0.6893 -0.1366
18417TIP3   OH276665   1.896   0.368   3.623 -0.4043  0.4157 -0.5119
18417TIP3    H176666   1.810   0.391   3.659  0.6226  1.3655  1.5336
18417TIP3    H276667   1.909   0.432   3.553 -0.7687  1.2463  0.1450
18418TIP3   OH276668   2.127   2.656  16.079 -0.5634 -0.6049 -0.9665
18418TIP3    H176669   2.056   2.657  16.015 -0.9373 -2.2765 -0.6032
18418TIP3    H276670   2.096   2.600  16.149 -0.0499  0.9904  0.6136
18419TIP3   OH276671   2.876   1.844  13.368  0.0877 -0.1121  0.0406
18419TIP3    H176672   2.962   1.882  13.347  0.3083 -0.6786 -0.1199
18419TIP3    H276673   2.849   1.803  13.286  0.2072 -0.9527  0.4127
18420TIP3   OH276674   0.413   4.001   3.222  0.2131  0.5758 -0.1899
18420TIP3    H176675   0.463   4.075   3.189 -0.3301  0.8310 -0.4579
18420TIP3    H276676   0.370   3.965   3.145  0.2144  0.1812 -0.0087
18421TIP3   OH276677   3.740   1.838  15.440 -0.3322 -0.7064 -0.1837
18421TIP3    H176678   3.750   1.790  15.522  0.7295 -0.9203 -0.4225
18421TIP3    H276679   3.654   1.879  15.447 -1.0563 -2.2178  0.2454
18422TIP3   OH276680   5.975   0.178  13.091  0.5549  0.0716  0.2046
18422TIP3    H176681   5.925   0.164  13.172  0.2128  1.1612  0.1980
18422TIP3    H276682   6.035   0.250  13.112 -0.0696  0.8921 -0.7189
18423TIP3   OH276683   2.663   3.169  15.676  0.2669 -0.0788  0.1611
18423TIP3    H176684   2.607   3.246  15.661 -1.7602 -1.4469  0.4154
18423TIP3    H276685   2.643   3.142  15.766  0.0062 -1.6126 -0.3317
18424TIP3   OH276686   1.970   2.374  15.573  0.0719 -0.1770 -0.3937
18424TIP3    H176687   1.885   2.416  15.583 -0.1790 -1.1115  1.9454
18424TIP3    H276688   1.953   2.300  15.514  0.4071  2.3866 -4.0726
18425TIP3   OH276689   0.481   5.555   2.408  0.3752  0.2276  0.0444
18425TIP3    H176690   0.399   5.603   2.395 -0.0145  0.3117  2.2593
18425TIP3    H276691   0.453   5.467   2.437  1.0506  0.1089  0.3714
18426TIP3   OH276692   1.328   2.605  15.676  0.3747 -0.3442 -0.0441
18426TIP3    H176693   1.381   2.535  15.714  0.2199 -0.6330 -0.3505
18426TIP3    H276694   1.329   2.587  15.582 -0.3283 -0.4008 -0.0480
18427TIP3   OH276695   5.098   6.335  13.204  0.5105  0.3236 -0.2929
18427TIP3    H176696   5.116   6.383  13.285  1.1223  0.4963 -0.5256
18427TIP3    H276697   5.007   6.307  13.212  0.2573  1.2154  0.0041
18428TIP3   OH276698   5.189   6.513   1.945 -0.2305  0.0316  0.6175
18428TIP3    H176699   5.261   6.574   1.960 -0.3321  0.3629 -0.1906
18428TIP3    H276700   5.230   6.426   1.951  0.5328  0.2271 -1.1233
18429TIP3   OH276701   3.731   6.189   0.544 -0.2463 -0.2204  0.6823
18429TIP3    H176702   3.794   6.238   0.596 -1.6487  0.1601  2.1104
18429TIP3    H276703   3.769   6.102   0.534  1.2424  0.4680  0.0609
18430TIP3   OH276704   6.716   5.999   0.168  0.2907  0.2528 -0.4317
18430TIP3    H176705   6.699   6.012   0.075 -0.4613  1.6770 -0.1257
18430TIP3    H276706   6.696   5.907   0.184  2.2786 -0.5455 -2.0348
18431TIP3   OH276707   3.948   1.761  16.534  0.1536 -0.3042  0.0680
18431TIP3    H176708   3.981   1.697  16.471  0.6415 -0.7967  0.8027
18431TIP3    H276709   3.891   1.711  16.592 -1.8940  0.5246 -1.1356
18432TIP3   OH276710   6.333   0.543   3.843 -0.1085 -0.1659  0.4313
18432TIP3    H176711   6.242   0.528   3.818 -0.0051  0.7672 -0.5317
18432TIP3    H276712   6.384   0.493   3.779  0.0762 -0.6079  0.9122
18433TIP3   OH276713   1.181   3.377  12.549  0.1326 -0.2468  0.0562
18433TIP3    H176714   1.127   3.416  12.618  0.0171 -1.9519  0.9981
18433TIP3    H276715   1.198   3.288  12.580 -0.4416 -1.3092 -2.4228
18434TIP3   OH276716   1.347   4.829  13.065  0.5873  0.3288  0.6227
18434TIP3    H176717   1.313   4.854  13.151 -1.2891  0.1494 -0.0191
18434TIP3    H276718   1.376   4.912  13.027 -2.8261  1.2680 -0.3014
18435TIP3   OH276719   5.820   4.026  13.536 -0.0555 -0.8046  0.4456
18435TIP3    H176720   5.901   4.013  13.585 -0.1060  1.7626  1.3871
18435TIP3    H276721   5.835   4.107  13.487 -1.4221 -1.2381 -0.7460
18436TIP3   OH276722   4.455   6.107  12.589  0.5744 -0.2882 -0.0980
18436TIP3    H176723   4.377   6.100  12.535  0.2162 -2.1370  0.5936
18436TIP3    H276724   4.528   6.092  12.528  0.5534  2.7269 -1.0052
18437TIP3   OH276725   4.793   2.639  15.253 -0.2946 -0.6230 -0.1849
18437TIP3    H176726   4.886   2.658  15.241 -0.4445  0.4257  0.2405
18437TIP3    H276727   4.787   2.544  15.247  0.9770 -0.7943  0.9467
18438TIP3   OH276728   6.792   5.084  12.913 -0.0502  0.2836 -0.3187
18438TIP3    H176729   6.701   5.100  12.938  0.0696 -1.5952  1.6053
18438TIP3    H276730   6.800   5.123  12.826 -3.4915 -1.8992 -1.8230
18439TIP3   OH276731   3.691   3.301   0.904 -0.1291 -0.5624  0.4806
18439TIP3    H176732   3.763   3.360   0.925  1.1426 -2.0733  0.6015
18439TIP3    H276733   3.644   3.343   0.833  1.1441  0.2636  0.1031
18440TIP3   OH276734   1.001   3.294   1.574 -0.0106 -0.6579  0.2533
18440TIP3    H176735   1.005   3.262   1.664  1.0813 -1.1916  0.0283
18440TIP3    H276736   1.030   3.220   1.521 -0.2949 -0.2297 -0.5194
18441TIP3   OH276737   5.259   1.615  14.726  0.0240  0.4589 -0.6854
18441TIP3    H176738   5.339   1.667  14.730  0.3297 -0.0915  1.4752
18441TIP3    H276739   5.287   1.527  14.703 -0.0687  0.4384 -0.7238
18442TIP3   OH276740   2.308   0.697   3.570 -0.3419  0.4224  0.3238
18442TIP3    H176741   2.235   0.751   3.600  0.1839  0.1217  2.3135
18442TIP3    H276742   2.332   0.645   3.646  1.1818 -0.3563 -0.6303
18443TIP3   OH276743   0.107   4.843  15.459 -0.0381 -0.5009 -0.0671
18443TIP3    H176744   0.181   4.854  15.518  2.0216  0.6330 -2.6644
18443TIP3    H276745   0.138   4.782  15.392 -1.1931  0.4910 -1.5763
18444TIP3   OH276746   2.667   1.155   3.319 -0.2257  0.5060 -0.2497
18444TIP3    H176747   2.748   1.206   3.323  1.0339 -1.4220  1.2158
18444TIP3    H276748   2.689   1.080   3.265 -1.6819  0.9006 -1.4409
18445TIP3   OH276749   6.510   4.115  13.273 -0.0528 -0.2913  0.2715
18445TIP3    H176750   6.481   4.206  13.278 -0.4418 -0.3189 -1.0522
18445TIP3    H276751   6.464   4.079  13.198 -0.0460 -1.6481  0.8796
18446TIP3   OH276752   3.857   0.525  10.187  0.3201  0.4924 -0.3603
18446TIP3    H176753   3.905   0.516  10.270  0.5491  2.1040 -0.2979
18446TIP3    H276754   3.776   0.570  10.210 -0.3733 -0.4885 -0.7846
18447TIP3   OH276755   4.437   0.535   2.207 -0.3733 -0.5328 -0.0607
18447TIP3    H176756   4.477   0.460   2.163  0.8692  0.3791 -0.5570
18447TIP3    H276757   4.511   0.587   2.238 -1.1737  0.8091 -0.2912
18448TIP3   OH276758   4.865   2.823   4.567  0.0006  0.3589 -0.3320
18448TIP3    H176759   4.885   2.730   4.573  0.0720  0.4403  0.9831
18448TIP3    H276760   4.950   2.866   4.569 -0.0736  0.4959  0.5462
18449TIP3   OH276761   1.406   3.278   5.056  0.9156 -0.3357  0.4756
18449TIP3    H176762   1.478   3.233   5.101 -0.9653 -3.4091  0.6983
18449TIP3    H276763   1.347   3.305   5.125  0.6710 -0.0490  0.1573
18450TIP3   OH276764   6.513   0.614   1.860  0.0573  0.2768 -0.4727
18450TIP3    H176765   6.548   0.665   1.788  0.7497 -1.4285 -1.4035
18450TIP3    H276766   6.588   0.566   1.895 -0.5285 -0.0170  0.4400
18451TIP3   OH276767   4.842   0.876   1.934  0.3214 -0.6553 -0.2174
18451TIP3    H176768   4.933   0.846   1.940  0.1157 -1.2302  0.1737
18451TIP3    H276769   4.844   0.966   1.965  0.6959 -0.7983  0.1939
18452TIP3   OH276770   6.739   2.378  11.489 -0.5552  0.2711 -0.2640
18452TIP3    H176771   6.668   2.439  11.510 -0.9368 -0.6826  1.4239
18452TIP3    H276772   6.759   2.335  11.573  0.3245 -1.2538 -1.2079
18453TIP3   OH276773   6.106   5.375  14.877 -0.4535  0.2184  0.2682
18453TIP3    H176774   6.046   5.300  14.876  0.6502 -0.7600 -2.5539
18453TIP3    H276775   6.193   5.336  14.876  0.1473  1.3941 -2.6112
18454TIP3   OH276776   5.027   2.686  15.833  0.3499 -0.9134  0.5929
18454TIP3    H176777   4.994   2.625  15.899  0.0429  1.2250  2.5433
18454TIP3    H276778   5.007   2.772  15.869  0.8310  0.3681 -2.0097
18455TIP3   OH276779   0.901   1.942   1.432  0.2082 -0.8279 -0.5176
18455TIP3    H176780   0.888   1.852   1.402 -3.9591  0.4425 -3.4554
18455TIP3    H276781   0.830   1.957   1.494  1.2772  0.3347  0.4889
18456TIP3   OH276782   5.212   4.720  16.147 -0.3760 -0.4856 -0.0866
18456TIP3    H176783   5.158   4.797  16.127 -1.9747 -1.5396 -0.0630
18456TIP3    H276784   5.149   4.648  16.152  0.8526 -1.5010  1.6650
18457TIP3   OH276785   1.119   1.590  10.621  0.4441 -0.1802 -0.3686
18457TIP3    H176786   1.183   1.542  10.569  2.7793 -1.3421  3.1800
18457TIP3    H276787   1.043   1.531  10.626  0.8343 -0.7554 -1.0786
18458TIP3   OH276788   3.496   0.810  15.333 -0.5141  0.3244  0.0733
18458TIP3    H176789   3.513   0.889  15.282  0.1190  0.6247  0.7231
18458TIP3    H276790   3.582   0.775  15.353 -0.6282  1.0635  2.2016
18459TIP3   OH276791   4.292   1.511   4.722  0.4026 -0.0207 -0.2354
18459TIP3    H176792   4.337   1.563   4.788  0.4396  0.0177 -0.2914
18459TIP3    H276793   4.223   1.568   4.688  0.8646  0.2212 -0.7675
18460TIP3   OH276794   0.370   1.467   5.594 -0.4391 -0.1319 -0.3691
18460TIP3    H176795   0.444   1.484   5.536  1.3932 -1.0094  1.5461
18460TIP3    H276796   0.368   1.542   5.653 -1.9258  0.4827 -1.1317
18461TIP3   OH276797   4.708   6.617   2.862 -0.1083 -0.5370 -0.2634
18461TIP3    H176798   4.796   6.601   2.895  0.8660 -0.3007 -2.5891
18461TIP3    H276799   4.711   6.592   2.770 -2.5638 -0.7563 -0.3730
18462TIP3   OH276800   2.668   1.874  11.926  0.5732 -0.8787  0.8104
18462TIP3    H176801   2.671   1.961  11.886 -1.0700 -0.7819  0.8268
18462TIP3    H276802   2.606   1.825  11.871  0.7948 -1.7579  1.3304
18463TIP3   OH276803   2.362   5.684  15.451 -0.1480 -0.0077 -0.5314
18463TIP3    H176804   2.304   5.712  15.521 -1.1918 -0.3706 -1.2396
18463TIP3    H276805   2.431   5.635  15.496 -1.4577 -1.3135  0.1392
18464TIP3   OH276806   6.014   5.267   0.732 -0.4468  0.3546  0.6285
18464TIP3    H176807   5.975   5.337   0.783  1.6804  0.0673  2.8630
18464TIP3    H276808   6.106   5.293   0.721 -0.0992 -1.1003 -0.3144
18465TIP3   OH276809   4.068   0.991  13.489 -0.2445 -0.5202  0.3239
18465TIP3    H176810   4.039   1.082  13.488  0.3368 -0.3371  0.0948
18465TIP3    H276811   3.992   0.943  13.522 -0.0537  0.2198  1.9439
18466TIP3   OH276812   5.308   6.781  11.355  0.2808 -0.4236 -0.1700
18466TIP3    H176813   5.245   6.729  11.304 -0.9174  0.6634  0.1440
18466TIP3    H276814   5.253   6.841  11.406  1.4331 -1.2209  2.1533
18467TIP3   OH276815   2.713   5.767  12.271  0.2103  0.1098  0.2651
18467TIP3    H176816   2.750   5.770  12.183  0.0842 -2.1246  0.0918
18467TIP3    H276817   2.619   5.754  12.258 -0.1271  1.8520  0.7435
18468TIP3   OH276818   2.461   2.604   0.450 -0.2880 -0.1838 -0.1553
18468TIP3    H176819   2.432   2.694   0.440 -0.8465 -0.4332 -0.8848
18468TIP3    H276820   2.542   2.610   0.501  0.6383  0.8915 -1.6803
18469TIP3   OH276821   5.816   6.805  11.926  0.4515 -0.0396  0.6657
18469TIP3    H176822   5.794   6.851  12.007 -1.0567 -1.8562  1.3661
18469TIP3    H276823   5.883   6.741  11.952 -0.4038 -0.9729  0.6141
18470TIP3   OH276824   5.726   0.678  13.540 -0.2827 -0.1556 -0.0843
18470TIP3    H176825   5.640   0.640  13.558 -1.3180  1.4079 -1.3994
18470TIP3    H276826   5.761   0.700  13.627 -0.5672 -2.0832  0.5538
18471TIP3   OH276827   3.257   4.178  12.818  0.0054 -0.1424  0.0198
18471TIP3    H176828   3.280   4.140  12.733  0.0801 -1.3114  0.5478
18471TIP3    H276829   3.164   4.159  12.828  0.3122 -1.3054  0.8320
18472TIP3   OH276830   5.663   0.900  12.476  0.3887  0.7239  0.0599
18472TIP3    H176831   5.757   0.891  12.461  0.3221  1.8514 -1.3325
18472TIP3    H276832   5.626   0.816  12.452  0.7632  1.2000 -2.4972
18473TIP3   OH276833   5.419   5.328   5.936 -0.4045 -0.2687  0.0230
18473TIP3    H176834   5.408   5.261   6.003 -2.6398 -1.7222 -1.6381
18473TIP3    H276835   5.340   5.382   5.944 -0.6374 -0.3832 -1.2970
18474TIP3   OH276836   6.372   0.799   1.202  0.3419 -0.5305  0.0430
18474TIP3    H176837   6.379   0.711   1.165 -0.0129 -0.7064  0.3852
18474TIP3    H276838   6.316   0.788   1.279  1.3978 -0.2470  0.8733
18475TIP3   OH276839   0.448   1.740   2.058 -0.6446  0.2551 -0.4531
18475TIP3    H176840   0.532   1.771   2.024  0.6529 -0.0774  2.2291
18475TIP3    H276841   0.383   1.779   2.000  1.2947  1.1080 -2.1854
18476TIP3   OH276842   2.306   3.109   0.091 -0.1409  0.4599  0.0754
18476TIP3    H176843   2.380   3.098   0.151 -0.5616  1.4502  0.7995
18476TIP3    H276844   2.297   3.024   0.048  2.2939  0.6932 -1.0533
18477TIP3   OH276845   4.529   5.321  16.496 -0.4146  0.4640 -0.4155
18477TIP3    H176846   4.523   5.227  16.476 -1.6665  0.7887 -1.7531
18477TIP3    H276847   4.453   5.338  16.552 -0.6187  0.8115 -0.7954
18478TIP3   OH276848   0.500   5.071  15.920  0.1753  0.1429 -0.0002
18478TIP3    H176849   0.465   5.022  15.995  1.5000  0.8404  1.1297
18478TIP3    H276850   0.568   5.128  15.958  3.4997 -2.0183 -2.1105
18479TIP3   OH276851   2.902   3.361  16.734 -0.3290  0.1454 -0.0386
18479TIP3    H176852   2.917   3.367  16.640 -2.4173  1.6427 -0.3541
18479TIP3    H276853   2.827   3.301  16.742  0.4641 -0.7603  0.7683
18480TIP3   OH276854   0.379   1.278   0.312 -0.5103  0.8951  0.4133
18480TIP3    H176855   0.372   1.308   0.403 -0.1684 -1.6486  1.3604
18480TIP3    H276856   0.473   1.280   0.293 -0.3192 -0.8805  1.0175
18481TIP3   OH276857   6.683   4.506  15.862  0.5249 -0.8321 -0.0294
18481TIP3    H176858   6.749   4.553  15.809  2.6308 -1.5404  1.8057
18481TIP3    H276859   6.670   4.423  15.815  0.0074 -0.2127 -1.0248
18482TIP3   OH276860   6.797   1.928  10.889  0.1589  0.0730 -0.4566
18482TIP3    H176861   6.858   2.002  10.892  2.6410 -1.8216  0.5830
18482TIP3    H276862   6.738   1.943  10.963  1.1697  0.6157  0.2765
18483TIP3   OH276863   1.775   4.206   1.716  0.3885  0.2016  0.7613
18483TIP3    H176864   1.736   4.241   1.636  2.3261  0.7995  0.0094
18483TIP3    H276865   1.701   4.192   1.775 -0.8199  2.9639  0.0920
18484TIP3   OH276866   6.274   5.129   2.498 -0.0155  0.2359  0.2829
18484TIP3    H176867   6.364   5.100   2.483 -0.1186  0.6022 -1.1859
18484TIP3    H276868   6.239   5.066   2.562  1.1224 -0.1885  0.5136
18485TIP3   OH276869   4.862   1.342   2.544  0.1658 -0.2060  0.4029
18485TIP3    H176870   4.842   1.406   2.477 -0.3499 -0.2274  0.5308
18485TIP3    H276871   4.942   1.374   2.586  1.1256 -0.7733 -0.9415
18486TIP3   OH276872   0.108   0.038   4.626  0.0333 -0.2625 -0.6789
18486TIP3    H176873   0.191  -0.002   4.652  0.5411  0.6278 -0.9058
18486TIP3    H276874   0.108   0.124   4.668  0.1615  0.5744 -2.3410
18487TIP3   OH276875   4.489   5.610   2.220 -0.6334 -0.7894  0.0616
18487TIP3    H176876   4.488   5.682   2.283  0.6822 -1.4562  0.8958
18487TIP3    H276877   4.582   5.590   2.208 -0.9370 -1.7033 -0.9102
18488TIP3   OH276878   0.546   2.840   6.391 -0.1240 -0.3440  0.1008
18488TIP3    H176879   0.623   2.879   6.351  0.2234 -0.1428  0.9375
18488TIP3    H276880   0.559   2.852   6.485 -1.5043  0.3097  0.2348
18489TIP3   OH276881   5.063   1.821  14.676 -0.5672 -0.2154  0.5031
18489TIP3    H176882   4.973   1.787  14.676 -0.4177 -0.6107  0.1794
18489TIP3    H276883   5.118   1.744  14.688 -0.3378  0.2310  2.8132
18490TIP3   OH276884   5.602   4.995   3.686 -0.8427  0.2934 -0.3129
18490TIP3    H176885   5.552   5.030   3.760 -2.0085 -0.8276 -0.5171
18490TIP3    H276886   5.537   4.946   3.635  0.1635  0.1339 -1.4880
18491TIP3   OH276887   5.339   1.820   3.566 -0.0449  0.2970 -0.7747
18491TIP3    H176888   5.383   1.888   3.617  0.0310 -0.5612  0.3628
18491TIP3    H276889   5.336   1.854   3.477 -2.4514  3.0282  0.1766
18492TIP3   OH276890   0.494   2.641  16.988 -0.3978  0.1313  0.2100
18492TIP3    H176891   0.425   2.684  16.937 -1.0504 -2.0375 -0.8780
18492TIP3    H276892   0.572   2.647  16.932  0.1319  1.8384  1.0710
18493TIP3   OH276893   5.485   5.512  11.660 -0.1288  0.2312 -0.5518
18493TIP3    H176894   5.496   5.476  11.747  0.1191 -1.1813 -1.1397
18493TIP3    H276895   5.574   5.514  11.624 -0.3552 -0.1877 -1.1464
18494TIP3   OH276896   2.345   1.040  13.780  0.7804  0.3361  0.5154
18494TIP3    H176897   2.369   0.993  13.700 -1.4014  1.8537 -1.1367
18494TIP3    H276898   2.397   1.120  13.777 -0.2026  0.9778 -0.1002
18495TIP3   OH276899   5.216   6.078  13.350  0.1044 -0.4939  0.4650
18495TIP3    H176900   5.169   6.100  13.270  0.3648 -1.4592  0.0294
18495TIP3    H276901   5.157   6.105  13.421 -0.6734 -0.7746 -0.0640
18496TIP3   OH276902   1.923   6.493  10.824  0.1168  0.1288 -0.1459
18496TIP3    H176903   1.890   6.555  10.759  0.3568  0.1531 -0.2461
18496TIP3    H276904   1.943   6.414  10.774 -0.2551 -0.0556 -0.0072
18497TIP3   OH276905   1.782   5.182  11.323 -0.0250 -0.3013 -0.1635
18497TIP3    H176906   1.877   5.187  11.338 -0.0134  0.6146 -0.4908
18497TIP3    H276907   1.754   5.109  11.378  1.0967 -1.6389 -1.2873
18498TIP3   OH276908   4.713   5.878  12.772 -0.3454 -0.3521 -0.6468
18498TIP3    H176909   4.673   5.965  12.769 -0.6988 -0.4797  0.0913
18498TIP3    H276910   4.659   5.824  12.715 -1.3613 -0.5645  0.4734
18499TIP3   OH276911   3.093   4.035   5.468  0.1108 -0.1869  0.2290
18499TIP3    H176912   3.136   3.950   5.455  0.0011 -0.1119 -0.7175
18499TIP3    H276913   3.044   4.049   5.387  1.2059  1.4053 -0.2090
18500TIP3   OH276914   0.215   2.212   1.172 -0.4946 -0.5929 -0.4261
18500TIP3    H176915   0.306   2.189   1.151 -0.3166  0.8217 -1.3627
18500TIP3    H276916   0.171   2.213   1.087 -0.5638  1.9991 -0.4426
18501TIP3   OH276917   5.516   3.957  11.351  0.3839  0.0252 -0.4284
18501TIP3    H176918   5.536   4.035  11.403 -0.4369 -0.3139  0.4161
18501TIP3    H276919   5.564   3.887  11.394 -0.1209 -0.2195 -0.2633
18502TIP3   OH276920   2.997   0.670   4.024 -0.3787 -0.1954  1.0489
18502TIP3    H176921   2.953   0.599   3.977 -0.1376 -0.1692  0.7866
18502TIP3    H276922   3.067   0.626   4.073  0.2023 -0.0510  0.3537
18503TIP3   OH276923   4.234   5.691   3.508  0.7180  0.4812 -1.0202
18503TIP3    H176924   4.288   5.725   3.437 -0.4138 -1.1288 -2.7276
18503TIP3    H276925   4.263   5.600   3.519  0.4152  0.5027  0.1432
18504TIP3   OH276926   4.720   4.585   0.529  0.2601  0.0327 -0.7214
18504TIP3    H176927   4.776   4.663   0.527 -1.7751  1.6310  0.2043
18504TIP3    H276928   4.672   4.588   0.446 -0.2941  0.1450 -0.3990
18505TIP3   OH276929   1.051   0.780  13.174  0.4730  0.0785 -0.0501
18505TIP3    H176930   1.013   0.715  13.114 -1.7514  1.2267 -0.0100
18505TIP3    H276931   1.040   0.863  13.127 -0.7083  0.9199  1.6223
18506TIP3   OH276932   6.387   1.654  12.074 -0.0711 -0.7396 -0.3443
18506TIP3    H176933   6.406   1.601  12.152 -0.5807  0.2920  0.5150
18506TIP3    H276934   6.465   1.708  12.062 -0.5862  0.2084  0.4112
18507TIP3   OH276935   5.485   1.377   0.716 -0.1063  0.1442  0.3140
18507TIP3    H176936   5.401   1.404   0.680  0.0182 -1.1944 -1.0494
18507TIP3    H276937   5.538   1.354   0.640  1.0831 -0.2088  1.2151
18508TIP3   OH276938   5.236   2.062   2.571  0.8034  0.7150  0.1813
18508TIP3    H176939   5.164   2.114   2.608  0.6317  0.3529  0.3604
18508TIP3    H276940   5.293   2.126   2.529  0.9493  1.1183  0.9929
18509TIP3   OH276941   3.613   1.696  14.064 -0.3866 -0.0770  0.3150
18509TIP3    H176942   3.650   1.716  14.150 -1.7652 -0.1077  0.9383
18509TIP3    H276943   3.521   1.678  14.081 -1.2177  2.0796 -1.4508
18510TIP3   OH276944   2.485   2.653   2.348 -0.3653  0.0046  0.0377
18510TIP3    H176945   2.481   2.636   2.442  0.4133 -0.5395 -0.0159
18510TIP3    H276946   2.487   2.566   2.308  0.3489  0.2305 -0.4275
18511TIP3   OH276947   0.082   3.713  16.734 -0.6601 -0.5694 -0.0114
18511TIP3    H176948  -0.012   3.728  16.743 -0.4689  1.9291 -1.2666
18511TIP3    H276949   0.091   3.664  16.652 -0.9181 -2.5981  1.1007
18512TIP3   OH276950   4.684   5.778  14.990 -0.5642  0.5726  0.4968
18512TIP3    H176951   4.673   5.696  14.943 -0.1928  1.2707 -0.8672
18512TIP3    H276952   4.759   5.820  14.949  0.1119  0.9894  2.0843
18513TIP3   OH276953   4.429   4.977  12.056  0.4158  0.1721 -0.1550
18513TIP3    H176954   4.459   5.030  12.130  1.3641 -1.1200  0.4185
18513TIP3    H276955   4.431   4.887  12.088  0.7976 -0.4198 -1.7423
18514TIP3   OH276956   5.309   6.292   5.996 -0.4305 -0.3634 -0.5553
18514TIP3    H176957   5.224   6.298   6.039 -0.7276 -0.5892 -1.0956
18514TIP3    H276958   5.328   6.381   5.966 -0.4161 -0.2877 -0.3193
18515TIP3   OH276959   0.290   4.895   0.208  0.2802  0.3731 -0.6656
18515TIP3    H176960   0.319   4.832   0.142  0.9181 -0.5687  0.4671
18515TIP3    H276961   0.230   4.844   0.263  1.1290  0.6165  0.5189
18516TIP3   OH276962   0.942   5.161  13.282 -0.7542  0.1709 -0.3979
18516TIP3    H176963   0.978   5.134  13.198 -0.1796  0.8426 -0.3895
18516TIP3    H276964   0.995   5.114  13.347 -0.4474  0.4961 -0.4033
18517TIP3   OH276965   3.068   3.590   3.437 -0.1195  0.2742  0.4457
18517TIP3    H176966   2.984   3.635   3.431  0.8595  2.0595 -0.9066
18517TIP3    H276967   3.061   3.518   3.374 -1.3370 -0.9402  1.8848
18518TIP3   OH276968   5.917   2.365   6.267 -0.7308 -0.2768 -0.0708
18518TIP3    H176969   5.826   2.335   6.273 -0.2195 -2.3183 -1.2699
18518TIP3    H276970   5.911   2.460   6.260 -2.6790 -0.2569  1.1344
18519TIP3   OH276971   2.786   4.526   3.658 -0.1840 -0.0783 -0.7291
18519TIP3    H176972   2.713   4.572   3.618 -0.0481  0.6459 -0.1774
18519TIP3    H276973   2.759   4.511   3.749  0.1898 -0.1644 -0.6274
18520TIP3   OH276974   2.023   0.189  12.502 -0.1544  0.2645  0.8571
18520TIP3    H176975   2.079   0.249  12.452  1.0619 -1.2782  0.2932
18520TIP3    H276976   1.936   0.202  12.466  0.3116  0.7990 -0.1200
18521TIP3   OH276977   4.249   4.023  11.433 -0.2158  0.2774  0.1240
18521TIP3    H176978   4.187   4.029  11.506 -3.6460  1.5340 -2.5570
18521TIP3    H276979   4.286   4.111  11.426 -2.7072  1.3148 -1.6530
18522TIP3   OH276980   4.224   2.720  13.437  0.0351  0.4395 -0.2324
18522TIP3    H176981   4.204   2.717  13.531  0.4709  0.1260 -0.1506
18522TIP3    H276982   4.197   2.808  13.410 -0.0671  0.5398  0.1908
18523TIP3   OH276983   6.619   5.486  13.075  0.6349  0.1855 -0.2889
18523TIP3    H176984   6.714   5.490  13.070  0.7236 -1.4844 -0.3789
18523TIP3    H276985   6.599   5.507  13.166  0.8342  3.4848 -0.8796
18524TIP3   OH276986   6.817   6.039   5.226 -0.0025  0.4864  0.8153
18524TIP3    H176987   6.789   6.111   5.282  2.1521  2.1426 -0.0911
18524TIP3    H276988   6.860   6.082   5.152  1.4827 -1.7418  0.2975
18525TIP3   OH276989   1.435   0.127   3.871  0.5050  0.0283 -0.2328
18525TIP3    H176990   1.509   0.113   3.930  0.5783  1.4584  0.0390
18525TIP3    H276991   1.408   0.217   3.886 -0.6727 -0.1546 -1.0498
18526TIP3   OH276992   3.355   2.924   1.841 -0.2099  0.1572 -0.2078
18526TIP3    H176993   3.301   2.986   1.890  0.7268  0.2757  0.7175
18526TIP3    H276994   3.445   2.950   1.862  0.4356  2.2023 -4.3596
18527TIP3   OH276995   2.731   2.627   4.312 -0.6218 -0.1032 -0.3102
18527TIP3    H176996   2.659   2.565   4.305  0.4276 -1.2734 -1.1890
18527TIP3    H276997   2.688   2.712   4.323 -2.2162 -0.5125 -2.6197
18528TIP3   OH276998   1.785   2.618   4.427  0.3734  0.3524  0.5280
18528TIP3    H176999   1.870   2.574   4.435  1.2439  2.0699  1.2815
18528TIP3    H277000   1.737   2.590   4.505  0.2867 -0.5224  0.1679
18529TIP3   OH277001   3.025   5.359   2.818  0.0695 -0.3529 -0.7347
18529TIP3    H177002   2.988   5.283   2.862  2.4801 -0.8245  0.6835
18529TIP3    H277003   3.069   5.323   2.741  0.7803 -0.3725 -0.3352
18530TIP3   OH277004   3.330   2.841  16.568  0.0770 -0.0878  0.2101
18530TIP3    H177005   3.245   2.853  16.526 -0.7975  0.1399  1.9729
18530TIP3    H277006   3.389   2.898  16.518 -0.4583 -1.2517 -1.8844
18531TIP3   OH277007   6.036   5.545   0.760 -0.2126 -0.1589 -0.9936
18531TIP3    H177008   6.086   5.620   0.794 -0.9754 -0.1377  0.1186
18531TIP3    H277009   6.094   5.507   0.694  2.9459 -2.2949  2.6161
18532TIP3   OH277010   4.000   6.166  13.700  0.6174  0.1200  0.1519
18532TIP3    H177011   4.016   6.258  13.681  0.9279 -0.0653 -0.4981
18532TIP3    H277012   3.937   6.138  13.634  1.6671 -0.5153 -0.5971
18533TIP3   OH277013   3.286   5.252  16.064 -0.2215  0.5255  0.5152
18533TIP3    H177014   3.219   5.312  16.099 -0.5838  0.0958  0.5770
18533TIP3    H277015   3.285   5.268  15.970 -1.5319 -0.5699  0.3117
18534TIP3   OH277016   0.419   2.269  12.969  0.5274  0.5114  0.7921
18534TIP3    H177017   0.485   2.209  12.936 -0.6599 -1.4618  1.8473
18534TIP3    H277018   0.362   2.287  12.894 -0.6778 -1.8928  1.0640
18535TIP3   OH277019   2.610   6.559  12.336  0.4991  0.1042  0.4542
18535TIP3    H177020   2.516   6.571  12.324  0.1945 -1.4576  1.1018
18535TIP3    H277021   2.620   6.467  12.359  2.1760  0.2869  0.5764
18536TIP3   OH277022   0.119   4.042   1.045  0.3895 -0.2897  0.0224
18536TIP3    H177023   0.038   3.994   1.061  0.5335 -0.7458 -0.5950
18536TIP3    H277024   0.188   3.983   1.074  0.5787 -0.5452 -0.9330
18537TIP3   OH277025   4.446   5.574  15.640 -0.2072 -0.0339  0.0295
18537TIP3    H177026   4.403   5.656  15.614  0.7212  0.5320  0.2570
18537TIP3    H277027   4.427   5.515  15.567 -0.3705  0.5638 -0.4300
18538TIP3   OH277028   6.278   4.707  12.487  0.1982 -0.1763 -0.3950
18538TIP3    H177029   6.286   4.780  12.548  2.3540 -0.5628 -0.1548
18538TIP3    H277030   6.204   4.731  12.431 -1.2493  0.6109  1.7459
18539TIP3   OH277031   5.232   5.244  12.088  0.2183 -0.1033 -0.4276
18539TIP3    H177032   5.307   5.186  12.100  1.3919  1.1220 -1.5937
18539TIP3    H277033   5.222   5.289  12.172  1.6025  0.6418 -0.6394
18540TIP3   OH277034   0.097   4.784   0.475 -0.0576  0.0388  0.6626
18540TIP3    H177035   0.079   4.863   0.424  0.7002  0.3244  0.8192
18540TIP3    H277036   0.011   4.757   0.508 -0.5383 -0.0649 -0.6088
18541TIP3   OH277037   2.064   5.469  12.653  0.2061  0.0942 -0.6228
18541TIP3    H177038   2.101   5.382  12.637  0.8115  0.3450 -0.6272
18541TIP3    H277039   1.970   5.455  12.651  0.2546 -0.9721  1.4660
18542TIP3   OH277040   4.774   5.204   1.081  0.1559 -0.4599  0.3467
18542TIP3    H177041   4.864   5.193   1.052 -0.3912 -0.9195 -1.2736
18542TIP3    H277042   4.723   5.213   1.001 -1.5585 -2.5724  1.0889
18543TIP3   OH277043   5.607   2.323  14.726  0.1315 -0.7692 -0.3037
18543TIP3    H177044   5.571   2.238  14.752 -2.4106  0.2446 -0.1902
18543TIP3    H277045   5.558   2.346  14.648  1.1725  0.3776 -0.6431
18544TIP3   OH277046   0.960   0.332  13.130  0.3377  0.0375 -0.5692
18544TIP3    H177047   1.005   0.250  13.111  1.5137  0.9572 -2.0303
18544TIP3    H277048   0.974   0.346  13.223 -0.6328 -1.8113 -0.0960
18545TIP3   OH277049   2.768   3.744   5.556  0.4768 -0.1305  0.0359
18545TIP3    H177050   2.817   3.752   5.638  0.9275  0.9244 -0.3191
18545TIP3    H277051   2.830   3.706   5.494  0.0043 -1.3352  0.2858
18546TIP3   OH277052   5.345   6.277  13.630 -0.2184 -0.0515  0.8583
18546TIP3    H177053   5.253   6.253  13.639 -0.5444  0.6360 -0.4113
18546TIP3    H277054   5.378   6.222  13.559 -0.3929  1.5859 -0.5553
18547TIP3   OH277055   2.754   3.109  13.022 -0.3309  0.3195  0.4365
18547TIP3    H177056   2.770   3.019  12.995 -0.8560  0.0336  1.0723
18547TIP3    H277057   2.835   3.155  13.001 -0.2206 -0.1983 -0.3066
18548TIP3   OH277058   1.041   2.709  13.282  0.0283  0.0098 -0.0763
18548TIP3    H177059   0.957   2.754  13.290  0.8116  1.3945  0.7201
18548TIP3    H277060   1.051   2.693  13.188 -0.6081  0.8597 -0.3007
18549TIP3   OH277061   2.300   4.229  15.334  0.4542 -0.5661 -0.1112
18549TIP3    H177062   2.299   4.325  15.336  1.0868 -0.4931 -1.7082
18549TIP3    H277063   2.218   4.205  15.293 -0.0375 -0.7651  0.9514
18550TIP3   OH277064   2.143   6.011  13.550  0.1925  0.6331 -0.2440
18550TIP3    H177065   2.055   5.977  13.534  0.4332 -0.4377  0.5927
18550TIP3    H277066   2.143   6.034  13.643  1.1026 -0.3799  0.0288
18551TIP3   OH277067   4.530   1.778   5.872  0.2800 -0.4070  0.3120
18551TIP3    H177068   4.488   1.734   5.946  0.9203 -0.9362  0.3652
18551TIP3    H277069   4.558   1.863   5.907  0.6222 -0.6742  0.6883
18552TIP3   OH277070   2.677   1.523  16.592 -0.5169 -0.2663 -0.5576
18552TIP3    H177071   2.728   1.442  16.599  0.6884  0.3006 -2.2202
18552TIP3    H277072   2.609   1.503  16.528 -0.5363 -0.1235 -0.5829
18553TIP3   OH277073   3.706   3.061   1.006  0.0411  0.5222  0.1700
18553TIP3    H177074   3.720   3.140   0.954  1.7970  0.2266  0.1233
18553TIP3    H277075   3.760   2.994   0.963  1.8159  0.3447  2.4650
18554TIP3   OH277076   2.627   4.828  15.027 -0.6508 -0.3303 -0.2358
18554TIP3    H177077   2.593   4.914  15.053  0.0675 -0.3150  0.6903
18554TIP3    H277078   2.676   4.797  15.103 -1.1187 -1.6853 -0.4566
18555TIP3   OH277079   0.302   2.338   3.939  0.0231 -0.2472  0.0813
18555TIP3    H177080   0.274   2.368   3.853 -0.5005  0.6233  0.5352
18555TIP3    H277081   0.390   2.304   3.925  0.5290  1.2086 -0.5510
18556TIP3   OH277082   2.544   2.150   1.709  0.1812 -0.2044  0.0849
18556TIP3    H177083   2.554   2.067   1.663 -0.8448 -0.1862 -0.2111
18556TIP3    H277084   2.514   2.125   1.797  1.1252 -0.1918  0.4232
18557TIP3   OH277085   2.792   6.071   6.129 -0.2458 -0.6384  0.0833
18557TIP3    H177086   2.780   6.126   6.206  0.0992 -1.6632  0.8893
18557TIP3    H277087   2.856   6.005   6.156 -0.0006 -0.9226 -1.1337
18558TIP3   OH277088   0.174   0.959  17.108 -0.2242 -0.0086 -0.2199
18558TIP3    H177089   0.204   0.873  17.135  4.0048  0.7542 -1.7981
18558TIP3    H277090   0.142   0.947  17.018  2.3935  0.2795 -1.2678
18559TIP3   OH277091   2.632   1.350  14.564 -0.0637  0.2402 -0.3231
18559TIP3    H177092   2.627   1.399  14.646  2.1511  0.2787 -0.1556
18559TIP3    H277093   2.672   1.411  14.502 -0.8043 -0.1195 -1.1760
18560TIP3   OH277094   2.376   3.726   5.753 -0.0835  0.5062  0.3634
18560TIP3    H177095   2.324   3.649   5.729  2.4094 -1.7062  1.5771
18560TIP3    H277096   2.365   3.786   5.679 -0.5273 -1.8682 -1.6319
18561TIP3   OH277097   4.834   2.657   1.897 -0.5661 -0.6544 -0.4025
18561TIP3    H177098   4.902   2.674   1.962 -0.3227  0.0890 -0.8330
18561TIP3    H277099   4.882   2.647   1.815 -0.9254 -0.8602 -0.5903
18562TIP3   OH277100   3.248   5.465  10.946 -0.1223  0.2364  0.3377
18562TIP3    H177101   3.340   5.462  10.970 -0.1063 -0.6058  0.2087
18562TIP3    H277102   3.220   5.554  10.967  1.2415  1.1808 -1.5545
18563TIP3   OH277103   6.007   6.445  15.661 -0.0752  0.0237 -0.2580
18563TIP3    H177104   5.936   6.481  15.713 -0.9798 -2.3959  0.2795
18563TIP3    H277105   5.968   6.429  15.575  0.9634  2.3942 -1.2797
18564TIP3   OH277106   5.140   2.258  11.741 -0.4512 -0.3498 -0.8737
18564TIP3    H177107   5.159   2.236  11.832 -0.1679  0.7014 -0.6602
18564TIP3    H277108   5.065   2.204  11.718 -1.8444  0.8489  0.6406
18565TIP3   OH277109   6.023   3.647  13.559  0.3182  0.1687  0.0302
18565TIP3    H177110   6.108   3.613  13.588  0.1372 -0.2468  0.0818
18565TIP3    H277111   5.976   3.667  13.640  0.6419  1.1069 -0.0017
18566TIP3   OH277112   1.522   5.087  14.639 -0.4501 -0.1606  0.6442
18566TIP3    H177113   1.475   5.079  14.722  0.6914 -1.5406  1.2162
18566TIP3    H277114   1.611   5.109  14.665  0.0235 -1.0558 -0.1577
18567TIP3   OH277115   4.379   0.595   1.923  0.3513 -0.2992 -0.0680
18567TIP3    H177116   4.318   0.583   1.996 -0.9122 -0.1690 -1.0624
18567TIP3    H277117   4.445   0.656   1.956 -1.1435  1.1199  0.4585
18568TIP3   OH277118   4.174   3.819  14.865 -0.1609  0.8691 -0.1771
18568TIP3    H177119   4.125   3.739  14.882  0.4140  0.3423 -0.9642
18568TIP3    H277120   4.107   3.885  14.847 -0.7945  1.2135  2.7747
18569TIP3   OH277121   1.087   2.703  14.492 -0.6135  1.3100 -0.3698
18569TIP3    H177122   1.035   2.680  14.415 -0.1790  0.5906 -0.4498
18569TIP3    H277123   1.104   2.620  14.537  1.3984  1.3677 -0.9327
18570TIP3   OH277124   0.275   3.792   5.504 -0.2076  0.4080 -0.5545
18570TIP3    H177125   0.344   3.857   5.492 -0.1256  0.3615 -0.3372
18570TIP3    H277126   0.212   3.835   5.563 -0.5888  0.6226 -1.1045
18571TIP3   OH277127   5.810   2.137   6.499 -0.1460  0.1962  0.3629
18571TIP3    H177128   5.808   2.228   6.528 -1.0126  0.7428 -1.2510
18571TIP3    H277129   5.720   2.106   6.511  0.6415 -1.3434  3.3165
18572TIP3   OH277130   1.850   5.650   2.068 -0.5579 -0.0069 -0.3274
18572TIP3    H177131   1.811   5.711   2.005  1.5806  1.6536 -0.1614
18572TIP3    H277132   1.824   5.683   2.153  1.4958  1.4263 -0.1958
18573TIP3   OH277133   0.856   2.824   2.880 -0.3749  0.2541 -0.3649
18573TIP3    H177134   0.862   2.833   2.785 -1.9557  0.8865 -0.4371
18573TIP3    H277135   0.839   2.913   2.911  0.7100  0.1493  0.5806
18574TIP3   OH277136   3.510   4.130   0.161  0.1881 -0.0813  0.4095
18574TIP3    H177137   3.534   4.138   0.068 -0.2925  0.4106  0.3212
18574TIP3    H277138   3.479   4.040   0.170 -0.9118  0.2096 -0.1969
18575TIP3   OH277139   4.535   6.398   5.361 -0.3129 -0.0762  0.3844
18575TIP3    H177140   4.589   6.319   5.352  1.2113  1.0534 -0.7800
18575TIP3    H277141   4.505   6.417   5.272  1.1723  1.8742  0.2396
18576TIP3   OH277142   0.375   1.719   4.140 -0.1670 -0.3416 -0.5690
18576TIP3    H177143   0.379   1.651   4.207  0.0631  0.4366  0.2274
18576TIP3    H277144   0.325   1.679   4.068 -0.8545 -1.0153  0.2608
18577TIP3   OH277145   4.493   0.553  14.522 -0.2837  0.3624  0.0179
18577TIP3    H177146   4.469   0.484  14.583  0.3782  0.6529  0.6160
18577TIP3    H277147   4.422   0.554  14.458 -0.2531 -0.9157 -0.0436
18578TIP3   OH277148   6.400   2.125  17.004 -0.0239 -0.4110  0.1798
18578TIP3    H177149   6.378   2.033  16.992  3.1677 -1.5510  1.7501
18578TIP3    H277150   6.374   2.145  17.094  1.2587 -0.5022  0.5954
18579TIP3   OH277151   6.653   6.454   4.472  0.0977 -0.0288 -0.3245
18579TIP3    H177152   6.702   6.375   4.495 -1.3424 -1.1829 -1.0052
18579TIP3    H277153   6.617   6.484   4.556  0.6158 -0.1159 -0.0642
18580TIP3   OH277154   1.000   4.490   1.266 -0.3779  0.2252  0.2344
18580TIP3    H177155   1.083   4.526   1.235 -0.5257  0.1676 -0.2314
18580TIP3    H277156   0.972   4.550   1.335  0.2346  0.0353  0.6576
18581TIP3   OH277157   0.431   6.225   1.212 -0.0220  0.0793  0.0254
18581TIP3    H177158   0.341   6.256   1.212  0.1978  0.7965 -1.3249
18581TIP3    H277159   0.462   6.240   1.302 -1.1692 -0.0002  0.4514
18582TIP3   OH277160   4.200   3.801  11.213  0.5422  0.1531  0.2681
18582TIP3    H177161   4.243   3.720  11.240  3.8270  1.6461  0.0852
18582TIP3    H277162   4.200   3.856  11.292 -0.1038  0.5617 -0.0100
18583TIP3   OH277163   4.639   1.275   1.484 -0.5726 -0.6690 -0.3201
18583TIP3    H177164   4.694   1.335   1.433  0.1030 -0.9759  0.0274
18583TIP3    H277165   4.605   1.213   1.420 -2.3964  0.8495 -0.9196
18584TIP3   OH277166   2.027   6.304   3.140 -0.4412 -0.2252  0.2061
18584TIP3    H177167   1.941   6.263   3.157 -0.9161  0.2867 -0.8817
18584TIP3    H277168   2.006   6.392   3.109  0.5385  0.3696  1.1667
18585TIP3   OH277169   6.817   0.393  13.864  0.1361  0.2181 -0.2042
18585TIP3    H177170   6.752   0.443  13.814  0.1806  0.3909 -0.0907
18585TIP3    H277171   6.826   0.441  13.946  1.8614  1.3430 -0.9734
18586TIP3   OH277172   4.575   1.612  14.293 -0.5967 -0.4051 -0.6456
18586TIP3    H177173   4.620   1.693  14.271 -2.1563 -0.1401 -3.3213
18586TIP3    H277174   4.482   1.632  14.284 -1.0454 -2.3471 -0.9202
18587TIP3   OH277175   4.962   3.866   1.680 -0.7524 -1.1811 -0.0592
18587TIP3    H177176   4.960   3.940   1.619  0.4765 -1.6303 -0.6713
18587TIP3    H277177   4.917   3.899   1.758 -0.8972 -0.0458 -0.5914
18588TIP3   OH277178   1.053   5.302  12.632 -0.3314 -0.0566 -0.1908
18588TIP3    H177179   1.042   5.375  12.694 -2.8294 -0.7413  0.2882
18588TIP3    H277180   0.989   5.237  12.660 -0.1303 -1.2577 -2.3226
18589TIP3   OH277181   0.689   5.088  13.427  0.1330  0.4217  0.3151
18589TIP3    H177182   0.767   5.125  13.386 -0.3759  0.1840 -0.9169
18589TIP3    H277183   0.640   5.163  13.460 -0.5260  0.8403 -1.5103
18590TIP3   OH277184   6.323   4.697  11.585 -0.1713 -0.3256 -1.1072
18590TIP3    H177185   6.348   4.785  11.611 -0.4590 -0.8502  1.1830
18590TIP3    H277186   6.245   4.709  11.530  0.7213  0.8960 -2.1369
18591TIP3   OH277187   4.697   2.980  13.154  0.2080  0.6501  0.8134
18591TIP3    H177188   4.701   2.982  13.249  1.8089 -2.0148  0.8940
18591TIP3    H277189   4.759   2.912  13.128  0.0456  1.4821 -2.1704
18592TIP3   OH277190   5.370   0.544  14.683  0.3787  0.2711 -0.1156
18592TIP3    H177191   5.323   0.471  14.722 -0.2957  0.9004  0.2785
18592TIP3    H277192   5.444   0.559  14.743  1.2321 -0.8474 -0.8458
18593TIP3   OH277193   4.764   1.427   5.586  0.3084  0.1754 -0.1187
18593TIP3    H177194   4.688   1.374   5.610 -1.2472  1.0639 -2.7058
18593TIP3    H277195   4.764   1.499   5.649 -0.8859  0.0531  0.0487
18594TIP3   OH277196   3.444   3.025   3.417  0.5517 -0.2510 -0.1848
18594TIP3    H177197   3.379   2.996   3.353  1.5922  0.2225 -1.4870
18594TIP3    H277198   3.393   3.075   3.481 -0.5935 -1.2155 -0.3106
18595TIP3   OH277199   5.710   3.964   5.375  0.0998 -0.4297 -0.0021
18595TIP3    H177200   5.669   3.907   5.310  1.8266 -0.2293 -1.3275
18595TIP3    H277201   5.761   3.905   5.430 -0.2623 -0.4440  0.3242
18596TIP3   OH277202   1.091   2.542   0.692  0.2098 -0.1401 -0.4912
18596TIP3    H177203   1.075   2.634   0.670 -0.4513 -0.5851 -2.0172
18596TIP3    H277204   1.017   2.495   0.653  0.3464 -1.2963  0.5834
18597TIP3   OH277205   3.621   6.058  16.455 -0.0759  0.3208  0.5517
18597TIP3    H177206   3.598   6.148  16.432  0.1399  0.2168 -0.0683
18597TIP3    H277207   3.668   6.024  16.379 -0.6264 -0.4947  0.5634
18598TIP3   OH277208   2.705   6.546  14.855  0.4955  0.3784 -0.1574
18598TIP3    H177209   2.696   6.607  14.782  0.3479 -0.2249 -0.6533
18598TIP3    H277210   2.795   6.559  14.886  0.9834 -0.2199 -1.2472
18599TIP3   OH277211   2.230   2.948   4.378 -0.2375 -0.2723 -0.3615
18599TIP3    H177212   2.164   2.891   4.339  0.4593 -0.6752 -0.9661
18599TIP3    H277213   2.312   2.899   4.371  0.0805  0.0732  0.6946
18600TIP3   OH277214   3.615   2.842  16.161 -0.5650 -0.6933  0.3576
18600TIP3    H177215   3.676   2.910  16.189 -0.7747 -0.2011 -0.3360
18600TIP3    H277216   3.646   2.815  16.074 -1.5929 -0.0843 -0.2251
18601TIP3   OH277217   3.638   0.476   6.446  0.6124  0.1997  0.4776
18601TIP3    H177218   3.649   0.474   6.541  0.5491 -1.7805  0.4851
18601TIP3    H277219   3.674   0.393   6.416  3.4284  1.9758 -1.5852
18602TIP3   OH277220   3.036   0.264   1.307  0.0107  0.0786  0.3417
18602TIP3    H177221   2.948   0.250   1.274  0.9643 -1.7529 -1.6210
18602TIP3    H277222   3.089   0.281   1.230  2.0108 -2.5353  1.0018
18603TIP3   OH277223   3.776   3.711   3.552  0.4909  0.0273 -0.3761
18603TIP3    H177224   3.729   3.642   3.599 -0.2992 -0.0828 -1.2935
18603TIP3    H277225   3.744   3.792   3.591 -0.8452 -0.0255 -1.2894
18604TIP3   OH277226   3.718   2.412   4.361 -0.6620  0.0884 -0.0388
18604TIP3    H177227   3.686   2.411   4.451 -0.3146  2.0008  0.1589
18604TIP3    H277228   3.778   2.338   4.355 -1.6924 -0.8553  0.8972
18605TIP3   OH277229   1.790   0.766   1.199  0.3173  0.1086  0.3926
18605TIP3    H177230   1.766   0.725   1.282 -0.2405 -0.0333  0.1662
18605TIP3    H277231   1.708   0.767   1.149  0.0887  2.3100  0.7171
18606TIP3   OH277232   6.775   0.916  14.221  0.1036 -0.2309  0.2173
18606TIP3    H177233   6.736   0.832  14.197 -0.3477 -0.7575  2.5366
18606TIP3    H277234   6.834   0.895  14.294 -0.7811  1.5724  1.5197
18607TIP3   OH277235   0.387   1.957   1.862  0.7296  0.2436  0.1088
18607TIP3    H177236   0.422   2.042   1.890  0.1442  0.4752  0.1541
18607TIP3    H277237   0.390   1.960   1.767  3.4212 -0.8347  0.0746
18608TIP3   OH277238   1.081   6.201   1.715 -0.1732  0.2671 -0.1283
18608TIP3    H177239   0.987   6.184   1.701 -0.4145  0.6106  0.9498
18608TIP3    H277240   1.102   6.152   1.794  0.7506 -0.4027 -0.7732
18609TIP3   OH277241   5.055   2.087   6.136  0.3564 -0.5666  1.0531
18609TIP3    H177242   5.112   2.025   6.182 -0.0058 -0.6551  1.3860
18609TIP3    H277243   4.984   2.104   6.197 -0.7370 -1.5522  0.0909
18610TIP3   OH277244   5.079   6.486   2.304 -0.1657  0.1138 -0.1743
18610TIP3    H177245   5.168   6.491   2.270  0.4686 -1.6969  1.0545
18610TIP3    H277246   5.037   6.417   2.252 -0.1523 -0.5111  0.6150
18611TIP3   OH277247   3.697   5.911   2.766 -0.2623 -0.1652  0.0091
18611TIP3    H177248   3.756   5.949   2.701  0.2391  0.3692  0.7607
18611TIP3    H277249   3.692   5.976   2.836  0.1569 -1.2211  1.0682
18612TIP3   OH277250   0.184   5.766   3.591 -0.0536  0.4247 -0.1561
18612TIP3    H177251   0.153   5.705   3.658  1.2632 -1.6596 -1.3306
18612TIP3    H277252   0.121   5.758   3.520  0.3703  0.0683 -0.4963
18613TIP3   OH277253   5.283   4.141  11.693  0.1306 -0.1486 -0.1682
18613TIP3    H177254   5.379   4.143  11.692  0.1566 -0.9711 -0.6178
18613TIP3    H277255   5.260   4.094  11.612 -0.6764  0.7531 -0.4707
18614TIP3   OH277256   0.735   6.244  13.139  0.1250  0.1260 -0.0688
18614TIP3    H177257   0.827   6.255  13.161  0.0891  1.8646 -0.6620
18614TIP3    H277258   0.718   6.310  13.072 -1.3294 -0.7906 -0.6530
18615TIP3   OH277259   6.157   6.059   4.701 -0.4387 -0.3913 -0.4130
18615TIP3    H177260   6.236   6.049   4.754  1.4480  1.7771 -2.5790
18615TIP3    H277261   6.086   6.066   4.765  1.1309 -1.9309  1.6419
18616TIP3   OH277262   6.147   4.527   1.428  0.5708 -0.4892  0.5433
18616TIP3    H177263   6.169   4.620   1.434  1.3800 -0.5603 -0.9353
18616TIP3    H277264   6.091   4.511   1.504  1.3783  0.9210  1.4741
18617TIP3   OH277265   2.229   2.655  14.292  0.0461 -0.0133 -0.6546
18617TIP3    H177266   2.298   2.594  14.320  1.3850  1.6579 -0.0897
18617TIP3    H277267   2.243   2.666  14.198  0.4511  0.1631 -0.5790
18618TIP3   OH277268   1.313   4.529  15.505  0.8424 -0.0159 -0.0718
18618TIP3    H177269   1.271   4.524  15.420  1.9866  0.9875 -0.7470
18618TIP3    H277270   1.245   4.560  15.565  0.2872  0.2589 -0.8424
18619TIP3   OH277271   6.560   4.519   2.992  0.1525  0.0755 -0.8582
18619TIP3    H177272   6.612   4.447   3.028  0.2113  0.6144  0.1968
18619TIP3    H277273   6.594   4.597   3.036 -1.4631  0.4544 -0.1913
18620TIP3   OH277274   3.807   4.006  13.939 -0.2339  0.2948 -0.0087
18620TIP3    H177275   3.777   3.987  13.850 -0.5756 -0.3626  0.2442
18620TIP3    H277276   3.853   4.090  13.931 -0.9918  0.6611 -0.6455
18621TIP3   OH277277   2.860   4.941  12.677  0.0899  0.0623  0.2682
18621TIP3    H177278   2.863   4.933  12.772 -2.0612 -0.2111  0.3817
18621TIP3    H277279   2.888   4.856  12.644 -0.7442 -0.4094  0.7413
18622TIP3   OH277280   4.872   6.037  16.946 -0.6439 -0.0071  0.3450
18622TIP3    H177281   4.808   5.976  16.909 -0.1685  0.7377 -1.8173
18622TIP3    H277282   4.821   6.092  17.006 -1.3417 -1.5660  1.2440
18623TIP3   OH277283   0.780   2.550  12.654 -0.3458 -0.2826  0.3246
18623TIP3    H177284   0.875   2.536  12.654 -0.2017  0.6716 -0.4017
18623TIP3    H277285   0.760   2.571  12.745 -0.2104 -2.5952  0.9649
18624TIP3   OH277286   3.259   2.250   0.804 -0.1052  0.0419  0.7803
18624TIP3    H177287   3.299   2.299   0.732 -0.9295  1.0149  0.9822
18624TIP3    H277288   3.255   2.312   0.877 -1.8500 -0.0727  0.8125
18625TIP3   OH277289   2.333   2.416  10.816  0.1998  0.2874  0.2451
18625TIP3    H177290   2.350   2.510  10.824  0.2199  0.2408  0.8056
18625TIP3    H277291   2.329   2.400  10.722  1.9732  0.5382  0.0829
18626TIP3   OH277292   2.443   2.055   1.953 -0.1091  0.0744  0.1593
18626TIP3    H177293   2.404   2.118   2.013  0.6686  1.4852 -0.7840
18626TIP3    H277294   2.374   1.989   1.940 -0.8504  0.5884  1.3256
18627TIP3   OH277295   1.644   1.901  13.732 -0.5451  0.5623 -0.0695
18627TIP3    H177296   1.584   1.961  13.777 -0.2937  2.2788 -1.8696
18627TIP3    H277297   1.731   1.925  13.764 -0.6014 -0.3766  0.8381
18628TIP3   OH277298   4.305   2.775   0.053 -0.0073  0.3656  0.0777
18628TIP3    H177299   4.285   2.868   0.044  1.6882  0.9344  1.7008
18628TIP3    H277300   4.253   2.747   0.129  0.4948  0.3223  0.4082
18629TIP3   OH277301   4.893   6.765  11.191  0.3970 -0.2302 -1.0751
18629TIP3    H177302   4.969   6.808  11.151  1.7567 -0.4383  1.1593
18629TIP3    H277303   4.913   6.763  11.284 -2.5756  0.0912 -0.3505
18630TIP3   OH277304   2.015   6.098   6.653  0.4612 -0.2582  0.6034
18630TIP3    H177305   1.942   6.038   6.633 -0.4058  0.6271  1.0230
18630TIP3    H277306   2.093   6.045   6.642 -0.2816 -1.4372  0.8056
18631TIP3   OH277307   2.558   3.872  14.578 -0.4258  0.3855 -0.3261
18631TIP3    H177308   2.566   3.904  14.668 -1.4375  1.3106 -0.5394
18631TIP3    H277309   2.465   3.880  14.557 -0.0721  1.1625 -1.7870
18632TIP3   OH277310   4.895   2.845   1.270 -0.0317  0.7306  0.1893
18632TIP3    H177311   4.805   2.842   1.239  0.7376  1.7310 -2.3511
18632TIP3    H277312   4.898   2.924   1.325 -1.0080 -0.1180  1.5238
18633TIP3   OH277313   4.285   1.709   3.950 -0.2375 -0.2617  0.1398
18633TIP3    H177314   4.290   1.656   4.030 -2.2796  0.2248  0.6442
18633TIP3    H277315   4.198   1.691   3.914 -0.0784  0.9712 -0.9499
18634TIP3   OH277316   5.283   6.483  12.085  0.4924  0.4656 -0.2878
18634TIP3    H177317   5.352   6.547  12.103  2.5831 -1.2250 -1.6213
18634TIP3    H277318   5.304   6.409  12.143 -1.3692  0.6145  0.6354
18635TIP3   OH277319   0.872   1.097   4.361 -0.9000  1.2034  0.1165
18635TIP3    H177320   0.782   1.076   4.386 -0.4099 -0.3043  0.7616
18635TIP3    H277321   0.896   1.172   4.415 -0.8547 -0.1641  2.1452
18636TIP3   OH277322   3.829   1.034  16.709 -0.8072  0.4538 -0.5793
18636TIP3    H177323   3.920   1.040  16.680 -0.5468  0.8418  0.3000
18636TIP3    H277324   3.778   1.047  16.629 -0.0969 -0.4768 -1.2088
18637TIP3   OH277325   1.368   1.812  16.743 -0.7857  0.0922 -0.0214
18637TIP3    H177326   1.446   1.869  16.741  0.2788 -1.2267  1.3625
18637TIP3    H277327   1.390   1.745  16.807 -0.7335 -3.6461 -3.5459
18638TIP3   OH277328   2.997   0.619  13.871  0.2231 -0.6851  0.2948
18638TIP3    H177329   2.918   0.614  13.925 -1.0389 -3.6343 -1.5368
18638TIP3    H277330   2.980   0.559  13.798  3.0626  0.7180 -1.7336
18639TIP3   OH277331   3.311   6.789  14.042 -0.4665  0.3737 -0.2903
18639TIP3    H177332   3.365   6.715  14.014  0.1526  0.2852  1.0675
18639TIP3    H277333   3.371   6.846  14.089 -1.1687  1.2067 -0.3849
18640TIP3   OH277334   1.184   4.989  14.580 -0.2707  0.2979 -0.0762
18640TIP3    H177335   1.234   4.997  14.499 -1.4085  1.5018 -0.6986
18640TIP3    H277336   1.192   5.075  14.621 -0.6021  0.0333  0.5564
18641TIP3   OH277337   3.398   5.667  13.388  0.4187  0.2361  0.7894
18641TIP3    H177338   3.304   5.653  13.390 -0.0085  2.0460 -1.8652
18641TIP3    H277339   3.411   5.754  13.426  0.7497  0.7914 -0.5269
18642TIP3   OH277340   6.648   3.869   2.818 -0.2955 -0.2958 -0.9477
18642TIP3    H177341   6.598   3.840   2.741 -3.2454 -0.1887  0.7575
18642TIP3    H277342   6.631   3.801   2.884  1.7295 -0.1343 -0.1906
18643TIP3   OH277343   3.811   1.132  13.085 -0.2699 -1.0912 -0.0973
18643TIP3    H177344   3.847   1.216  13.058  1.6321 -1.7019  0.3635
18643TIP3    H277345   3.729   1.124  13.036 -0.6170  1.0902 -0.0083
18644TIP3   OH277346   0.550   3.178  13.514 -0.2343 -0.4573 -0.0854
18644TIP3    H177347   0.591   3.095  13.488  0.8294  0.2923 -0.9095
18644TIP3    H277348   0.570   3.186  13.608  1.9242  0.0670 -0.5334
18645TIP3   OH277349   1.814   2.897   2.986  0.1821 -0.2900  0.1200
18645TIP3    H177350   1.771   2.829   2.934  2.5422 -1.3568 -0.6281
18645TIP3    H277351   1.747   2.928   3.046 -1.2999 -2.5605 -0.2263
18646TIP3   OH277352   4.691   1.107   3.517 -0.3759 -0.0081  0.0453
18646TIP3    H177353   4.670   1.122   3.425  0.5115  1.2874  0.0264
18646TIP3    H277354   4.629   1.160   3.566 -2.0809 -2.1225  0.3243
18647TIP3   OH277355   3.866   5.676  11.022 -0.5438 -0.5902  0.2311
18647TIP3    H177356   3.941   5.730  10.997  0.1811 -1.5163  0.3524
18647TIP3    H277357   3.802   5.689  10.951 -0.4591  0.5330  0.3362
18648TIP3   OH277358   6.197   4.135   5.119 -0.6549  0.1231 -0.1916
18648TIP3    H177359   6.121   4.191   5.130 -0.9248 -0.5306  1.6007
18648TIP3    H277360   6.217   4.103   5.207  0.6721 -1.0528 -0.8664
18649TIP3   OH277361   4.866   2.637   0.456  0.1100 -0.5278 -0.0708
18649TIP3    H177362   4.791   2.665   0.403  0.0291 -0.2467  0.1877
18649TIP3    H277363   4.831   2.625   0.544  0.2538 -0.9433 -0.0690
18650TIP3   OH277364   4.272   4.831   4.066 -0.3227  0.3501 -0.2702
18650TIP3    H177365   4.357   4.838   4.023 -0.7064 -1.2029 -1.3722
18650TIP3    H277366   4.292   4.793   4.152 -0.0041 -1.4940 -1.1137
18651TIP3   OH277367   3.185   3.866  11.796 -0.1332  0.3788  0.2615
18651TIP3    H177368   3.115   3.898  11.739 -0.3776 -1.5982 -0.6197
18651TIP3    H277369   3.146   3.869  11.884 -1.5846 -1.2404 -0.2815
18652TIP3   OH277370   4.295   0.784  12.289  0.3234  0.1474  0.1456
18652TIP3    H177371   4.351   0.799  12.213  0.1259  0.8897  0.1424
18652TIP3    H277372   4.324   0.849  12.353 -1.7264  1.7889 -0.5025
18653TIP3   OH277373   0.224   2.544  12.529  0.0934  0.0668  0.1941
18653TIP3    H177374   0.299   2.523  12.585 -0.4131 -1.4297  0.3706
18653TIP3    H277375   0.154   2.486  12.560 -0.4106 -0.3225 -1.5231
18654TIP3   OH277376   1.184   5.950  14.813  0.2462 -0.6377 -0.3754
18654TIP3    H177377   1.166   6.021  14.874 -0.9656 -1.5424  0.3478
18654TIP3    H277378   1.263   5.979  14.766 -0.0755  1.0553  0.0619
18655TIP3   OH277379   6.579   5.286   5.346 -0.2838 -0.6054 -0.0107
18655TIP3    H177380   6.616   5.367   5.311  0.0488 -0.4740  0.6362
18655TIP3    H277381   6.622   5.274   5.430 -2.2604 -0.0056  1.1693
18656TIP3   OH277382   5.890   5.757   6.346 -0.2610 -0.0606 -0.2532
18656TIP3    H177383   5.833   5.739   6.420  0.8778 -4.2852 -0.1247
18656TIP3    H277384   5.833   5.752   6.270 -0.7892  0.1504  0.1260
18657TIP3   OH277385   0.851   5.797   2.062 -0.3156 -0.0628  0.0271
18657TIP3    H177386   0.765   5.836   2.042  0.0941  1.1325  0.5212
18657TIP3    H277387   0.898   5.866   2.108  0.5243 -1.0922  0.7401
18658TIP3   OH277388   6.377   0.076   3.978  0.6245  0.3089 -0.8581
18658TIP3    H177389   6.405   0.005   4.037  1.3948  1.9781  0.8874
18658TIP3    H277390   6.460   0.113   3.946  0.2595  0.9557 -1.0599
18659TIP3   OH277391   5.257   3.246  13.104 -0.3300 -0.3316 -0.0719
18659TIP3    H177392   5.326   3.311  13.089 -0.2776 -0.7383 -1.7829
18659TIP3    H277393   5.293   3.189  13.171  1.1318 -0.6688 -1.0801
18660TIP3   OH277394   2.185   2.303   4.075  0.8552  0.4904 -0.3400
18660TIP3    H177395   2.220   2.272   3.991  1.3538 -0.1417  0.0834
18660TIP3    H277396   2.143   2.226   4.113  1.4779  0.5065  0.4115
18661TIP3   OH277397   2.658   0.673   6.115  0.0017 -0.7581 -0.1715
18661TIP3    H177398   2.620   0.621   6.045  0.3401 -0.4166 -0.6175
18661TIP3    H277399   2.615   0.759   6.107 -0.2172 -0.8250  0.2640
18662TIP3   OH277400   2.975   3.369  14.226  0.4962  0.3476 -0.5978
18662TIP3    H177401   2.925   3.327  14.296  0.2044 -1.5560 -1.8772
18662TIP3    H277402   2.926   3.449  14.206 -0.4999 -0.0797  0.0374
18663TIP3   OH277403   4.864   1.124   0.422 -0.5519  0.2736 -0.4389
18663TIP3    H177404   4.884   1.031   0.431 -1.8199 -0.0700 -0.9413
18663TIP3    H277405   4.828   1.132   0.333  0.4000  1.4143 -0.7509
18664TIP3   OH277406   0.632   1.925   0.192 -0.6226  0.6442 -0.3200
18664TIP3    H177407   0.588   1.840   0.180 -1.2415  0.8689  0.3017
18664TIP3    H277408   0.723   1.907   0.171 -0.6189 -0.3494  0.4471
18665TIP3   OH277409   0.425   6.378  16.968 -0.3143  0.3051  0.3692
18665TIP3    H177410   0.461   6.463  16.995  0.3631  0.2924 -0.4595
18665TIP3    H277411   0.378   6.347  17.046 -2.7515  2.5721 -0.0557
18666TIP3   OH277412   6.477   0.847   0.409 -0.3425  0.3401 -0.0442
18666TIP3    H177413   6.480   0.753   0.392  1.6034  0.1962  0.8399
18666TIP3    H277414   6.406   0.857   0.473 -0.4137 -0.5583  0.0315
18667TIP3   OH277415   0.676   1.565  11.955 -0.3819 -0.1529  0.3536
18667TIP3    H177416   0.695   1.625  12.027  0.3013 -1.0764  0.9555
18667TIP3    H277417   0.730   1.488  11.972  0.9343  0.1698 -1.8961
18668TIP3   OH277418   5.222   2.363   6.426  0.3877  0.2047  0.1972
18668TIP3    H177419   5.160   2.425   6.464 -1.1990  0.0170 -1.9116
18668TIP3    H277420   5.276   2.416   6.367 -1.3294 -0.3543 -2.0377
18669TIP3   OH277421   2.353   1.820  12.303  0.0849  0.1029  0.3679
18669TIP3    H177422   2.280   1.811  12.241 -0.9862  0.4245  1.5449
18669TIP3    H277423   2.325   1.771  12.380  0.7776  0.9060  1.1402
18670TIP3   OH277424   0.469   4.335  13.982  0.2015 -0.2198  0.1659
18670TIP3    H177425   0.542   4.302  14.035  0.9731  2.8573  1.2421
18670TIP3    H277426   0.392   4.291  14.016  1.3541 -2.5142 -0.0451
18671TIP3   OH277427   1.100   6.783   5.135  0.2477  0.0606  0.7213
18671TIP3    H177428   1.178   6.773   5.081  0.0800  0.9982  0.2789
18671TIP3    H277429   1.029   6.749   5.081  0.4657 -1.9330  1.5827
18672TIP3   OH277430   1.140   4.683   0.852  0.4852 -0.4677 -0.1977
18672TIP3    H177431   1.117   4.765   0.810  0.3896 -0.7386 -0.6800
18672TIP3    H277432   1.070   4.623   0.828  1.3657 -1.1368 -1.1967
18673TIP3   OH277433   5.082   0.950  12.939  0.0149 -0.4118 -0.1920
18673TIP3    H177434   5.178   0.950  12.947  0.0936  1.8498 -0.4891
18673TIP3    H277435   5.066   0.986  12.852 -1.1143  0.1719  0.2467
18674TIP3   OH277436   2.223   2.266   1.676 -0.0504  0.7081 -0.3828
18674TIP3    H177437   2.219   2.178   1.713 -0.0386  1.0954  0.5646
18674TIP3    H277438   2.297   2.263   1.615  0.5268  0.3116  0.3183
18675TIP3   OH277439   3.060   2.930  14.968  0.4925 -0.3823  0.3076
18675TIP3    H177440   3.131   2.866  14.967  0.5698 -0.3408  1.6331
18675TIP3    H277441   2.990   2.888  14.917 -0.1942 -2.4646  2.7467
18676TIP3   OH277442   1.542   3.915  15.008  0.8887 -0.4045  0.2257
18676TIP3    H177443   1.538   3.949  14.919 -4.0324 -0.6009  0.0868
18676TIP3    H277444   1.594   3.980  15.056  3.3816 -0.1091 -2.5895
18677TIP3   OH277445   4.127   1.362   0.818  0.0179 -0.1884  0.0250
18677TIP3    H177446   4.188   1.392   0.886  1.5144 -0.4844 -1.1410
18677TIP3    H277447   4.068   1.302   0.864 -0.5545  1.4490  1.5597
18678TIP3   OH277448   0.907   4.221  14.415  0.1673 -0.3305 -0.2298
18678TIP3    H177449   0.908   4.222  14.510  1.5155  0.7855 -0.2287
18678TIP3    H277450   0.839   4.283  14.390  0.8819  0.5857  0.0307
18679TIP3   OH277451   6.320   2.783  13.191 -0.5722  0.2284 -0.0847
18679TIP3    H177452   6.401   2.769  13.143 -0.2143  0.6179  0.4037
18679TIP3    H277453   6.258   2.814  13.124 -0.2563  0.1570 -0.4138
18680TIP3   OH277454   6.597   2.134   3.296 -0.2560 -0.1982 -0.1512
18680TIP3    H177455   6.585   2.039   3.300  2.2483 -0.8931 -3.5481
18680TIP3    H277456   6.670   2.151   3.355  1.2665 -1.0192 -1.6838
18681TIP3   OH277457   6.161   0.036   6.607  0.4626 -0.0277  0.0723
18681TIP3    H177458   6.103  -0.027   6.563  1.6349 -1.6508  0.7318
18681TIP3    H277459   6.161   0.113   6.550 -0.1057 -1.0751 -1.4000
18682TIP3   OH277460   5.058   0.202   1.910  0.2600  0.0447 -0.3105
18682TIP3    H177461   5.000   0.254   1.965 -0.7084 -0.9483 -0.3750
18682TIP3    H277462   5.000   0.145   1.860  1.2754 -1.1337 -0.2072
18683TIP3   OH277463   3.088   5.306   1.249 -0.1222 -0.5057  0.1729
18683TIP3    H177464   3.080   5.210   1.255  2.5117 -0.8577 -0.7103
18683TIP3    H277465   3.181   5.323   1.258 -0.5549  2.0429  0.5139
18684TIP3   OH277466   2.136   1.373   4.085 -0.5682 -0.1396 -0.2675
18684TIP3    H177467   2.076   1.311   4.127 -1.6400  0.4280 -0.8976
18684TIP3    H277468   2.140   1.343   3.994  0.1658 -0.2038 -0.2151
18685TIP3   OH277469   4.764   1.614  12.774 -0.4954 -0.0545  0.1736
18685TIP3    H177470   4.684   1.567  12.749  1.1263 -1.6915 -2.5290
18685TIP3    H277471   4.738   1.706  12.777 -2.5265 -0.5564 -0.3730
18686TIP3   OH277472   4.064   0.549  12.792 -0.6212  0.5267  0.0847
18686TIP3    H177473   4.034   0.487  12.859 -0.0307  0.0664 -0.0704
18686TIP3    H277474   3.983   0.583  12.753 -0.9563  0.0281  0.3270
18687TIP3   OH277475   5.875   6.537  11.788  0.0721  0.5305 -0.6263
18687TIP3    H177476   5.863   6.500  11.701 -0.7271  2.6131 -1.4565
18687TIP3    H277477   5.960   6.503  11.817  0.4908  0.0280 -2.3146
18688TIP3   OH277478   4.744   4.582   1.221  0.1492 -0.0801 -0.1658
18688TIP3    H177479   4.833   4.557   1.194  0.8378  0.9711  0.9919
18688TIP3    H277480   4.744   4.570   1.316 -0.7116  0.6173 -0.0620
18689TIP3   OH277481   1.849   0.429   1.326  0.8052 -0.3404  0.4605
18689TIP3    H177482   1.781   0.452   1.263 -0.3210  0.9676  2.0733
18689TIP3    H277483   1.860   0.335   1.316  1.2075 -0.0719 -2.1759
18690TIP3   OH277484   6.583   3.399  11.296  0.3163  0.0135 -0.3838
18690TIP3    H177485   6.591   3.404  11.201  0.1170  1.4003 -0.3638
18690TIP3    H277486   6.634   3.473  11.328 -0.2672  0.0390  0.5355
18691TIP3   OH277487   2.257   5.328  15.607 -0.3101  0.3783 -0.6045
18691TIP3    H177488   2.283   5.301  15.519  2.6124  0.5935  0.1167
18691TIP3    H277489   2.261   5.248  15.659  1.7317  0.8756  0.0897
18692TIP3   OH277490   6.135   5.894  15.709  0.3323 -0.3203 -0.6921
18692TIP3    H177491   6.185   5.901  15.628  1.0414 -0.0064 -0.2423
18692TIP3    H277492   6.135   5.983  15.744  2.3141 -0.8731  0.9603
18693TIP3   OH277493   5.424   5.189   3.165 -0.1568 -0.4023  0.3358
18693TIP3    H177494   5.475   5.146   3.097  2.4793  2.0669  0.5754
18693TIP3    H277495   5.360   5.242   3.118  1.4990  1.1132 -0.2819
18694TIP3   OH277496   1.826   0.874  12.774 -0.0544  0.5822 -0.2281
18694TIP3    H177497   1.841   0.807  12.840 -1.1168 -0.3210 -0.8618
18694TIP3    H277498   1.800   0.825  12.696 -0.9014  1.7342 -0.7010
18695TIP3   OH277499   4.012   0.235  15.761  0.1683  0.0155  0.6093
18695TIP3    H177500   4.077   0.252  15.693 -0.4946  1.3917  0.2694
18695TIP3    H277501   4.042   0.156  15.805  0.8651 -0.6464 -0.9891
18696TIP3   OH277502   6.656   0.026   2.603 -0.3566 -0.6081  0.0866
18696TIP3    H177503   6.683  -0.045   2.662 -1.9490 -1.8949 -0.6640
18696TIP3    H277504   6.736   0.048   2.555  0.5198 -0.8279  1.3923
18697TIP3   OH277505   1.631   0.174  14.096 -0.4077  0.6826  0.5287
18697TIP3    H177506   1.677   0.119  14.159 -2.3254 -1.3228  0.2749
18697TIP3    H277507   1.698   0.197  14.031  0.8481  0.1667  1.5885
18698TIP3   OH277508   1.578   5.971  12.004 -0.5608 -0.2470  0.5823
18698TIP3    H177509   1.520   6.026  11.951  0.1545  1.2410  1.2811
18698TIP3    H277510   1.583   6.016  12.088  1.0598 -0.6956  0.7584
18699TIP3   OH277511   3.246   6.526  13.840 -0.1685 -0.1778  0.2538
18699TIP3    H177512   3.324   6.540  13.786  0.2694 -1.1492  0.6183
18699TIP3    H277513   3.221   6.614  13.868 -0.7271  0.4230 -1.9370
18700TIP3   OH277514   4.918   2.163   1.394 -0.5726  0.1233 -0.0254
18700TIP3    H177515   4.963   2.156   1.310 -0.0079  0.1467  0.2675
18700TIP3    H277516   4.859   2.238   1.385  0.2089  0.7438 -0.0775
18701TIP3   OH277517   6.745   5.892  11.763  0.0491  0.1501 -0.1085
18701TIP3    H177518   6.836   5.864  11.775  0.2746  1.5195  1.9563
18701TIP3    H277519   6.746   5.942  11.681  1.3890  0.8826  0.3122
18702TIP3   OH277520   0.945   2.932   1.638  0.1203  0.4101  0.2146
18702TIP3    H177521   1.013   2.973   1.584 -0.5911  0.4978 -0.6369
18702TIP3    H277522   0.866   2.935   1.584 -0.5209  0.1245  1.1057
18703TIP3   OH277523   0.192   6.251   0.891 -0.3307  0.1306  0.4637
18703TIP3    H177524   0.262   6.317   0.887  0.5705 -0.7874  0.7083
18703TIP3    H277525   0.113   6.300   0.868  0.5039  1.0213 -0.7230
18704TIP3   OH277526   5.508   1.812   0.190  0.0230  0.0267 -0.2326
18704TIP3    H177527   5.558   1.739   0.153 -1.9181 -0.8979 -1.1460
18704TIP3    H277528   5.466   1.775   0.267 -2.4829 -0.4567 -1.7332
18705TIP3   OH277529   4.005   5.624   5.467 -0.2430 -0.2144 -0.0880
18705TIP3    H177530   3.918   5.643   5.502 -0.0320 -1.3226  1.0769
18705TIP3    H277531   4.057   5.599   5.543  0.5637 -1.4785 -1.0152
18706TIP3   OH277532   0.480   6.604  13.113  0.0214 -0.0531  0.0171
18706TIP3    H177533   0.480   6.678  13.175 -0.8474  1.1582 -1.3562
18706TIP3    H277534   0.512   6.642  13.031  1.2871 -1.6566 -0.2657
18707TIP3   OH277535   2.653   5.103   4.121  0.1137  0.4133 -0.1492
18707TIP3    H177536   2.720   5.077   4.058 -0.1454  0.1922 -0.3317
18707TIP3    H277537   2.593   5.159   4.071 -1.2647 -1.4410 -0.6488
18708TIP3   OH277538   5.010   2.792  12.393  0.7126  0.2772  0.1564
18708TIP3    H177539   4.931   2.762  12.347  0.5171 -0.5234  0.9938
18708TIP3    H277540   5.079   2.734  12.363  0.6683  0.0186  0.5420
18709TIP3   OH277541   5.635   6.365   2.077 -0.2223  0.2921  0.1434
18709TIP3    H177542   5.569   6.306   2.042 -0.7335  1.6012 -1.2452
18709TIP3    H277543   5.656   6.423   2.004  1.6420  0.6376  0.8948
18710TIP3   OH277544   0.696   5.810  14.050  0.6595  0.4583  0.0676
18710TIP3    H177545   0.631   5.753  14.091 -0.1323  0.7474 -0.7369
18710TIP3    H277546   0.677   5.897  14.085 -0.0865  0.7258 -0.9294
18711TIP3   OH277547   1.235   6.485  16.461 -0.0617  0.2016 -0.6519
18711TIP3    H177548   1.230   6.563  16.516 -0.2298 -0.3521  0.1377
18711TIP3    H277549   1.291   6.425  16.510  0.4508 -0.0011 -1.4736
18712TIP3   OH277550   1.188   1.662   3.916  0.6755 -0.0607  0.1423
18712TIP3    H177551   1.200   1.590   3.979  1.6009 -0.3392 -0.3369
18712TIP3    H277552   1.193   1.741   3.970  1.6204 -0.2911  0.4162
18713TIP3   OH277553   4.684   5.460   1.234 -0.1298 -0.1461 -0.1784
18713TIP3    H177554   4.733   5.520   1.177 -0.5393 -0.9285 -1.3941
18713TIP3    H277555   4.724   5.375   1.219  0.4376 -0.2074  1.5325
18714TIP3   OH277556   4.031   1.465   1.670 -0.1192 -0.3648  0.0345
18714TIP3    H177557   3.999   1.555   1.671 -0.8418 -0.6134  0.0975
18714TIP3    H277558   3.956   1.414   1.639  1.0092 -0.6689 -2.5042
18715TIP3   OH277559   5.287   0.292  13.135 -0.1241 -0.2174 -0.1077
18715TIP3    H177560   5.379   0.295  13.110 -0.3188  0.1118 -0.7991
18715TIP3    H277561   5.286   0.320  13.227  0.6003 -1.4301  0.2940
18716TIP3   OH277562   1.619   0.770  16.917  0.6853 -0.6524  0.3430
18716TIP3    H177563   1.694   0.766  16.976  1.8807 -0.2013 -1.0814
18716TIP3    H277564   1.641   0.840  16.856 -0.8853 -0.5602 -0.1438
18717TIP3   OH277565   5.739   6.658   3.705 -0.4440 -0.0827  0.6459
18717TIP3    H177566   5.805   6.621   3.764 -0.6980  0.4499  1.2833
18717TIP3    H277567   5.661   6.669   3.760 -0.9773 -0.4257 -0.0217
18718TIP3   OH277568   0.625   0.060  16.269 -0.1186  0.1661  0.1257
18718TIP3    H177569   0.695  -0.006  16.272 -0.6026 -0.3447  0.4641
18718TIP3    H277570   0.649   0.123  16.336  0.0022 -0.0244  0.2628
18719TIP3   OH277571   2.590   3.011   3.551  0.1757  0.7628 -0.3955
18719TIP3    H177572   2.516   3.069   3.568 -1.7410 -0.7306 -2.8465
18719TIP3    H277573   2.630   3.047   3.472  1.9210  1.3516  0.7088
18720TIP3   OH277574   1.787   2.174   6.400 -0.0600 -0.0969  0.3815
18720TIP3    H177575   1.764   2.210   6.314 -1.8906  2.4031  1.7559
18720TIP3    H277576   1.713   2.117   6.422 -0.2281  0.2804  0.8044
18721TIP3   OH277577   1.916   1.413   3.306 -0.3294  0.8450  0.1977
18721TIP3    H177578   1.855   1.415   3.380 -1.0168 -1.7700 -0.1903
18721TIP3    H277579   1.897   1.330   3.263  1.3894  1.4270 -1.8021
18722TIP3   OH277580   2.387   5.023  11.694  0.4360  0.0976  0.2751
18722TIP3    H177581   2.317   5.005  11.631 -0.9274  0.3770  1.6559
18722TIP3    H277582   2.355   4.988  11.777  1.6867  0.7503  1.0625
18723TIP3   OH277583   3.921   5.809  13.699 -0.2003  0.8365 -0.4996
18723TIP3    H177584   3.897   5.779  13.787 -3.8613 -0.8778 -1.8640
18723TIP3    H277585   3.883   5.897  13.692 -0.7778  0.5856 -0.6269
18724TIP3   OH277586   6.680   1.147   4.872  0.1494 -0.3760 -0.0555
18724TIP3    H177587   6.733   1.068   4.877 -0.3773 -0.6777  0.9631
18724TIP3    H277588   6.591   1.115   4.857 -0.6309 -0.2280  3.5426
18725TIP3   OH277589   3.006   0.152   4.744 -0.3340 -0.1986 -0.5802
18725TIP3    H177590   3.034   0.070   4.702  0.2005 -0.6726  0.6491
18725TIP3    H277591   2.913   0.158   4.724 -0.0862 -0.3733 -1.8658
18726TIP3   OH277592   5.248   5.869  11.199 -0.2511  0.3244  0.2525
18726TIP3    H177593   5.197   5.840  11.123 -0.3101  0.1693  0.3520
18726TIP3    H277594   5.220   5.959  11.213  1.3581  1.1281 -1.2727
18727TIP3   OH277595   0.424   3.379  11.211 -0.0158  0.0384 -0.2648
18727TIP3    H177596   0.460   3.420  11.133 -1.1459 -0.1073 -0.8893
18727TIP3    H277597   0.333   3.410  11.214 -0.5170 -1.3925 -0.0380
18728TIP3   OH277598   4.913   1.461   4.203 -0.2364 -0.3666  0.2193
18728TIP3    H177599   4.862   1.526   4.251  1.1353  1.0050 -0.0931
18728TIP3    H277600   4.851   1.390   4.185 -2.2459  1.5066 -0.7597
18729TIP3   OH277601   0.682   6.645   1.191 -0.1214  0.2796  0.4535
18729TIP3    H177602   0.681   6.647   1.095  2.4048  0.7139  0.3572
18729TIP3    H277603   0.595   6.615   1.216 -1.1226  1.0127 -1.9435
18730TIP3   OH277604   3.024   1.101   3.061 -0.0031 -0.5993 -0.5661
18730TIP3    H177605   2.935   1.066   3.053 -0.7175 -0.5042  4.3517
18730TIP3    H277606   3.072   1.033   3.108  2.4458 -0.2803 -2.3884
18731TIP3   OH277607   3.253   1.713   5.852 -0.2305 -0.2565  0.0840
18731TIP3    H177608   3.199   1.664   5.791 -0.0809 -1.6173  0.9947
18731TIP3    H277609   3.206   1.709   5.935 -0.5616  1.7879  0.0388
18732TIP3   OH277610   5.074   1.106  16.012  0.2222  0.2530  0.2474
18732TIP3    H177611   5.042   1.052  16.085  1.1576  0.6606  0.9880
18732TIP3    H277612   5.147   1.056  15.976  0.1061  0.3041 -0.0566
18733TIP3   OH277613   4.912   5.820  12.966 -0.6454  0.1935  0.5045
18733TIP3    H177614   4.878   5.770  13.041 -0.8047 -3.5690 -1.7732
18733TIP3    H277615   4.838   5.824  12.905  0.5983 -0.7171 -1.1456
18734TIP3   OH277616   2.403   0.861   1.217 -0.1995 -0.2923 -0.7834
18734TIP3    H177617   2.486   0.864   1.169  0.3006 -0.7925  0.0157
18734TIP3    H277618   2.423   0.808   1.294 -1.1767 -0.1195 -0.4044
18735TIP3   OH277619   2.430   3.814   0.710 -0.3927  0.0402  0.0745
18735TIP3    H177620   2.380   3.735   0.691 -0.8631  0.2265  0.4968
18735TIP3    H277621   2.521   3.785   0.714 -0.6272 -0.6289  0.9692
18736TIP3   OH277622   3.053   0.546  11.796 -0.1631  0.2144 -0.0202
18736TIP3    H177623   3.091   0.460  11.818  0.6741  0.2073 -1.4098
18736TIP3    H277624   2.977   0.525  11.742 -0.9931  0.3117  1.0713
18737TIP3   OH277625   1.951   1.761   3.839  0.0605  0.3598 -0.1652
18737TIP3    H177626   1.956   1.856   3.849 -0.0925  0.2398  1.2006
18737TIP3    H277627   2.040   1.730   3.853 -0.0937  0.2144  0.5237
18738TIP3   OH277628   5.331   5.520  14.921  0.0131 -0.0791  0.3243
18738TIP3    H177629   5.259   5.458  14.932  0.4755 -0.6514  0.1809
18738TIP3    H277630   5.386   5.507  14.999  1.0747 -1.1643 -0.5709
18739TIP3   OH277631   4.579   2.981  16.529  0.1830 -0.1127  0.2724
18739TIP3    H177632   4.547   2.930  16.604  0.2749 -0.7434 -0.1026
18739TIP3    H277633   4.618   2.915  16.472 -0.3357  0.2878 -0.5616
18740TIP3   OH277634   1.433   4.731  13.521  0.1661 -0.3480  0.2516
18740TIP3    H177635   1.461   4.818  13.491 -0.0743 -0.6446 -0.8807
18740TIP3    H277636   1.373   4.701  13.452 -1.8522 -0.3203  1.8881
18741TIP3   OH277637   1.396   1.996  11.035  0.2227  0.0039 -0.3595
18741TIP3    H177638   1.309   2.035  11.023 -0.2629 -0.3486  1.6448
18741TIP3    H277639   1.382   1.902  11.028  0.4401 -0.0510 -0.1002
18742TIP3   OH277640   3.718   2.778  15.932  0.4105 -0.0017 -0.3470
18742TIP3    H177641   3.643   2.768  15.873  0.9096 -1.8884 -0.7466
18742TIP3    H277642   3.792   2.744  15.881  1.1052 -0.3249  0.8475
18743TIP3   OH277643   0.104   4.260  15.168 -0.0610 -0.7578 -0.0287
18743TIP3    H177644   0.103   4.229  15.258  1.8568  0.3368  0.4282
18743TIP3    H277645   0.026   4.314  15.160 -0.2016 -0.7916  1.0134
18744TIP3   OH277646   1.618   4.561  14.539  0.0725 -0.3170  0.1677
18744TIP3    H177647   1.706   4.597  14.548  0.0952 -0.6511  1.5226
18744TIP3    H277648   1.560   4.635  14.556  0.1149 -0.5285  1.3127
18745TIP3   OH277649   4.975   4.026   6.643 -0.7181 -0.2597 -0.0669
18745TIP3    H177650   5.057   3.975   6.647 -0.4490  0.1537 -0.2437
18745TIP3    H277651   5.004   4.117   6.638 -1.2094  0.0627  2.1983
18746TIP3   OH277652   6.337   5.174  14.284 -0.1207 -0.3685  0.4058
18746TIP3    H177653   6.364   5.260  14.315  0.4469 -0.2632 -0.3303
18746TIP3    H277654   6.418   5.134  14.252 -0.5465 -0.7591 -0.2218
18747TIP3   OH277655   4.899   1.189  10.998 -0.1167 -0.0776  0.3375
18747TIP3    H177656   4.980   1.141  10.978 -0.5729 -1.8059  2.2664
18747TIP3    H277657   4.927   1.264  11.050  0.2856 -0.3942  0.5819
18748TIP3   OH277658   1.348   3.522   2.158 -0.1003 -0.0283 -0.1598
18748TIP3    H177659   1.397   3.443   2.182 -1.4549 -0.3329  1.8705
18748TIP3    H277660   1.307   3.501   2.074 -1.6293 -2.0966  1.0238
18749TIP3   OH277661   2.499   4.301   4.058  0.1698  0.2677 -0.5582
18749TIP3    H177662   2.457   4.372   4.107  0.4641 -0.7475  1.2398
18749TIP3    H277663   2.436   4.229   4.060  1.4623 -0.9144  1.2794
18750TIP3   OH277664   3.792   1.582   4.582 -0.2682 -0.2511  0.3979
18750TIP3    H177665   3.774   1.666   4.539  1.4877  0.0401  0.1587
18750TIP3    H277666   3.712   1.531   4.568 -1.8714  1.7591  1.5534
18751TIP3   OH277667   4.865   5.518   0.127  0.3334 -0.6205  0.2106
18751TIP3    H177668   4.928   5.585   0.154  1.0342 -0.7708 -0.9832
18751TIP3    H277669   4.898   5.487   0.043 -1.5551 -0.4331 -0.6423
18752TIP3   OH277670   1.191   0.971  13.568  0.0389  0.0179  0.1637
18752TIP3    H177671   1.155   0.967  13.479  1.3960  2.7452 -0.6121
18752TIP3    H277672   1.115   0.989  13.623 -0.4401  1.2641 -0.8532
18753TIP3   OH277673   1.393   4.253   5.173 -0.0128  1.0484 -0.1704
18753TIP3    H177674   1.375   4.165   5.205 -0.1431  1.6475  1.4755
18753TIP3    H277675   1.476   4.244   5.125  0.6145  0.2593  1.0127
18754TIP3   OH277676   5.515   1.725   1.380  0.0853 -0.2650 -0.2280
18754TIP3    H177677   5.423   1.708   1.360 -0.4566  1.5852  0.4659
18754TIP3    H277678   5.545   1.646   1.425 -1.5861 -0.3367  0.8333
18755TIP3   OH277679   1.507   2.372   3.050 -0.0839 -0.3955  0.4209
18755TIP3    H177680   1.500   2.288   3.095  1.2637 -0.1433  1.1811
18755TIP3    H277681   1.564   2.354   2.976  1.1170  0.0343  1.2000
18756TIP3   OH277682   4.179   2.489  14.044 -0.0731  0.2148  0.1876
18756TIP3    H177683   4.260   2.537  14.061 -1.0394  2.9712 -2.1998
18756TIP3    H277684   4.129   2.495  14.125  1.6866 -0.8334  1.4198
18757TIP3   OH277685   0.070   1.781  15.528  0.0030  0.6827  0.1557
18757TIP3    H177686   0.027   1.833  15.595  3.9221  2.3171  1.6602
18757TIP3    H277687   0.074   1.840  15.452  0.0811  0.7146  0.1847
18758TIP3   OH277688   0.849   2.016  10.391 -0.2875 -0.3054 -0.3001
18758TIP3    H177689   0.863   1.935  10.344  1.5733  0.9211 -2.0140
18758TIP3    H277690   0.820   2.079  10.325  2.4819  1.4919  0.0204
18759TIP3   OH277691   6.780   0.479   1.955  0.2965  0.0531 -0.7300
18759TIP3    H177692   6.753   0.388   1.942  2.0639 -0.5453 -0.4641
18759TIP3    H277693   6.858   0.473   2.009 -1.1627  1.8981  1.8189
18760TIP3   OH277694   5.479   2.936   4.035  0.4029 -0.1240  0.5060
18760TIP3    H177695   5.439   2.999   4.094  3.1688  0.3531  2.0275
18760TIP3    H277696   5.451   2.963   3.948 -3.4698 -0.6129  1.4072
18761TIP3   OH277697   1.927   2.392  13.689 -0.2373  0.3949  0.8121
18761TIP3    H177698   1.916   2.369  13.597 -0.9255  0.4107  0.8878
18761TIP3    H277699   1.987   2.325  13.723 -0.4602  0.0303  0.4969
18762TIP3   OH277700   4.363   6.818  12.119  0.4730 -0.4351  0.2446
18762TIP3    H177701   4.401   6.906  12.116  0.9474 -0.5625  1.8243
18762TIP3    H277702   4.386   6.784  12.205 -0.5762 -1.7300  0.0571
18763TIP3   OH277703   3.411   5.366   2.253  0.5467 -0.1746 -0.3047
18763TIP3    H177704   3.384   5.409   2.334 -3.3962  2.7339 -2.7819
18763TIP3    H277705   3.372   5.279   2.258 -0.8403  0.4501  0.4515
18764TIP3   OH277706   4.557   5.549   3.191 -0.0200 -0.3876  0.5726
18764TIP3    H177707   4.493   5.620   3.181  0.1360 -0.3796 -0.5443
18764TIP3    H277708   4.641   5.594   3.197  0.0027 -0.4447  0.6711
18765TIP3   OH277709   5.282   6.655  14.383  0.3556  0.6189  0.4593
18765TIP3    H177710   5.333   6.577  14.367 -0.3369  0.4264 -1.0036
18765TIP3    H277711   5.346   6.726  14.390  0.8510  0.3735 -1.2710
18766TIP3   OH277712   5.945   1.091  13.031  0.3641 -0.2686  0.5615
18766TIP3    H177713   5.902   1.021  13.080  0.2630  0.2521  1.2286
18766TIP3    H277714   5.938   1.064  12.939 -1.9627  0.1168  0.5838
18767TIP3   OH277715   3.532   4.125  12.060  0.2150  0.1625  0.3968
18767TIP3    H177716   3.567   4.140  11.972  0.4983 -0.1791  0.4497
18767TIP3    H277717   3.440   4.101  12.045  0.0741  0.7847  0.2402
18768TIP3   OH277718   0.887   1.272   2.540 -0.1432  0.2857 -0.2992
18768TIP3    H177719   0.815   1.322   2.578 -0.6137 -0.9733  0.5527
18768TIP3    H277720   0.963   1.294   2.594 -0.4695 -0.3134  0.4254
18769TIP3   OH277721   4.935   2.340  10.515 -0.1330  0.7899 -0.1212
18769TIP3    H177722   4.920   2.307  10.604  1.8433 -0.0384 -0.0436
18769TIP3    H277723   5.017   2.299  10.488  0.0968  2.2284 -1.7593
18770TIP3   OH277724   4.345   6.279   4.092  0.4013 -0.5779 -0.3771
18770TIP3    H177725   4.259   6.266   4.134 -0.1670 -1.0143 -1.6127
18770TIP3    H277726   4.363   6.372   4.102  0.1241 -0.6084  0.5135
18771TIP3   OH277727   1.361   0.037  10.598  0.0259 -0.3053 -0.4233
18771TIP3    H177728   1.301   0.038  10.673  0.7096 -4.4361  0.4265
18771TIP3    H277729   1.431   0.097  10.622 -1.1501  0.5846  0.9466
18772TIP3   OH277730   1.278   3.644   2.378  0.0854  0.3040  0.5923
18772TIP3    H177731   1.301   3.602   2.295 -3.0803 -1.3886  0.4142
18772TIP3    H277732   1.255   3.734   2.354  0.2932  0.1611 -0.1722
18773TIP3   OH277733   1.171   2.218   2.054 -0.1709  0.0188 -0.4474
18773TIP3    H177734   1.179   2.246   1.963  0.3018  0.6688 -0.2187
18773TIP3    H277735   1.103   2.151   2.054 -0.8576  0.7071 -1.1268
18774TIP3   OH277736   6.648   6.225  12.973  0.3774  0.2666  0.4480
18774TIP3    H177737   6.578   6.177  13.017 -0.2372 -1.3765 -2.1281
18774TIP3    H277738   6.604   6.274  12.903  1.7359 -0.7104 -1.1628
18775TIP3   OH277739   5.190   0.836  10.534 -0.3724 -0.5709  0.3722
18775TIP3    H177740   5.159   0.875  10.453  0.8521 -0.1952  0.0639
18775TIP3    H277741   5.221   0.910  10.587  1.5851 -1.0319 -0.0504
18776TIP3   OH277742   0.357   1.530   2.991  0.6591  0.0663  0.6886
18776TIP3    H177743   0.326   1.467   2.926  0.8211  0.6885 -0.0033
18776TIP3    H277744   0.287   1.595   2.997  0.2292 -0.4734  1.8357
18777TIP3   OH277745   2.392   4.765   2.166  0.1165  0.3132  0.1903
18777TIP3    H177746   2.486   4.764   2.183  0.5536 -1.3789 -1.8534
18777TIP3    H277747   2.373   4.678   2.132 -2.3723  0.3528  1.2207
18778TIP3   OH277748   0.916   2.562  16.031  0.0165  0.1048 -0.6260
18778TIP3    H177749   1.010   2.562  16.049  0.1837  1.4305 -1.3693
18778TIP3    H277750   0.889   2.653  16.047 -0.7443  0.2036 -2.3281
18779TIP3   OH277751   6.566   1.851   4.651  0.0093  0.4004  0.4127
18779TIP3    H177752   6.534   1.769   4.691 -1.4215  0.0593 -1.3182
18779TIP3    H277753   6.550   1.840   4.557  2.6806  1.4215 -0.2730
18780TIP3   OH277754   5.969   0.327   5.534 -0.0661 -0.0503 -0.6035
18780TIP3    H177755   6.015   0.275   5.601 -0.7745 -0.6550 -0.5680
18780TIP3    H277756   6.014   0.307   5.453  1.4475  1.4637 -0.1961
18781TIP3   OH277757   5.045   4.136   2.793  0.0978 -0.0231  0.7229
18781TIP3    H177758   5.039   4.216   2.741  1.1131 -0.1435  0.3951
18781TIP3    H277759   5.023   4.163   2.882  1.0190  0.7693  0.7351
18782TIP3   OH277760   2.382   4.453  15.877 -1.3061 -0.3136 -0.4374
18782TIP3    H177761   2.367   4.384  15.942 -0.4999 -0.8354 -0.7890
18782TIP3    H277762   2.295   4.474  15.845 -1.5859 -1.0280 -0.1785
18783TIP3   OH277763   0.966   2.332   3.888  0.3665 -0.2142  0.0785
18783TIP3    H177764   0.966   2.380   3.805 -2.4876  1.8016  1.0970
18783TIP3    H277765   1.040   2.369   3.936  1.2582 -0.4784 -1.0336
18784TIP3   OH277766   2.295   0.160   0.104 -0.1454 -0.2781  0.2703
18784TIP3    H177767   2.390   0.145   0.097 -0.0436 -0.0815  1.1618
18784TIP3    H277768   2.271   0.123   0.188 -0.3328  2.1642  1.3769
18785TIP3   OH277769   5.967   5.410   2.068 -0.0551  0.4311  0.3089
18785TIP3    H177770   5.998   5.491   2.109 -0.6314  2.4610 -2.9153
18785TIP3    H277771   6.046   5.356   2.059  1.3930  2.6659 -1.6599
18786TIP3   OH277772   1.262   3.733   1.144 -0.0121  0.1564 -0.3946
18786TIP3    H177773   1.208   3.722   1.223 -1.4744 -4.3263 -1.6714
18786TIP3    H277774   1.352   3.731   1.176 -0.5665 -1.5554  1.2879
18787TIP3   OH277775   4.877   5.572  13.872  0.1124  0.0616 -0.1114
18787TIP3    H177776   4.844   5.628  13.942 -1.8588 -0.6440 -0.4011
18787TIP3    H277777   4.959   5.613  13.845  0.9246  0.3824  2.5496
18788TIP3   OH277778   3.814   4.555   1.519 -0.0965 -0.2053  0.7210
18788TIP3    H177779   3.745   4.603   1.564 -1.5991 -1.1463 -0.4770
18788TIP3    H277780   3.896   4.590   1.555 -1.1098  2.5753  0.5653
18789TIP3   OH277781   4.318   6.338   3.463  0.6476 -0.7449 -0.0640
18789TIP3    H177782   4.250   6.339   3.396  0.4837  1.1914  0.0677
18789TIP3    H277783   4.277   6.293   3.538 -0.1692 -0.4371 -0.3079
18790TIP3   OH277784   6.048   5.003   2.664  0.2824 -0.5745  0.4877
18790TIP3    H177785   5.964   5.034   2.632  0.8317  0.6891  0.2043
18790TIP3    H277786   6.044   5.015   2.759  0.4790  0.3994  0.3859
18791TIP3   OH277787   4.753   3.111  17.019 -0.1744 -0.3792  0.1729
18791TIP3    H177788   4.742   3.198  16.980  0.0299 -0.8752 -1.0247
18791TIP3    H277789   4.822   3.124  17.085 -0.3092  0.4143  0.1746
18792TIP3   OH277790   6.084   6.128   6.523  0.0355  0.5929 -0.1355
18792TIP3    H177791   6.165   6.176   6.539  0.8490  0.5381 -3.3264
18792TIP3    H277792   6.054   6.160   6.438  0.6017 -4.3331 -2.5019
18793TIP3   OH277793   2.578   0.715   2.913 -0.7705  0.4513  0.4447
18793TIP3    H177794   2.551   0.788   2.859 -1.0622 -0.8235 -1.2036
18793TIP3    H277795   2.674   0.717   2.909 -0.7771  0.7366  0.4134
18794TIP3   OH277796   4.007   6.069  11.880  0.0188  0.1549 -1.2338
18794TIP3    H177797   3.956   6.054  11.960  1.4718 -2.4995 -0.6769
18794TIP3    H277798   3.943   6.105  11.818 -2.3604 -2.1097 -0.3052
18795TIP3   OH277799   0.995   2.083   0.019  0.2242 -0.2702  0.0521
18795TIP3    H177800   0.922   2.022   0.032 -0.0795 -0.0959 -0.7175
18795TIP3    H277801   0.967   2.163   0.064 -0.7362  0.2783 -1.4273
18796TIP3   OH277802   0.205   6.353   1.278 -0.1931  0.5004 -1.0162
18796TIP3    H177803   0.132   6.335   1.219  0.5540  0.1451 -1.8566
18796TIP3    H277804   0.166   6.353   1.366 -1.3384  1.1178 -1.5062
18797TIP3   OH277805   2.597   5.756   2.434  0.3288  0.5129 -0.4282
18797TIP3    H177806   2.670   5.695   2.446  0.7289  1.2062  0.8872
18797TIP3    H277807   2.521   5.708   2.467  0.4935  0.4050 -0.1981
18798TIP3   OH277808   3.172   2.495  16.797 -0.8974  0.1311  0.0726
18798TIP3    H177809   3.242   2.561  16.799 -0.5206 -0.2519 -0.2592
18798TIP3    H277810   3.111   2.523  16.865 -0.7912  0.8754 -0.1289
18799TIP3   OH277811   0.215   0.099  13.392 -0.3373 -0.4880 -0.1207
18799TIP3    H177812   0.179   0.081  13.479  0.9014 -1.6749  0.1971
18799TIP3    H277813   0.288   0.159  13.408 -0.2825 -0.4855 -0.3714
18800TIP3   OH277814   4.771   4.911  12.236  0.1876 -0.1233  0.5691
18800TIP3    H177815   4.786   4.848  12.165  1.0599 -0.0520  0.6861
18800TIP3    H277816   4.679   4.899  12.258  0.1593 -0.8621  0.1038
18801TIP3   OH277817   5.108   3.415  12.334 -0.3503  0.4352 -0.0175
18801TIP3    H177818   5.159   3.409  12.414 -2.0241  0.6286  1.1279
18801TIP3    H277819   5.107   3.509  12.313  0.2945  0.3555 -0.4085
18802TIP3   OH277820   6.672   2.263  16.542  0.1275  0.1488 -0.2835
18802TIP3    H177821   6.694   2.247  16.634  2.1792  1.6951 -0.4185
18802TIP3    H277822   6.580   2.240  16.535  0.0494 -0.5344  2.0170
18803TIP3   OH277823   1.625   3.692  11.113 -0.1316  0.0833 -0.2660
18803TIP3    H177824   1.596   3.686  11.204  1.0959 -1.2407  0.0705
18803TIP3    H277825   1.717   3.718  11.119  0.1359 -0.6426 -1.1049
18804TIP3   OH277826   6.518   1.380  13.528 -0.4795  0.3837 -0.4649
18804TIP3    H177827   6.574   1.445  13.487  2.2942 -1.1302  0.6609
18804TIP3    H277828   6.460   1.431  13.585  0.4166  1.9694 -0.9041
18805TIP3   OH277829   1.363   1.619   4.545  0.1965 -0.1159 -0.0233
18805TIP3    H177830   1.383   1.639   4.636  1.4226 -2.1108  0.2071
18805TIP3    H277831   1.321   1.533   4.548 -0.8518  0.3284 -1.2535
18806TIP3   OH277832   5.754   3.326   5.324 -0.2297  0.3773  0.1008
18806TIP3    H177833   5.710   3.247   5.292  0.6039  0.5002 -1.4280
18806TIP3    H277834   5.690   3.396   5.311 -0.1731  0.2999 -0.6415
18807TIP3   OH277835   3.608   0.180   5.861 -0.2165  0.6985  0.6258
18807TIP3    H177836   3.659   0.177   5.942 -0.5691  0.2490  0.8422
18807TIP3    H277837   3.566   0.094   5.857 -1.1405  1.1371  0.5842
18808TIP3   OH277838   1.678   2.649  16.757 -0.2264 -0.1651  0.4070
18808TIP3    H177839   1.586   2.622  16.753 -0.6408  1.2745 -0.7418
18808TIP3    H277840   1.725   2.570  16.784 -1.5258 -1.6193 -1.3353
18809TIP3   OH277841   6.387   4.276   5.404 -0.5199 -0.3435 -0.0626
18809TIP3    H177842   6.435   4.343   5.452 -0.1683 -1.6067  1.4213
18809TIP3    H277843   6.314   4.323   5.364 -1.3630  0.6352  2.4647
18810TIP3   OH277844   1.292   2.403  16.853 -0.8309 -0.4919  0.6468
18810TIP3    H177845   1.270   2.351  16.930 -2.1840  1.1324  1.4437
18810TIP3    H277846   1.211   2.407  16.803 -0.6273  0.4445  0.3709
18811TIP3   OH277847   1.803   1.082   5.913  0.0612  0.3231  0.3669
18811TIP3    H177848   1.715   1.049   5.933 -0.1131  1.0380  0.8499
18811TIP3    H277849   1.792   1.177   5.906  0.1836  0.1912 -2.9454
18812TIP3   OH277850   5.972   3.292  10.270 -0.1154 -0.2041 -0.3663
18812TIP3    H177851   5.905   3.232  10.304 -1.3536  1.5939  0.5296
18812TIP3    H277852   6.038   3.234  10.232 -0.7075 -2.1881  1.3927
18813TIP3   OH277853   0.460   6.337  12.986  0.0086  0.1230  0.3290
18813TIP3    H177854   0.439   6.345  12.893 -0.9737  0.8034  0.5903
18813TIP3    H277855   0.479   6.427  13.014  3.9090 -0.4125  0.0290
18814TIP3   OH277856   3.465   2.340   3.122 -0.3019 -0.2424  0.7095
18814TIP3    H177857   3.465   2.435   3.123 -0.0898 -0.2360  1.5232
18814TIP3    H277858   3.530   2.316   3.056 -1.1153  0.1552 -0.2573
18815TIP3   OH277859   1.060   3.698   4.940  0.3521  0.1562  0.6236
18815TIP3    H177860   0.998   3.628   4.957  0.6623 -0.0965  0.7159
18815TIP3    H277861   1.040   3.727   4.851  0.8296 -0.6724  0.2369
18816TIP3   OH277862   2.632   5.972   2.100  0.3097 -0.6604  0.2763
18816TIP3    H177863   2.664   5.992   2.012 -2.8005  2.5546 -0.3388
18816TIP3    H277864   2.574   5.897   2.087  1.4388 -1.5190  0.0255
18817TIP3   OH277865   3.575   2.535   4.880  0.2309  0.2552 -0.1654
18817TIP3    H177866   3.651   2.488   4.915  0.2683  0.1220 -0.4258
18817TIP3    H277867   3.542   2.479   4.809 -0.6397 -0.1243  0.5133
18818TIP3   OH277868   0.036   5.505   0.595 -0.3933 -0.7588  0.5645
18818TIP3    H177869   0.006   5.595   0.605 -0.0721 -0.0650 -3.3162
18818TIP3    H277870  -0.043   5.452   0.610 -1.7124  0.5224 -1.4351
18819TIP3   OH277871   4.523   1.955  15.874  0.4387  0.0517 -0.2085
18819TIP3    H177872   4.607   1.962  15.921 -0.2677  0.6487  1.0078
18819TIP3    H277873   4.496   1.864  15.887  2.3206 -1.1018 -3.2187
18820TIP3   OH277874   1.617   2.249  16.340  0.8055  0.0204  0.3097
18820TIP3    H177875   1.707   2.275  16.356  0.8730  1.4767 -2.0471
18820TIP3    H277876   1.618   2.210  16.252 -0.7124 -0.8617  0.6342
18821TIP3   OH277877   2.953   0.765  11.960  0.7021 -0.6850 -0.7522
18821TIP3    H177878   2.962   0.697  11.893  0.4905  0.1760 -1.6783
18821TIP3    H277879   3.025   0.825  11.943  1.4241 -1.1163  0.6219
18822TIP3   OH277880   2.513   5.198   3.896  0.2133 -0.1500 -0.0905
18822TIP3    H177881   2.526   5.153   3.813 -0.7909  0.2558 -0.4948
18822TIP3    H277882   2.418   5.213   3.900  0.3869  0.9003  0.5609
18823TIP3   OH277883   0.276   1.311   3.411 -0.7431 -0.1907  0.0050
18823TIP3    H177884   0.229   1.371   3.352 -0.6268  0.5202  0.6238
18823TIP3    H277885   0.207   1.259   3.452 -1.0392  0.9715  1.0470
18824TIP3   OH277886   1.331   3.975  15.214 -0.8451  0.6319  0.0796
18824TIP3    H177887   1.303   4.005  15.128 -0.1628 -1.0489 -0.7813
18824TIP3    H277888   1.406   3.917  15.196  0.1688  1.2791  1.9066
18825TIP3   OH277889   3.415   2.650  14.061  0.1543 -0.3502 -0.1001
18825TIP3    H177890   3.355   2.702  14.007 -0.1711 -0.5299  0.0864
18825TIP3    H277891   3.415   2.563  14.020  2.9971  0.4981 -2.2509
18826TIP3   OH277892   3.090   4.948  12.921  0.4277 -0.1628 -0.6053
18826TIP3    H177893   3.010   4.895  12.926 -0.1726  0.2338 -3.7977
18826TIP3    H277894   3.133   4.918  12.841  1.6124  2.1045 -0.8991
18827TIP3   OH277895   5.606   2.980   1.070  0.0795 -0.0935 -0.0551
18827TIP3    H177896   5.641   2.966   0.982  1.3301 -1.7702  0.6531
18827TIP3    H277897   5.668   3.040   1.111  0.2233 -0.3341  0.0841
18828TIP3   OH277898   2.156   0.606   2.444  0.3283 -0.1833  0.1662
18828TIP3    H177899   2.064   0.580   2.451  0.7290 -1.2027  3.1583
18828TIP3    H277900   2.200   0.527   2.413  0.2974  0.1862 -0.8738
18829TIP3   OH277901   4.644   6.376   0.165  0.2810  0.1572 -0.7338
18829TIP3    H177902   4.601   6.422   0.092  0.1476 -1.4899 -1.7427
18829TIP3    H277903   4.571   6.345   0.219  0.2285 -1.2787 -1.5941
18830TIP3   OH277904   6.538   6.461  13.473 -0.4683 -0.2720 -0.3771
18830TIP3    H177905   6.489   6.379  13.478 -2.2630  0.7825  0.1374
18830TIP3    H277906   6.571   6.463  13.383  0.7466 -2.1197 -0.0545
18831TIP3   OH277907   0.119   1.456  10.653  0.3129 -0.3749 -0.2694
18831TIP3    H177908   0.187   1.453  10.720  0.7169 -0.6522 -0.6824
18831TIP3    H277909   0.045   1.410  10.692  0.1747  0.3961  0.3875
18832TIP3   OH277910   1.270   6.395   0.850  0.2721  0.1843  0.2422
18832TIP3    H177911   1.292   6.393   0.943  0.3848 -0.8002  0.2111
18832TIP3    H277912   1.330   6.460   0.812  0.4556  0.3432  0.8017
18833TIP3   OH277913   1.845   0.744   2.196  0.4900  0.4111 -0.6469
18833TIP3    H177914   1.906   0.745   2.122 -1.1607  0.5016 -2.0739
18833TIP3    H277915   1.826   0.837   2.212  0.6561  0.3804 -0.2619
18834TIP3   OH277916   5.836   5.777  17.007 -0.0767 -0.0104 -0.2460
18834TIP3    H177917   5.752   5.821  17.023 -0.6009 -1.6280  1.9971
18834TIP3    H277918   5.828   5.694  17.054  2.4730 -0.6079 -0.7374
18835TIP3   OH277919   4.279   0.242   1.480 -0.0157  0.2773 -0.5014
18835TIP3    H177920   4.355   0.222   1.534  0.6292  3.8531  0.1730
18835TIP3    H277921   4.284   0.180   1.407  3.3514  0.1442 -0.3091
18836TIP3   OH277922   4.115   0.044   5.216 -0.0068  0.2696  0.3202
18836TIP3    H177923   4.044   0.078   5.162 -0.2553  0.5193  0.7944
18836TIP3    H277924   4.167  -0.011   5.157 -0.8070 -0.2146  0.0535
18837TIP3   OH277925   1.351   1.275   0.388 -0.0381 -0.7372  0.3179
18837TIP3    H177926   1.377   1.365   0.408  0.3688 -0.9017  0.5339
18837TIP3    H277927   1.262   1.283   0.353  0.3273 -0.1623 -0.4985
18838TIP3   OH277928   1.130   5.546  14.506 -0.1396 -0.2283  0.1487
18838TIP3    H177929   1.189   5.603  14.555  2.0965 -0.8679 -1.6431
18838TIP3    H277930   1.049   5.597  14.497  1.5051  2.4031 -0.7432
18839TIP3   OH277931   5.921   6.001  14.458  0.1608  0.5770 -0.1176
18839TIP3    H177932   5.879   5.978  14.375  0.6737  1.1448 -0.5410
18839TIP3    H277933   5.851   5.994  14.523 -0.3222  0.4395 -0.6415
18840TIP3   OH277934   2.498   2.019  10.218  0.0267 -0.1814 -0.5417
18840TIP3    H177935   2.562   1.948  10.223 -0.5552 -0.7426 -0.9287
18840TIP3    H277936   2.423   1.986  10.268 -0.4550 -0.0675 -1.1783
18841TIP3   OH277937   5.198   5.519   4.219 -0.3359  0.3364  0.0467
18841TIP3    H177938   5.124   5.493   4.273  0.6588  0.4248  1.4963
18841TIP3    H277939   5.191   5.614   4.212 -1.2616  0.1972 -1.2113
18842TIP3   OH277940   0.899   1.022   4.751 -0.3982  0.5688 -0.3516
18842TIP3    H177941   0.957   1.018   4.675  0.4407  0.4881  0.2705
18842TIP3    H277942   0.931   1.097   4.802  0.8877 -1.0320  1.3354
18843TIP3   OH277943   3.698   0.364  15.205 -0.4827 -0.0951 -0.0792
18843TIP3    H177944   3.617   0.361  15.256 -0.9211  0.6733 -0.7098
18843TIP3    H277945   3.701   0.280  15.159  0.0904 -0.9533  1.4224
18844TIP3   OH277946   4.020   2.627   1.992  0.8462 -0.8150 -0.2905
18844TIP3    H177947   4.004   2.712   1.950  0.0323 -0.9348 -0.2302
18844TIP3    H277948   3.988   2.638   2.082 -1.4247 -1.8725 -0.9088
18845TIP3   OH277949   1.570   6.731  16.490  0.6776 -0.4511 -0.4383
18845TIP3    H177950   1.536   6.737  16.401  2.1806  0.0371 -0.9949
18845TIP3    H277951   1.564   6.820  16.524  1.2491 -0.4005 -0.4748
18846TIP3   OH277952   5.402   1.626  10.218  0.3366 -0.6031 -0.3526
18846TIP3    H177953   5.313   1.624  10.183  0.2315 -0.0427 -0.1248
18846TIP3    H277954   5.413   1.541  10.261 -0.4710 -0.2525  0.5661
18847TIP3   OH277955   4.636   4.481   2.308  0.6261 -0.2628 -1.2867
18847TIP3    H177956   4.612   4.544   2.376 -0.8997 -0.9772 -1.1162
18847TIP3    H277957   4.713   4.436   2.342  2.2342  1.9496 -1.7312
18848TIP3   OH277958   6.302   4.048  12.059  0.3109 -0.2219  0.0655
18848TIP3    H177959   6.256   4.109  12.116 -0.0444 -0.0923 -0.3513
18848TIP3    H277960   6.285   3.962  12.096 -0.4089 -0.1917 -0.1692
18849TIP3   OH277961   6.062   1.839  13.175  0.2341  0.4138  0.2215
18849TIP3    H177962   6.024   1.871  13.093  0.8569  1.3803  0.2875
18849TIP3    H277963   6.071   1.917  13.229  1.3316  0.0484  0.5949
18850TIP3   OH277964   2.969   4.406  14.205  0.4032 -0.4054 -0.2269
18850TIP3    H177965   2.987   4.312  14.211  0.4848 -0.3477  0.4670
18850TIP3    H277966   3.052   4.448  14.226  0.6212 -0.1710 -1.4535
18851TIP3   OH277967   2.030   4.801   3.825 -0.1317 -0.5235  0.3859
18851TIP3    H177968   2.117   4.773   3.794 -0.1445 -0.4002  0.2367
18851TIP3    H277969   2.003   4.732   3.885  0.0374 -0.6023  0.3735
18852TIP3   OH277970   2.216   2.583  13.170 -0.3470 -0.3816 -0.0403
18852TIP3    H177971   2.303   2.546  13.154  0.9549  2.4693 -0.0808
18852TIP3    H277972   2.231   2.677  13.180 -3.6291  0.4473 -1.6185
18853TIP3   OH277973   5.692   6.034   6.366  0.4337  0.5014  0.0634
18853TIP3    H177974   5.646   5.950   6.367  1.5359 -0.1545 -1.2615
18853TIP3    H277975   5.729   6.041   6.454 -1.4385  0.6592  0.8964
18854TIP3   OH277976   4.260   3.538   1.275  0.2713  0.1818  0.1809
18854TIP3    H177977   4.218   3.546   1.360 -0.3196 -0.0489 -0.0805
18854TIP3    H277978   4.236   3.618   1.228  0.4288  0.2177  0.1601
18855TIP3   OH277979   5.870   3.750  16.931 -0.5830 -0.1197  0.0283
18855TIP3    H177980   5.935   3.720  16.867 -0.4554  3.0988 -1.5132
18855TIP3    H277981   5.792   3.696  16.913 -0.0861 -0.2578 -1.8765
18856TIP3   OH277982   6.437   4.613  13.491  0.1192 -0.3745 -0.3445
18856TIP3    H177983   6.441   4.707  13.470 -0.0220 -0.1713  0.5000
18856TIP3    H277984   6.522   4.579  13.465  0.7942  0.3295  0.8640
18857TIP3   OH277985   4.535   6.275  11.958  0.0209 -0.2696 -0.4238
18857TIP3    H177986   4.563   6.185  11.943  0.8627 -0.4128  1.6254
18857TIP3    H277987   4.440   6.272  11.951 -0.1549 -1.8217  1.6760
18858TIP3   OH277988   2.262   1.927   6.613 -0.0106  0.0888 -0.8575
18858TIP3    H177989   2.334   1.897   6.557  1.4072  1.9845 -0.1303
18858TIP3    H277990   2.234   2.009   6.574  2.0517  2.3000  1.9329
18859TIP3   OH277991   0.424   0.948  13.926  0.2773  0.0224  0.6533
18859TIP3    H177992   0.400   0.882  13.861 -0.1503  1.0434 -0.2554
18859TIP3    H277993   0.498   0.910  13.973  0.5613 -0.7651 -0.3962
18860TIP3   OH277994   6.470   6.248  15.872 -0.4158 -0.0654 -0.0865
18860TIP3    H177995   6.388   6.279  15.912 -0.6226 -2.3700  1.4904
18860TIP3    H277996   6.539   6.289  15.925 -0.5442  0.7302 -0.5078
18861TIP3   OH277997   5.131   2.461   0.505 -0.1119 -0.1225 -0.1335
18861TIP3    H177998   5.091   2.380   0.536 -1.7680  0.4758 -0.5575
18861TIP3    H277999   5.072   2.491   0.435  1.1878  0.7633 -0.8879
18862TIP3   OH278000   2.894   3.895  12.266 -0.3022 -0.1490 -0.0820
18862TIP3    H178001   2.864   3.850  12.345  0.9529 -0.6391  0.1393
18862TIP3    H278002   2.900   3.987  12.292 -0.1878 -0.2651  0.3127
18863TIP3   OH278003   3.794   1.694   0.957  0.2690 -0.5440 -0.3256
18863TIP3    H178004   3.877   1.711   1.001  0.2327 -2.5989  0.6572
18863TIP3    H278005   3.816   1.689   0.864  1.8596 -3.6693  0.0748
18864TIP3   OH278006   3.231   0.294  13.707  0.3976  0.3185 -0.0265
18864TIP3    H178007   3.244   0.311  13.613  0.7475  0.0375 -0.0333
18864TIP3    H278008   3.261   0.374  13.750 -0.4163  0.7138 -0.1903
18865TIP3   OH278009   2.050   5.396   5.746 -0.5584 -0.4673 -0.0193
18865TIP3    H178010   2.090   5.353   5.671 -0.0749  0.6947 -0.4551
18865TIP3    H278011   2.018   5.325   5.801 -0.5619 -1.3418 -1.1319
18866TIP3   OH278012   0.817   4.092   4.890  0.2799  0.1669  0.0615
18866TIP3    H178013   0.851   4.163   4.944  0.3845 -0.8828  1.4192
18866TIP3    H278014   0.722   4.106   4.891  0.2503 -0.0130  0.7996
18867TIP3   OH278015   4.409   5.520   5.536 -0.0063 -0.4555 -0.0402
18867TIP3    H178016   4.361   5.442   5.564  0.5102 -0.4561  0.8870
18867TIP3    H278017   4.385   5.587   5.600  0.3610 -0.1477 -0.2212
18868TIP3   OH278018   1.635   1.587  16.265 -1.3483  0.1501  0.3940
18868TIP3    H178019   1.640   1.644  16.341 -1.2405  2.0248 -0.9318
18868TIP3    H278020   1.542   1.585  16.242 -1.6448 -1.8685  1.5590
18869TIP3   OH278021   5.208   3.900   1.387  0.1711 -0.2625 -0.2837
18869TIP3    H178022   5.282   3.957   1.366  1.1136 -0.8027  1.3472
18869TIP3    H278023   5.141   3.959   1.423  0.1862  0.1016 -0.8428
18870TIP3   OH278024   5.860   1.404  14.227 -0.7722 -0.1870 -0.0023
18870TIP3    H178025   5.875   1.338  14.295  0.3177 -0.2064 -0.2398
18870TIP3    H278026   5.864   1.354  14.145  1.0391  0.2848 -0.2468
18871TIP3   OH278027   3.288   4.527  15.721  0.2198  0.2893 -0.0930
18871TIP3    H178028   3.194   4.544  15.732  0.5899  1.8118  1.2539
18871TIP3    H278029   3.305   4.449  15.773 -0.4924 -0.7592 -1.3804
18872TIP3   OH278030   6.443   3.419  16.116  0.1702 -0.2400 -0.2166
18872TIP3    H178031   6.426   3.450  16.027  3.6462  0.2442 -0.8693
18872TIP3    H278032   6.469   3.328  16.106  1.5236  0.0769  0.1009
18873TIP3   OH278033   1.358   2.299  11.010 -0.4765 -0.3052 -0.3001
18873TIP3    H178034   1.401   2.297  11.095 -0.9614 -2.0617 -0.0645
18873TIP3    H278035   1.283   2.357  11.022  0.7817  1.4138 -0.2493
18874TIP3   OH278036   3.231   1.708  14.655 -0.1381 -0.0316 -0.2346
18874TIP3    H178037   3.281   1.770  14.709 -0.5774 -1.1550  1.5440
18874TIP3    H278038   3.281   1.626  14.661 -1.5395 -0.8591  0.6457
18875TIP3   OH278039   0.030   0.994  14.867  0.0589  0.7636 -0.2228
18875TIP3    H178040   0.100   1.044  14.909 -0.7505  0.7107  1.2467
18875TIP3    H278041  -0.021   1.059  14.820  0.3984  0.9708 -0.3097
18876TIP3   OH278042   0.326   5.909  15.905 -0.1833 -0.4532 -0.1248
18876TIP3    H178043   0.393   5.845  15.882 -0.4262 -0.4249 -0.9355
18876TIP3    H278044   0.243   5.861  15.899 -0.2992 -0.2861  0.1102
18877TIP3   OH278045   6.212   3.843   3.178 -0.3198  0.2536 -0.2660
18877TIP3    H178046   6.272   3.901   3.131  1.6302 -0.1606  1.5557
18877TIP3    H278047   6.212   3.876   3.268  1.2971 -2.7363  0.9886
18878TIP3   OH278048   6.128   3.129  13.154 -0.0796  0.2438  0.4356
18878TIP3    H178049   6.202   3.142  13.213  0.2027  0.9531 -0.0658
18878TIP3    H278050   6.112   3.215  13.116 -0.0261 -0.2759 -0.7933
18879TIP3   OH278051   0.915   6.059  14.036  0.5374  0.0139 -0.0180
18879TIP3    H178052   0.921   6.150  14.006  0.2633 -0.0708 -0.3355
18879TIP3    H278053   0.821   6.041  14.039  0.5487  0.1089  1.1844
18880TIP3   OH278054   4.392   4.458  14.259 -0.4467 -0.3979 -0.5682
18880TIP3    H178055   4.307   4.426  14.290 -0.5579 -1.0744 -1.5287
18880TIP3    H278056   4.386   4.453  14.164  0.6085 -0.2889 -0.6466
18881TIP3   OH278057   1.050   5.862   2.349  0.2856  0.3258 -0.4640
18881TIP3    H178058   1.138   5.846   2.314 -0.1978 -1.2017 -1.0329
18881TIP3    H278059   1.010   5.776   2.354  0.0291  0.5148  3.1973
18882TIP3   OH278060   4.371   5.235   3.847  0.5241 -0.1259 -0.3939
18882TIP3    H178061   4.338   5.317   3.810 -0.0614 -0.4977 -0.7087
18882TIP3    H278062   4.388   5.179   3.772  3.4060  0.5605 -0.3793
18883TIP3   OH278063   5.305   4.889  14.992  0.3119 -0.6344  0.1829
18883TIP3    H178064   5.358   4.958  14.951  1.2826 -0.7373  1.2053
18883TIP3    H278065   5.320   4.901  15.086  0.6426 -2.3485  0.3725
18884TIP3   OH278066   5.302   3.452   0.434 -0.7723 -0.0500  0.6040
18884TIP3    H178067   5.313   3.410   0.519 -1.0396 -1.0620  0.1549
18884TIP3    H278068   5.285   3.544   0.455 -1.9579 -0.4869  1.6980
18885TIP3   OH278069   3.370   3.147   2.824 -0.5943  0.1034 -0.0600
18885TIP3    H178070   3.420   3.224   2.852 -0.6181 -0.3660  1.3891
18885TIP3    H278071   3.279   3.177   2.822 -0.9370 -0.3827  2.8468
18886TIP3   OH278072   2.756   0.885  16.763  0.7128 -0.2514 -0.4619
18886TIP3    H178073   2.775   0.822  16.694  0.8305 -1.0012  0.2386
18886TIP3    H278074   2.769   0.836  16.844  0.9700  0.7219  0.0994
18887TIP3   OH278075   4.950   3.500  14.112  0.0474 -0.2681  0.2132
18887TIP3    H178076   5.042   3.521  14.094  0.2877 -1.5118 -0.0861
18887TIP3    H278077   4.953   3.419  14.162 -0.8222  0.7489  2.0324
18888TIP3   OH278078   4.387   3.415  16.344  0.2027  0.0246  0.3545
18888TIP3    H178079   4.406   3.422  16.250  1.6631  0.5724  0.6768
18888TIP3    H278080   4.443   3.344  16.374  0.7311  0.7381  1.0674
18889TIP3   OH278081   2.753   2.325   5.757 -0.5170 -0.0631  0.4501
18889TIP3    H178082   2.703   2.324   5.675  0.9617 -0.9843 -0.4828
18889TIP3    H278083   2.708   2.262   5.813 -1.6416  0.6986  0.4375
18890TIP3   OH278084   5.901   0.948  14.385 -0.0446  1.2576  0.1374
18890TIP3    H178085   5.885   0.853  14.380  0.8694  1.1370 -0.9424
18890TIP3    H278086   5.988   0.956  14.423  0.6417  1.5648 -1.4063
18891TIP3   OH278087   2.190   4.691   4.135  0.1419 -0.4912  0.4382
18891TIP3    H178088   2.141   4.693   4.053  1.3123  0.4653 -0.2713
18891TIP3    H278089   2.261   4.755   4.122  0.5151 -0.5320  2.0868
18892TIP3   OH278090   4.593   6.494  12.209 -0.2171 -0.0165 -0.5121
18892TIP3    H178091   4.672   6.520  12.256 -1.7841  1.1113  1.6576
18892TIP3    H278092   4.579   6.403  12.234  0.0661 -0.0432 -0.4456
18893TIP3   OH278093   5.391   3.016   3.786  0.2355  0.7196 -0.1280
18893TIP3    H178094   5.324   2.948   3.794  1.9985 -1.1877 -0.7183
18893TIP3    H278095   5.359   3.073   3.716 -0.7080 -0.1990 -0.4781
18894TIP3   OH278096   3.720   4.748   1.288  0.5089  0.2674 -0.5555
18894TIP3    H178097   3.685   4.659   1.286  0.4786  0.1132  2.3783
18894TIP3    H278098   3.800   4.745   1.236  2.1462 -2.3097  1.8691
18895TIP3   OH278099   2.007   5.165   2.046 -0.0936 -0.5260  0.0169
18895TIP3    H178100   1.925   5.135   2.007 -0.4581 -1.4836  1.4424
18895TIP3    H278101   2.051   5.085   2.074  0.4978  0.0822  0.8696
18896TIP3   OH278102   5.617   4.448   5.465  0.2447  0.2892  0.2396
18896TIP3    H178103   5.529   4.468   5.496  0.2516 -0.6742  0.9333
18896TIP3    H278104   5.605   4.372   5.408  0.2003  2.1368 -2.4063
18897TIP3   OH278105   3.507   5.527   0.667  0.0000 -0.2703  0.1854
18897TIP3    H178106   3.573   5.484   0.614  0.6128 -1.4215  1.8047
18897TIP3    H278107   3.538   5.617   0.678 -0.3503  0.1203 -1.6730
18898TIP3   OH278108   3.134   6.786   0.267 -0.2853 -0.6249  0.2615
18898TIP3    H178109   3.124   6.791   0.362 -0.0072 -0.3273  0.2727
18898TIP3    H278110   3.044   6.780   0.234 -0.4166  0.0166  0.4961
18899TIP3   OH278111   2.601   3.839  11.584  0.0900 -0.3331 -0.0558
18899TIP3    H178112   2.657   3.882  11.649  0.3845  1.1591 -1.2593
18899TIP3    H278113   2.519   3.821  11.631  0.7440 -0.4585  1.0732
18900TIP3   OH278114   0.870   0.117   2.562  0.1179 -0.3681  0.8406
18900TIP3    H178115   0.848   0.153   2.477  0.4855  0.2947  1.0250
18900TIP3    H278116   0.900   0.028   2.544 -0.6198 -0.5300  0.3700
18901TIP3   OH278117   5.017   2.404  11.159  0.3858 -0.4820 -0.3570
18901TIP3    H178118   4.964   2.427  11.083  0.1239 -0.2586 -0.1109
18901TIP3    H278119   4.995   2.470  11.224 -1.0670 -1.9236  0.6943
18902TIP3   OH278120   5.752   4.538  16.983 -0.2562  0.2530  0.5436
18902TIP3    H178121   5.841   4.543  16.948  0.4683 -0.3100  2.2130
18902TIP3    H278122   5.751   4.456  17.033 -2.0833 -0.3565 -0.3900
18903TIP3   OH278123   4.757   2.947   0.956 -0.3434 -0.3695  0.1019
18903TIP3    H178124   4.850   2.944   0.980 -0.4961  0.3717  0.8148
18903TIP3    H278125   4.757   2.931   0.861  0.9379  3.6970 -0.7968
18904TIP3   OH278126   3.812   0.237  11.816 -0.4397  0.2428  0.0994
18904TIP3    H178127   3.720   0.230  11.791 -0.0888  0.2681 -1.3044
18904TIP3    H278128   3.860   0.204  11.740  0.7087 -0.0857  0.9309
18905TIP3   OH278129   5.588   5.330   3.704 -0.2713 -0.5700 -0.3631
18905TIP3    H178130   5.653   5.290   3.646 -0.0509  0.2292 -0.6789
18905TIP3    H278131   5.510   5.341   3.649 -0.2316 -0.2933 -0.3670
18906TIP3   OH278132   3.182   0.491   5.906  0.3449 -0.0276  0.3414
18906TIP3    H178133   3.231   0.442   5.972 -0.8573  0.9369  2.0119
18906TIP3    H278134   3.101   0.441   5.895  0.8273 -0.5720 -0.9926
18907TIP3   OH278135   5.251   5.024  10.618  0.0805  0.4826  0.5459
18907TIP3    H178136   5.256   4.929  10.628 -2.2014  0.2629  0.2494
18907TIP3    H278137   5.268   5.040  10.526 -1.1724  0.1654  0.2467
18908TIP3   OH278138   1.541   2.584  15.049  0.2740 -0.0232 -0.4527
18908TIP3    H178139   1.623   2.633  15.050  0.9283 -1.0842 -0.1108
18908TIP3    H278140   1.486   2.630  14.986  0.7876  1.2413 -0.0210
18909TIP3   OH278141   1.057   4.113  12.092 -0.2619 -1.1627  0.1290
18909TIP3    H178142   1.128   4.109  12.028 -1.7758  1.0046 -1.8887
18909TIP3    H278143   0.980   4.080  12.046 -1.5204  0.9668  0.5118
18910TIP3   OH278144   5.396   4.555   3.450  0.3959 -0.2279 -0.3653
18910TIP3    H178145   5.390   4.489   3.381 -2.2742 -0.9853  0.4893
18910TIP3    H278146   5.307   4.564   3.484  0.8744  2.8853  0.4656
18911TIP3   OH278147   5.605   0.969  12.088 -0.6704 -0.6438  0.0474
18911TIP3    H178148   5.576   0.893  12.038  0.7585 -0.7580 -0.6495
18911TIP3    H278149   5.700   0.974  12.072 -0.6634  1.0331  0.4010
18912TIP3   OH278150   0.004   5.357   0.965  0.3674  0.0357 -0.0719
18912TIP3    H178151  -0.062   5.353   0.896  1.1485 -0.8873 -0.7926
18912TIP3    H278152  -0.023   5.430   1.020 -0.2801  0.7977 -1.3507
18913TIP3   OH278153   4.950   6.492  15.598  0.0805 -0.0748  0.1830
18913TIP3    H178154   5.025   6.528  15.550  2.1828 -0.1785  3.0733
18913TIP3    H278155   4.906   6.569  15.635 -0.5777 -0.0723 -0.5984
18914TIP3   OH278156   6.203   0.664  13.989 -0.3442  0.1183  0.9125
18914TIP3    H178157   6.209   0.648  13.895  0.8370  0.4548  0.9212
18914TIP3    H278158   6.109   0.674  14.005 -0.5439  0.2843 -0.2691
18915TIP3   OH278159   2.578   1.131  17.023  0.0429 -0.3957 -0.3286
18915TIP3    H178160   2.538   1.045  17.035 -1.8458  0.4973  0.1378
18915TIP3    H278161   2.611   1.155  17.109 -0.9686  0.0376 -0.0398
18916TIP3   OH278162   6.744   4.759   1.767  0.0898  0.3875  0.2274
18916TIP3    H178163   6.708   4.838   1.726  0.5351 -0.2438 -1.4894
18916TIP3    H278164   6.698   4.686   1.724  0.4638 -0.3098  0.9819
18917TIP3   OH278165   6.200   1.308  11.461  0.3708 -0.5955  0.2236
18917TIP3    H178166   6.211   1.347  11.374 -0.1399 -0.8128  0.0578
18917TIP3    H278167   6.264   1.237  11.464 -0.3780 -1.3257 -0.4185
18918TIP3   OH278168   2.610   4.800   4.271  0.2065 -0.3579  0.0936
18918TIP3    H178169   2.640   4.721   4.225  0.1862 -0.5443  0.4007
18918TIP3    H278170   2.559   4.767   4.345  0.9816 -0.0768  0.7607
18919TIP3   OH278171   3.163   2.336  12.332 -0.1892  0.8031 -0.3478
18919TIP3    H178172   3.169   2.356  12.239  0.8314  0.2692 -0.4092
18919TIP3    H278173   3.230   2.390  12.373  1.5245 -1.2197 -0.3286
18920TIP3   OH278174   1.737   5.796   5.597  0.2376 -0.0156 -0.5681
18920TIP3    H178175   1.782   5.847   5.529  1.1202 -0.9825 -0.7442
18920TIP3    H278176   1.651   5.776   5.560  0.5643 -0.1853 -1.2526
18921TIP3   OH278177   1.001   3.837  12.042 -0.4145  0.4134  0.2275
18921TIP3    H178178   0.953   3.910  12.003 -1.4147  0.7385  1.9704
18921TIP3    H278179   0.972   3.760  11.993 -0.8642  0.9150 -0.3124
18922TIP3   OH278180   0.224   1.255  10.326  0.4957 -0.8907 -0.3510
18922TIP3    H178181   0.296   1.308  10.295  0.9340 -1.6185 -0.6037
18922TIP3    H278182   0.147   1.289  10.281  0.8359 -0.7400 -0.8244
18923TIP3   OH278183   6.655   1.271   2.819  0.3729 -0.1546  0.0624
18923TIP3    H178184   6.735   1.225   2.795 -0.1838 -0.8674 -0.5016
18923TIP3    H278185   6.591   1.202   2.834 -0.0523  0.3932  0.8525
18924TIP3   OH278186   0.114   3.578   4.446 -0.1142 -0.1574  0.2826
18924TIP3    H178187   0.059   3.525   4.387  1.0077 -0.2922 -0.6817
18924TIP3    H278188   0.152   3.515   4.507 -0.5780 -0.1406  0.5928
18925TIP3   OH278189   3.521   4.017  15.478 -0.4112  0.0931  0.3693
18925TIP3    H178190   3.603   3.972  15.498 -0.2391  0.3684  0.2937
18925TIP3    H278191   3.453   3.952  15.493 -0.1958 -0.0609  0.6858
18926TIP3   OH278192   1.974   0.201  13.322  0.0355  0.2241 -0.3396
18926TIP3    H178193   1.930   0.281  13.293 -0.6779 -0.1755 -0.3796
18926TIP3    H278194   2.006   0.161  13.241 -0.5978 -0.1027 -0.4321
18927TIP3   OH278195   3.877   4.338   4.359 -1.2032  0.7609 -0.0544
18927TIP3    H178196   3.942   4.274   4.330 -1.1328  1.5165 -1.6339
18927TIP3    H278197   3.864   4.318   4.452  2.8179  1.8460  0.9387
18928TIP3   OH278198   6.694   5.086   5.776  0.4267  0.2011  0.3243
18928TIP3    H178199   6.725   5.111   5.688  0.0518  0.7267  0.3393
18928TIP3    H278200   6.743   5.142   5.835 -1.1334  1.6668  0.3061
18929TIP3   OH278201   1.545   0.881  12.608  0.3635 -0.3182 -0.1952
18929TIP3    H178202   1.550   0.876  12.513  0.2021 -1.1475 -0.1640
18929TIP3    H278203   1.635   0.866  12.638  0.7164  1.4377 -0.2564
18930TIP3   OH278204   2.862   2.867  13.940 -0.0526  0.1518  0.6148
18930TIP3    H178205   2.803   2.890  13.868  0.2632 -0.4373  0.1529
18930TIP3    H278206   2.821   2.903  14.018 -0.6118  0.4452  0.1901
18931TIP3   OH278207   1.076   0.096  12.922  0.0953 -0.0325 -0.2782
18931TIP3    H178208   1.042   0.010  12.900 -0.2146  0.5016 -1.9918
18931TIP3    H278209   1.026   0.157  12.868  0.2375  1.2603  0.9646
18932TIP3   OH278210   3.343   1.203  12.111 -0.1887 -0.8564  0.0511
18932TIP3    H178211   3.415   1.249  12.068 -1.3424  1.1113  0.0890
18932TIP3    H278212   3.353   1.225  12.204 -1.6113  0.6659 -0.1083
18933TIP3   OH278213   3.740   6.043  13.584  0.3370 -0.6971 -0.0092
18933TIP3    H178214   3.701   6.129  13.600  1.4663 -0.0098 -0.8639
18933TIP3    H278215   3.676   5.981  13.621 -1.4853  0.3772 -1.2218
18934TIP3   OH278216   4.417   0.813  17.047  0.1518 -0.2424  0.3677
18934TIP3    H178217   4.396   0.723  17.023 -1.3464 -0.0128  0.7626
18934TIP3    H278218   4.355   0.866  16.998 -0.4557  0.4415  1.8418
18935TIP3   OH278219   1.831   5.330   3.379  0.0955 -0.1275  0.0441
18935TIP3    H178220   1.809   5.423   3.378 -0.5817 -0.2246 -2.8046
18935TIP3    H278221   1.913   5.325   3.329 -0.1361 -1.1010 -0.2470
18936TIP3   OH278222   3.115   1.956  15.216  0.0754  0.3270  0.0647
18936TIP3    H178223   3.080   1.886  15.159  1.3033 -2.3386  2.3518
18936TIP3    H278224   3.195   1.985  15.172  0.4244 -0.8954 -0.1359
18937TIP3   OH278225   1.388   2.865   0.203 -0.2045  0.3248  0.1799
18937TIP3    H178226   1.333   2.914   0.264  0.1962 -0.2491  1.0222
18937TIP3    H278227   1.334   2.855   0.125 -0.5467  1.5000  0.2360
18938TIP3   OH278228   4.477   6.417   3.761 -0.0183  0.4012  0.3419
18938TIP3    H178229   4.508   6.340   3.713 -0.4174  0.0550  0.6388
18938TIP3    H278230   4.554   6.474   3.767 -0.0508  0.6134 -1.0127
18939TIP3   OH278231   3.081   6.078  12.612 -0.3582 -0.5672 -0.1475
18939TIP3    H178232   3.093   6.161  12.567  0.2919  0.1393  1.2666
18939TIP3    H278233   3.157   6.025  12.587  0.6088  0.2480  1.0033
18940TIP3   OH278234   0.331   5.100   6.077 -0.3609 -0.1065 -0.0329
18940TIP3    H178235   0.390   5.175   6.085  1.0636 -1.0082 -1.4295
18940TIP3    H278236   0.355   5.043   6.150  0.5005 -0.4373 -0.5556
18941TIP3   OH278237   5.562   3.448  11.010 -0.6225 -0.1526  0.1497
18941TIP3    H178238   5.588   3.520  11.067 -0.5905  0.5863 -0.7679
18941TIP3    H278239   5.645   3.414  10.976 -0.7076  1.3406 -1.7355
18942TIP3   OH278240   0.408   0.795  15.362  0.5681 -0.3767  0.0382
18942TIP3    H178241   0.398   0.793  15.266  2.0689  0.7069 -0.1726
18942TIP3    H278242   0.399   0.703  15.388  0.7575 -0.7748 -1.2081
18943TIP3   OH278243   2.689   5.149  11.968  0.0046  0.3475 -0.6197
18943TIP3    H178244   2.701   5.128  12.060  1.6679  1.4448 -0.5380
18943TIP3    H278245   2.654   5.069  11.929 -0.4125 -0.2271  0.8937
18944TIP3   OH278246   1.261   4.732  16.354 -0.2530 -0.1907 -0.4858
18944TIP3    H178247   1.342   4.775  16.382  1.4802 -2.9695 -0.8829
18944TIP3    H278248   1.241   4.671  16.425 -1.5350 -0.1568 -0.8058
18945TIP3   OH278249   0.784   1.671  16.699  0.1176  0.0432 -0.1595
18945TIP3    H178250   0.770   1.763  16.676 -1.1892  0.3390  1.5955
18945TIP3    H278251   0.713   1.650  16.760  1.1255 -1.7767  0.4810
18946TIP3   OH278252   4.187   4.218   2.501  0.5141 -0.1610  0.6912
18946TIP3    H178253   4.107   4.199   2.550 -0.8323 -0.2910 -1.4092
18946TIP3    H278254   4.256   4.170   2.546 -0.8870 -1.3473  1.6390
18947TIP3   OH278255   6.141   0.294   1.333 -0.5523 -0.0776 -0.3038
18947TIP3    H178256   6.129   0.379   1.290  0.5537  0.1858 -0.1265
18947TIP3    H278257   6.132   0.313   1.427  1.3423  0.1956 -0.1345
18948TIP3   OH278258   4.395   1.752  12.890 -0.1427 -0.1315 -0.7061
18948TIP3    H178259   4.414   1.670  12.936 -2.8100 -0.9373 -0.8511
18948TIP3    H278260   4.386   1.726  12.798 -0.8359  0.3386 -0.7775
18949TIP3   OH278261   4.856   2.230  11.300 -0.8947 -0.0557  0.2242
18949TIP3    H178262   4.903   2.268  11.226 -0.7682 -0.9366 -0.1637
18949TIP3    H278263   4.870   2.291  11.372  0.4273 -0.0481 -0.0153
18950TIP3   OH278264   1.852   4.468   3.272 -0.0569 -0.1015  0.3419
18950TIP3    H178265   1.804   4.534   3.222 -0.6563 -1.1657 -0.5479
18950TIP3    H278266   1.942   4.475   3.242  0.0344  0.7901  0.7952
18951TIP3   OH278267   6.158   4.941   2.252  0.0960 -0.0076 -0.3696
18951TIP3    H178268   6.069   4.933   2.218  0.0924  1.3252 -0.7254
18951TIP3    H278269   6.155   4.900   2.338 -0.7462 -0.3910 -0.5759
18952TIP3   OH278270   1.144   3.511  11.833 -0.1079  0.7578 -0.1080
18952TIP3    H178271   1.138   3.422  11.868  0.6313  0.1503 -1.4544
18952TIP3    H278272   1.057   3.529  11.798  0.1034  0.0100 -1.0610
18953TIP3   OH278273   2.982   0.880  11.205  0.1527  0.1750  0.4994
18953TIP3    H178274   3.069   0.856  11.171 -0.5384 -1.3483 -0.2693
18953TIP3    H278275   2.920   0.841  11.144 -1.1098  0.4076  1.5788
18954TIP3   OH278276   0.471   5.183   0.632 -0.2049  0.8940 -0.3456
18954TIP3    H178277   0.383   5.216   0.650 -0.2003  1.1436 -0.7521
18954TIP3    H278278   0.482   5.193   0.537 -0.1783 -0.2503 -0.4760
18955TIP3   OH278279   3.593   2.309   2.462  0.3055 -0.2857  0.0305
18955TIP3    H178280   3.660   2.329   2.397 -0.2100  0.3186 -0.3278
18955TIP3    H278281   3.573   2.217   2.449  2.3378 -0.9646  1.3397
18956TIP3   OH278282   3.366   5.931  15.497  0.0714  0.2375  0.0131
18956TIP3    H178283   3.285   5.900  15.539  0.6737 -0.4781  0.6673
18956TIP3    H278284   3.435   5.914  15.561  0.6702  1.4282 -0.2876
18957TIP3   OH278285   0.769   1.001   3.140  0.7212 -0.1790 -0.6478
18957TIP3    H178286   0.792   0.939   3.210  0.9092  2.1448  1.4958
18957TIP3    H278287   0.850   1.011   3.090  1.8937  1.0781  1.3177
18958TIP3   OH278288   2.200   1.278  12.793  0.1902  0.5557  0.3511
18958TIP3    H178289   2.246   1.220  12.853  0.1154  1.9537  1.8583
18958TIP3    H278290   2.255   1.356  12.788 -0.6857  1.1750  0.0481
18959TIP3   OH278291   3.067   6.153   3.989  0.0955  0.0914 -0.3733
18959TIP3    H178292   3.084   6.119   3.902  2.0415  0.6779 -0.2927
18959TIP3    H278293   2.989   6.207   3.980 -0.4112 -0.8011 -1.4673
18960TIP3   OH278294   4.278   2.344   1.517 -0.2859  0.5054  0.6906
18960TIP3    H178295   4.185   2.325   1.516 -0.2570  0.3493  1.0603
18960TIP3    H278296   4.291   2.398   1.595 -0.5957  3.2160 -0.9861
18961TIP3   OH278297   1.905   6.670   4.489 -0.1887 -0.3210  0.3930
18961TIP3    H178298   1.867   6.659   4.576 -0.1168 -1.3780  0.3049
18961TIP3    H278299   1.924   6.764   4.482 -0.5371 -0.1719  1.3661
18962TIP3   OH278300   0.837   5.425  12.508  0.5862 -0.9273 -0.4342
18962TIP3    H178301   0.874   5.393  12.426  0.2263  2.1720 -1.9385
18962TIP3    H278302   0.898   5.394  12.575  3.2549 -0.1682 -2.3127
18963TIP3   OH278303   2.997   3.379   0.465 -0.0820 -0.2052  0.3135
18963TIP3    H178304   3.015   3.389   0.371  0.7579 -0.5585  0.4334
18963TIP3    H278305   2.916   3.429   0.478  0.1172  0.3617 -0.4825
18964TIP3   OH278306   5.844   6.792   0.421 -0.2632  0.0359 -0.0234
18964TIP3    H178307   5.765   6.796   0.476  0.0048 -0.0660  0.3710
18964TIP3    H278308   5.836   6.709   0.375 -0.5309  0.1585 -0.2039
18965TIP3   OH278309   4.001   0.441  14.099  0.6400  0.0972  0.2314
18965TIP3    H178310   4.023   0.385  14.173  0.6277 -0.3697 -0.1122
18965TIP3    H278311   3.910   0.467  14.114  0.4875 -0.3789  0.1422
18966TIP3   OH278312   5.119   1.977  12.202 -0.0412 -0.6639 -0.0724
18966TIP3    H178313   5.135   1.883  12.197  2.3400 -0.4818  2.3399
18966TIP3    H278314   5.028   1.984  12.233  0.4156 -2.2611  1.8004
18967TIP3   OH278315   3.205   5.581   5.382 -0.9724 -0.0315 -0.9172
18967TIP3    H178316   3.242   5.547   5.300 -1.1241 -1.5719 -0.3678
18967TIP3    H278317   3.246   5.529   5.451 -1.5308  0.6261 -0.0658
18968TIP3   OH278318   4.307   1.294  12.945 -0.3642  0.0859 -0.0287
18968TIP3    H178319   4.323   1.221  13.005  0.9981  0.9091  0.6485
18968TIP3    H278320   4.237   1.344  12.986 -0.5055 -0.1995  0.0835
18969TIP3   OH278321   6.804   6.424   0.834  0.3474  0.2083 -0.0852
18969TIP3    H178322   6.800   6.421   0.738 -2.9502 -0.6935 -0.0365
18969TIP3    H278323   6.760   6.506   0.857  0.0768 -0.1426  0.6710
18970TIP3   OH278324   4.143   2.172   1.080 -0.2419  0.4276  0.0615
18970TIP3    H178325   4.206   2.110   1.117 -1.2844 -0.2160  0.8268
18970TIP3    H278326   4.133   2.146   0.989  1.6706  1.4555 -0.4889
18971TIP3   OH278327   1.002   2.307   0.447 -0.0418  0.0221 -0.1965
18971TIP3    H178328   0.918   2.352   0.451  0.8459  1.6925  0.5771
18971TIP3    H278329   0.980   2.214   0.445 -1.9544  0.4480 -1.8581
18972TIP3   OH278330   3.971   4.253  14.970  0.0789 -0.2773 -0.4785
18972TIP3    H178331   4.027   4.329  14.985 -0.7512 -0.1917  2.8529
18972TIP3    H278332   3.890   4.272  15.017 -1.6189 -1.7297 -2.5746
18973TIP3   OH278333   0.786   2.880  15.391  0.3622  0.1015  0.1718
18973TIP3    H178334   0.691   2.869  15.386  0.5132 -1.4025  0.3568
18973TIP3    H278335   0.819   2.841  15.310  0.8037  1.1581 -0.1791
18974TIP3   OH278336   0.536   5.438  13.053  0.3110 -0.4017 -0.3089
18974TIP3    H178337   0.585   5.470  12.977  1.9215 -1.6022  0.1846
18974TIP3    H278338   0.451   5.412  13.017  0.1782  1.1765 -1.2811
18975TIP3   OH278339   0.116   4.946  15.940 -0.1914  0.3670 -0.0684
18975TIP3    H178340   0.191   4.964  15.883  0.1930  1.6077  0.8080
18975TIP3    H278341   0.133   4.997  16.019 -0.8502 -1.1043  1.0629
18976TIP3   OH278342   4.005   3.539   3.692  0.3294  0.3830  0.1633
18976TIP3    H178343   4.089   3.569   3.658 -0.1051 -0.3898 -1.7375
18976TIP3    H278344   3.971   3.614   3.742  0.7828  1.8565 -1.6130
18977TIP3   OH278345   5.061   3.786  14.744  0.7845  0.1914  0.2597
18977TIP3    H178346   5.059   3.878  14.716  0.8671  0.2900  0.5653
18977TIP3    H278347   5.153   3.771  14.768  0.5960  0.3126  1.1063
18978TIP3   OH278348   5.724   4.857   4.611 -0.1008  0.9877 -0.2517
18978TIP3    H178349   5.655   4.860   4.678  0.8068  2.1839  0.6779
18978TIP3    H278350   5.683   4.895   4.533 -1.1288 -0.3010 -0.3750
18979TIP3   OH278351   0.506   0.232   5.268  0.2268 -0.4750  0.0744
18979TIP3    H178352   0.562   0.234   5.191 -0.1929 -1.0814 -0.2572
18979TIP3    H278353   0.548   0.291   5.330  1.8619 -1.7739  0.2677
18980TIP3   OH278354   3.941   3.086   5.448 -0.4190 -0.0688  0.4720
18980TIP3    H178355   3.865   3.034   5.422 -0.5038  0.3750 -0.1850
18980TIP3    H278356   4.015   3.039   5.411 -0.5699  0.7876 -1.0013
18981TIP3   OH278357   3.918   1.217   0.967  0.1728  0.5161  0.3671
18981TIP3    H178358   3.900   1.139   0.915 -0.0541  0.2550  0.8341
18981TIP3    H278359   3.949   1.183   1.051  1.4952  0.9359  0.0722
18982TIP3   OH278360   6.399   4.838  16.718  0.3695 -0.0485 -0.3465
18982TIP3    H178361   6.490   4.860  16.736 -0.2345  1.2861  1.4512
18982TIP3    H278362   6.362   4.917  16.680  0.3040 -1.1265 -2.6702
18983TIP3   OH278363   1.392   4.877  11.815  0.1978  0.0364  0.2607
18983TIP3    H178364   1.317   4.818  11.804 -0.6982  1.0487  0.7444
18983TIP3    H278365   1.401   4.920  11.730  1.5891 -1.5733 -0.4717
18984TIP3   OH278366   6.614   5.197  15.622  0.8927  0.2975 -0.5047
18984TIP3    H178367   6.580   5.283  15.645  0.2377  0.2305 -1.1791
18984TIP3    H278368   6.575   5.177  15.537  0.3692 -1.0242  0.0063
18985TIP3   OH278369   4.173   3.253   4.121 -0.1259  0.0975  0.0722
18985TIP3    H178370   4.241   3.233   4.185  0.5071  0.0205 -0.6179
18985TIP3    H278371   4.211   3.228   4.037  0.2512  3.0499 -0.7276
18986TIP3   OH278372   6.615   0.679   5.770  0.6709 -0.1537 -0.0376
18986TIP3    H178373   6.683   0.723   5.719  1.2717  0.6001  1.3529
18986TIP3    H278374   6.553   0.748   5.792  0.5911 -0.3971  0.5224
18987TIP3   OH278375   5.238   5.475  13.660 -0.0104 -0.2864 -0.6515
18987TIP3    H178376   5.266   5.539  13.725 -0.4744 -1.1940  0.4868
18987TIP3    H278377   5.320   5.440  13.625  0.2608 -0.2616 -0.0632
18988TIP3   OH278378   1.921   5.971   3.722 -0.3499  0.4488 -0.2785
18988TIP3    H178379   1.854   5.971   3.653 -2.8482 -0.3823  1.9508
18988TIP3    H278380   1.943   6.064   3.734 -2.3866  0.9444  0.0146
18989TIP3   OH278381   3.856   1.840   6.177 -0.3640  0.0358 -1.0284
18989TIP3    H178382   3.830   1.755   6.211 -1.1067  0.7535  0.2452
18989TIP3    H278383   3.919   1.819   6.107  0.8751 -1.5059  0.4599
18990TIP3   OH278384   2.270   6.527  16.425 -0.8745  0.0547 -0.3862
18990TIP3    H178385   2.280   6.571  16.341 -0.3076 -0.8235 -0.7885
18990TIP3    H278386   2.342   6.561  16.479 -1.9366  1.5335  0.1835
18991TIP3   OH278387   2.310   6.710   5.697 -0.3398  0.3338 -0.4618
18991TIP3    H178388   2.390   6.748   5.732 -0.9329  0.0933  1.2442
18991TIP3    H278389   2.242   6.736   5.760 -1.5129  0.1263 -1.6132
18992TIP3   OH278390   4.581   2.987  12.167  0.0368 -0.0556 -0.1117
18992TIP3    H178391   4.603   2.920  12.232  0.4659 -0.0601 -0.2541
18992TIP3    H278392   4.662   2.999  12.117  1.0328  2.8478  1.9061
18993TIP3   OH278393   3.742   2.158  16.536 -0.3826 -0.2119 -0.4917
18993TIP3    H178394   3.741   2.130  16.628 -1.4297  1.5135  0.0726
18993TIP3    H278395   3.718   2.251  16.539  0.1629  0.0443 -2.4764
18994TIP3   OH278396   4.248   2.606   3.173  0.2105  0.1783  0.4993
18994TIP3    H178397   4.213   2.587   3.260  0.2211  0.1806  0.5041
18994TIP3    H278398   4.336   2.639   3.190  0.2478  0.0865  0.4816
18995TIP3   OH278399   1.778   0.297   0.764 -0.3746  0.4972  0.6721
18995TIP3    H178400   1.827   0.218   0.786 -0.9032 -0.5551 -1.6077
18995TIP3    H278401   1.842   0.367   0.767  0.9099 -0.5704 -0.5336
18996TIP3   OH278402   0.396   6.506  16.074  0.1452 -0.0736  0.1461
18996TIP3    H178403   0.452   6.521  16.150  0.7723 -0.1634 -0.2836
18996TIP3    H278404   0.382   6.594  16.037 -2.1743  0.2909  1.7174
18997TIP3   OH278405   5.687   3.354  15.671 -0.4285 -0.1221  0.5605
18997TIP3    H178406   5.744   3.318  15.738 -0.5815  0.4772  1.0190
18997TIP3    H278407   5.602   3.364  15.713 -0.8794 -0.9761 -0.1085
18998TIP3   OH278408   4.965   5.548   3.261 -0.5883 -0.2700  0.5748
18998TIP3    H178409   4.977   5.591   3.346 -1.5732  1.1737  0.0281
18998TIP3    H278410   5.053   5.525   3.232 -0.2330 -0.6514  1.9062
18999TIP3   OH278411   3.566   5.415   0.027  0.6062  0.4059  0.0312
18999TIP3    H178412   3.632   5.466  -0.019 -0.5360  1.3437 -0.6471
18999TIP3    H278413   3.483   5.441  -0.015 -0.1650 -0.8652  0.7171
19000TIP3   OH278414   0.701   3.159   2.287  0.7915  0.2856 -0.4198
19000TIP3    H178415   0.678   3.202   2.369  1.9625  2.4787 -1.1619
19000TIP3    H278416   0.646   3.202   2.222 -0.2687 -1.5594 -0.8265
19001TIP3   OH278417   3.798   4.605   4.931 -0.0327 -0.1425  0.1752
19001TIP3    H178418   3.814   4.651   4.849  1.2764 -1.3503 -0.2950
19001TIP3    H278419   3.713   4.563   4.920  1.6558 -3.2989 -2.0946
19002TIP3   OH278420   0.165   0.216   2.832  0.5694 -0.2608  0.3525
19002TIP3    H178421   0.136   0.157   2.763 -0.3485  0.1020  0.4185
19002TIP3    H278422   0.210   0.287   2.786 -0.5815  0.3035  0.0454
19003TIP3   OH278423   1.577   5.375  15.885  0.0749 -0.4035  0.1021
19003TIP3    H178424   1.557   5.382  15.791  0.5608 -2.3619 -0.1959
19003TIP3    H278425   1.629   5.453  15.904 -0.3485  0.2257 -1.1653
19004TIP3   OH278426   1.406   0.579  14.169  0.3686  0.2233 -0.1710
19004TIP3    H178427   1.410   0.556  14.076 -0.6578 -1.7860  0.2347
19004TIP3    H278428   1.443   0.503  14.214  1.4413  1.4279  1.0723
19005TIP3   OH278429   5.629   0.377  13.223 -0.4063  0.1866  0.2455
19005TIP3    H178430   5.577   0.366  13.302 -0.3876  0.0707  0.2413
19005TIP3    H278431   5.639   0.472  13.214 -0.8754  0.2194  0.0720
19006TIP3   OH278432   0.213   4.765   3.177  0.4535 -0.4068 -0.0578
19006TIP3    H178433   0.168   4.689   3.140 -0.0138  1.1531 -3.0335
19006TIP3    H278434   0.305   4.738   3.181  0.0572 -1.7288  0.7506
19007TIP3   OH278435   2.905   1.390   1.914  0.3980 -0.4576 -0.1387
19007TIP3    H178436   2.867   1.306   1.940 -1.1558  0.4386  0.5552
19007TIP3    H278437   2.933   1.430   1.996  0.7307 -0.0965 -0.4263
19008TIP3   OH278438   6.557   4.211   5.163 -0.0694 -0.6523  0.1297
19008TIP3    H178439   6.502   4.242   5.235  0.8720  2.2039 -0.2325
19008TIP3    H278440   6.636   4.177   5.206 -0.1929 -0.4804  0.5002
19009TIP3   OH278441   6.025   3.144  16.286  0.1331 -0.0034 -0.2399
19009TIP3    H178442   6.054   3.053  16.278  0.7892  0.0757  0.9673
19009TIP3    H278443   6.046   3.168  16.376 -0.2705  1.2724 -0.4617
19010TIP3   OH278444   1.172   5.555  16.614  0.4308 -0.2417  0.4493
19010TIP3    H178445   1.170   5.604  16.531  1.5687  0.2309  0.6839
19010TIP3    H278446   1.165   5.463  16.587 -2.3466  0.0097  0.0377
19011TIP3   OH278447   4.874   3.913   3.416 -0.0963 -0.4628  0.3533
19011TIP3    H178448   4.955   3.940   3.460 -0.0641  2.0899 -1.0973
19011TIP3    H278449   4.896   3.831   3.372  2.0140  0.6006 -0.7085
19012TIP3   OH278450   1.914   2.877  14.015 -1.1424  0.5717  0.0586
19012TIP3    H178451   1.914   2.782  14.029 -0.9365  0.7207  1.0975
19012TIP3    H278452   1.851   2.890  13.943 -2.3966 -0.1982  0.9637
19013TIP3   OH278453   5.122   2.119  11.969 -0.1465 -0.1715  0.2754
19013TIP3    H178454   5.085   2.046  11.920  1.1782 -0.9067  0.3169
19013TIP3    H278455   5.152   2.080  12.051 -0.7307  0.7098  0.9249
19014TIP3   OH278456   0.878   0.892  14.895 -0.0829 -0.2049 -0.0942
19014TIP3    H178457   0.884   0.852  14.982 -1.2682  0.0702  0.1350
19014TIP3    H278458   0.923   0.830  14.837 -2.5261 -2.3547  0.1147
19015TIP3   OH278459   3.684   3.374   2.518 -0.1003 -0.3502  0.6355
19015TIP3    H178460   3.699   3.405   2.607  1.6287  0.7559  0.0192
19015TIP3    H278461   3.642   3.446   2.473  1.6841  0.2711 -0.1552
19016TIP3   OH278462   2.731   4.183  13.764 -0.3024  0.7970 -0.2049
19016TIP3    H178463   2.641   4.164  13.789 -0.8164  0.0729 -2.3379
19016TIP3    H278464   2.780   4.104  13.786 -0.7669  0.1279 -1.4730
19017TIP3   OH278465   4.806   6.436  13.013 -0.2900 -0.2825  0.0669
19017TIP3    H178466   4.829   6.529  13.011  1.0385 -0.5565  1.2458
19017TIP3    H278467   4.859   6.397  12.943  0.4862 -0.4135  0.7155
19018TIP3   OH278468   1.137   6.379  11.792  0.1085  0.6620 -0.3000
19018TIP3    H178469   1.176   6.312  11.736  1.8697 -0.9316  2.5617
19018TIP3    H278470   1.085   6.329  11.856  0.4772  2.0692  1.1813
19019TIP3   OH278471   3.821   0.459   0.037  0.2812 -0.2501  0.3605
19019TIP3    H178472   3.822   0.479  -0.056  0.5394 -1.3299  0.1212
19019TIP3    H278473   3.888   0.392   0.049  1.0551  0.6961  1.5264
19020TIP3   OH278474   4.538   1.086   1.290  0.1665  0.4401  0.1674
19020TIP3    H178475   4.536   0.991   1.284 -0.3915  0.2693  2.1637
19020TIP3    H278476   4.472   1.116   1.228  0.8252 -0.4171 -0.9759
19021TIP3   OH278477   3.684   6.635  14.384  0.3215 -0.1990  0.1923
19021TIP3    H178478   3.610   6.696  14.389  0.4750  0.0166 -0.0873
19021TIP3    H278479   3.657   6.559  14.435  0.7542  0.7526  1.9386
19022TIP3   OH278480   3.899   2.785   4.980  0.0101  0.3154 -0.0714
19022TIP3    H178481   3.994   2.783   4.979  0.0453  1.3407 -0.8851
19022TIP3    H278482   3.877   2.859   5.037 -0.3187 -0.2612  0.5656
19023TIP3   OH278483   0.752   2.348   4.264  0.5387  0.3155 -0.1743
19023TIP3    H178484   0.706   2.386   4.189 -0.0618  0.3961  0.2298
19023TIP3    H278485   0.842   2.333   4.233  0.3253  0.4677 -0.8656
19024TIP3   OH278486   2.210   4.521   1.726  0.2133  0.2989 -0.2549
19024TIP3    H178487   2.116   4.511   1.736 -0.0699  0.5148 -2.2716
19024TIP3    H278488   2.222   4.610   1.694  1.0518  0.1334 -0.4351
19025TIP3   OH278489   0.315   5.376  16.109 -0.4557 -0.5670  0.0784
19025TIP3    H178490   0.379   5.431  16.064  0.1770 -0.4905  1.0372
19025TIP3    H278491   0.292   5.426  16.187  0.9183 -2.0746  1.5174
19026TIP3   OH278492   1.878   4.624   0.604 -0.2252 -0.2525  0.0615
19026TIP3    H178493   1.894   4.587   0.690 -1.9776 -1.1846  0.0224
19026TIP3    H278494   1.875   4.719   0.618  0.7977 -0.3142  0.7729
19027TIP3   OH278495   6.596   1.143  15.195 -0.2296 -0.0246  0.5068
19027TIP3    H178496   6.538   1.217  15.215  0.9082  1.3141 -0.8373
19027TIP3    H278497   6.663   1.146  15.264 -1.2352 -1.0513  1.5723
19028TIP3   OH278498   4.148   3.987   5.013 -0.1127  0.1639  0.8645
19028TIP3    H178499   4.098   3.919   4.968  1.3067 -0.2604 -0.1554
19028TIP3    H278500   4.129   4.067   4.965  0.1150  0.0193  0.5287
19029TIP3   OH278501   6.673   0.804  11.114 -0.8855 -0.0673  0.0750
19029TIP3    H178502   6.758   0.765  11.135 -1.6758 -1.3317  1.0482
19029TIP3    H278503   6.631   0.740  11.056 -0.7977  1.0122 -1.2334
19030TIP3   OH278504   0.808   0.675   4.293  0.0024 -0.2618 -0.1056
19030TIP3    H178505   0.752   0.604   4.324 -1.7995  1.3457  0.4858
19030TIP3    H278506   0.762   0.711   4.217 -0.4408  1.8083  1.0585
19031TIP3   OH278507   1.966   5.299   4.340  0.0904  0.1378 -0.2912
19031TIP3    H178508   1.872   5.290   4.352  0.3343 -2.7944  0.3373
19031TIP3    H278509   1.995   5.351   4.414 -1.0351  1.3365 -0.6592
19032TIP3   OH278510   5.679   3.564  14.386  0.5333 -0.5310  0.0312
19032TIP3    H178511   5.601   3.541  14.437  0.0946 -0.2968 -0.5263
19032TIP3    H278512   5.751   3.517  14.429 -0.2628 -2.6701 -0.8281
19033TIP3   OH278513   0.194   3.512  13.558  0.2191 -0.4690 -0.1033
19033TIP3    H178514   0.111   3.530  13.516  0.5902  1.5931 -0.0432
19033TIP3    H278515   0.225   3.431  13.517 -0.9043 -0.2164 -1.5144
19034TIP3   OH278516   5.361   3.440   4.996  0.1408 -0.1714  0.5988
19034TIP3    H178517   5.408   3.357   4.988  2.2646  0.9672  0.5277
19034TIP3    H278518   5.285   3.431   4.937  2.0188 -0.9587 -1.8496
19035TIP3   OH278519   0.654   3.365   2.847 -0.3332 -0.1450 -0.1598
19035TIP3    H178520   0.662   3.450   2.803 -0.2091  0.6079  1.2410
19035TIP3    H278521   0.577   3.325   2.807 -0.4162  0.6371 -0.8203
19036TIP3   OH278522   3.842   0.924   4.756  0.1233  0.0509 -0.8505
19036TIP3    H178523   3.817   1.013   4.732  1.0437  0.4992 -0.1881
19036TIP3    H278524   3.809   0.913   4.845 -0.0919 -0.3141 -0.9735
19037TIP3   OH278525   3.187   0.278   0.602 -0.7463  0.5204  0.0460
19037TIP3    H178526   3.109   0.324   0.632 -1.8762 -0.0614 -1.7822
19037TIP3    H278527   3.254   0.346   0.593 -0.1675  0.6714  4.0095
19038TIP3   OH278528   1.782   0.857  15.876  0.2388 -0.3231 -0.2165
19038TIP3    H178529   1.749   0.840  15.787  0.0006 -2.2106  0.1998
19038TIP3    H278530   1.832   0.779  15.899  0.3089  0.1352  1.3055
19039TIP3   OH278531   5.529   4.897  13.613 -0.3226 -0.1104  0.4369
19039TIP3    H178532   5.558   4.882  13.523 -1.5578 -0.6775  0.1056
19039TIP3    H278533   5.445   4.851  13.619 -1.2660  1.6286  1.2689
19040TIP3   OH278534   1.858   1.615  16.702 -0.0600  0.0294  0.2105
19040TIP3    H178535   1.766   1.621  16.726  0.1234  1.5468  0.5898
19040TIP3    H278536   1.904   1.668  16.767  1.1615 -1.1648  0.3707
19041TIP3   OH278537   3.299   4.862  16.231  0.7653 -0.0926  0.4069
19041TIP3    H178538   3.308   4.888  16.139  0.0841  1.0862  0.6489
19041TIP3    H278539   3.375   4.900  16.275  1.2970 -0.9841  0.2753
19042TIP3   OH278540   1.214   4.531  17.025 -0.3848 -0.2530 -0.0958
19042TIP3    H178541   1.175   4.444  17.021  1.6105 -1.3170  1.7089
19042TIP3    H278542   1.168   4.575  17.096 -0.8951 -0.1052 -0.5178
19043TIP3   OH278543   0.901   1.474  12.779  0.2515  0.4956  0.0649
19043TIP3    H178544   0.972   1.429  12.824  0.4623  1.1947  0.4454
19043TIP3    H278545   0.876   1.415  12.708  0.6626 -0.1163  0.4229
19044TIP3   OH278546   6.031   0.132   1.166  0.4706  0.3593 -0.2511
19044TIP3    H178547   6.077   0.196   1.219  0.1292 -0.1049  0.6234
19044TIP3    H278548   5.938   0.152   1.179  0.3184 -0.9887  0.9209
19045TIP3   OH278549   0.502   2.872  15.330  0.0302 -0.0072  0.3429
19045TIP3    H178550   0.426   2.859  15.273  0.6567 -2.2157 -0.0400
19045TIP3    H278551   0.522   2.785  15.364  1.0525  0.9018  2.2009
19046TIP3   OH278552   3.737   5.703  15.478  0.1464  0.3568  0.3177
19046TIP3    H178553   3.778   5.620  15.502  2.2987  1.7847  1.9877
19046TIP3    H278554   3.682   5.726  15.553 -0.9921  0.1697 -0.4248
19047TIP3   OH278555   0.375   2.197  11.743  0.4853  0.3712  0.9326
19047TIP3    H178556   0.323   2.119  11.725 -1.7164  1.8073  0.7575
19047TIP3    H278557   0.365   2.212  11.837 -0.3837  1.2601  0.7201
19048TIP3   OH278558   2.763   6.753   0.435  0.0659  0.3211 -0.1628
19048TIP3    H178559   2.711   6.689   0.482 -0.0576  0.7361  0.2795
19048TIP3    H278560   2.837   6.772   0.493  0.7486 -0.3088 -0.8108
19049TIP3   OH278561   5.589   4.662   0.454  0.5646  0.3831  0.0328
19049TIP3    H178562   5.643   4.741   0.444  2.2540 -0.6392  0.6679
19049TIP3    H278563   5.518   4.673   0.390  0.7981  2.3651  0.0655
19050TIP3   OH278564   3.444   1.902   6.762  0.1187  0.0173 -0.1825
19050TIP3    H178565   3.422   1.995   6.766 -0.6322 -0.1436 -0.3102
19050TIP3    H278566   3.532   1.900   6.725 -0.1458  0.6556 -0.8937
19051TIP3   OH278567   4.691   0.848  15.978  0.5144 -0.5643  0.5395
19051TIP3    H178568   4.742   0.922  15.944 -0.8863  0.7691  1.1867
19051TIP3    H278569   4.719   0.773  15.925  1.0927  0.6732 -0.9927
19052TIP3   OH278570   5.636   0.791  12.934  0.5263  0.2043 -0.5483
19052TIP3    H178571   5.569   0.738  12.976 -1.1978  0.2760 -3.0578
19052TIP3    H278572   5.608   0.882  12.949  2.3873  0.4812  1.9716
19053TIP3   OH278573   3.156   4.219   3.563 -0.2487 -0.3393  0.1185
19053TIP3    H178574   3.075   4.270   3.560 -0.8719 -1.2175  1.0791
19053TIP3    H278575   3.164   4.193   3.655  0.6407 -1.0312 -0.1401
19054TIP3   OH278576   5.245   3.158   1.522 -0.5392  0.2294  0.1627
19054TIP3    H178577   5.167   3.170   1.467  0.5609  1.0421 -1.2758
19054TIP3    H278578   5.319   3.166   1.462  0.6811 -0.8369  1.4429
19055TIP3   OH278579   3.659   2.534  13.456  0.0469 -0.2061 -0.3110
19055TIP3    H178580   3.750   2.559  13.471  0.0907 -0.7752  0.4329
19055TIP3    H278581   3.622   2.523  13.544 -1.0095  0.9139 -0.5776
19056TIP3   OH278582   1.626   0.596  10.776  0.4958  0.1563 -0.4868
19056TIP3    H178583   1.648   0.615  10.685  2.9058 -0.0260 -0.0071
19056TIP3    H278584   1.651   0.675  10.823  0.9068 -0.3965  0.2297
19057TIP3   OH278585   0.524   6.817  14.521  0.2293  0.4009 -0.1088
19057TIP3    H178586   0.613   6.850  14.507  0.1209  1.1880  0.9865
19057TIP3    H278587   0.469   6.894  14.513 -0.2695  0.0699  0.1352
19058TIP3   OH278588   0.128   4.784   2.668  0.0897 -0.6748  0.1402
19058TIP3    H178589   0.096   4.764   2.580 -0.1538 -0.0722  0.0885
19058TIP3    H278590   0.106   4.876   2.682  0.9453 -0.5095  0.4786
19059TIP3   OH278591   2.063   1.648   4.163 -0.3048  0.1818  0.7379
19059TIP3    H178592   2.096   1.636   4.074  0.3425  0.2553  0.9630
19059TIP3    H278593   2.023   1.563   4.185 -0.3603  0.1257  0.4235
19060TIP3   OH278594   1.516   3.100   6.791 -0.1813 -0.4392 -0.2469
19060TIP3    H178595   1.452   3.071   6.855 -0.4103  0.6015  0.0148
19060TIP3    H278596   1.488   3.189   6.767  2.0163  0.7279  1.0764
19061TIP3   OH278597   3.656   5.349  14.278 -0.5938 -0.0006 -0.2932
19061TIP3    H178598   3.662   5.325  14.371  1.0147 -0.9323 -0.5981
19061TIP3    H278599   3.563   5.339  14.257 -1.0388  0.5262  1.2792
19062TIP3   OH278600   1.213   3.769   3.134  0.6257  0.2677  0.1142
19062TIP3    H178601   1.246   3.687   3.099  3.9191  1.8545 -0.8839
19062TIP3    H278602   1.127   3.781   3.093  1.1363 -1.5014 -1.5859
19063TIP3   OH278603   0.954   5.306  15.347  0.1086  0.2530 -0.3656
19063TIP3    H178604   0.868   5.340  15.324  0.6479  2.3213  0.4036
19063TIP3    H278605   0.963   5.225  15.296 -1.8853  0.4888 -1.1693
19064TIP3   OH278606   1.857   1.126   3.239  0.5262 -0.3765 -0.3090
19064TIP3    H178607   1.919   1.083   3.298 -1.1751 -1.1766  1.0309
19064TIP3    H278608   1.879   1.092   3.152  0.7453 -2.1962  0.3954
19065TIP3   OH278609   4.154   6.549   0.723 -0.6617 -0.1910  0.2775
19065TIP3    H178610   4.141   6.471   0.777 -0.1514  0.6621  1.7011
19065TIP3    H278611   4.146   6.622   0.784 -0.2312  0.8317 -0.8423
19066TIP3   OH278612   6.372   4.731   3.341  0.2023 -0.2796 -0.1220
19066TIP3    H178613   6.407   4.790   3.408 -0.4773 -0.1846  0.1634
19066TIP3    H278614   6.284   4.709   3.372 -0.4099  0.3277 -1.3169
19067TIP3   OH278615   4.364   6.126   1.620  0.4191 -0.3303 -0.5744
19067TIP3    H178616   4.426   6.147   1.551  0.5638 -2.8024 -1.3010
19067TIP3    H278617   4.321   6.045   1.591 -1.6781  0.1665  0.8554
19068TIP3   OH278618   3.932   6.374  12.170  0.1180  0.2137  0.3007
19068TIP3    H178619   4.015   6.386  12.124 -0.1710 -1.0996 -0.6037
19068TIP3    H278620   3.939   6.431  12.246  1.5022  0.7723 -0.2115
19069TIP3   OH278621   3.447   5.391   4.959 -0.1906 -0.0758 -0.4248
19069TIP3    H178622   3.437   5.456   4.890  1.2357 -0.4286 -0.9877
19069TIP3    H278623   3.441   5.307   4.914 -1.2208 -0.3571  0.1860
19070TIP3   OH278624   4.842   3.109   4.360 -0.4388  0.0458 -0.1031
19070TIP3    H178625   4.838   3.201   4.331 -0.3620 -0.1197 -0.6475
19070TIP3    H278626   4.854   3.059   4.280 -0.7901 -0.4730  0.1616
19071TIP3   OH278627   3.722   4.009   2.653  0.5197  0.0898  0.2738
19071TIP3    H178628   3.749   4.060   2.577 -2.3784  1.9028  0.3105
19071TIP3    H278629   3.787   4.030   2.720  1.3938  0.8675 -0.7780
19072TIP3   OH278630   4.066   2.042   5.047 -0.4673  0.1260  0.2287
19072TIP3    H178631   4.014   1.965   5.072 -0.8457  0.2201 -0.2561
19072TIP3    H278632   4.139   2.042   5.108 -1.2829  0.2544  1.2427
19073TIP3   OH278633   2.765   6.499  11.334 -0.3552 -0.3034 -0.1419
19073TIP3    H178634   2.833   6.557  11.301  0.6312 -1.5921 -0.4659
19073TIP3    H278635   2.798   6.411  11.316 -0.7359 -1.0487  2.4169
19074TIP3   OH278636   4.729   2.348   1.373 -0.1867 -0.0446  0.3362
19074TIP3    H178637   4.652   2.319   1.323 -0.5412 -0.5837  1.1752
19074TIP3    H278638   4.771   2.413   1.317 -2.9183  2.5609  1.1219
19075TIP3   OH278639   1.404   5.250  12.742  0.0137 -0.1642 -0.4462
19075TIP3    H178640   1.467   5.315  12.710 -0.0882 -0.5379 -1.4134
19075TIP3    H278641   1.325   5.266  12.691 -0.2611 -0.5605 -0.1504
19076TIP3   OH278642   3.255   6.530  11.413  0.4162  0.3727 -0.3576
19076TIP3    H178643   3.330   6.472  11.416 -0.1917 -0.6346 -2.7273
19076TIP3    H278644   3.258   6.570  11.326 -0.2291  2.5291  0.5222
19077TIP3   OH278645   6.258   1.392  15.013 -0.3287 -0.3618  0.1622
19077TIP3    H178646   6.240   1.439  14.932  0.1641 -1.1377 -0.4113
19077TIP3    H278647   6.341   1.427  15.044  2.1946 -3.4455 -2.3611
19078TIP3   OH278648   4.360   4.770   3.172 -0.1525  0.6569  0.2013
19078TIP3    H178649   4.285   4.710   3.171 -0.6848  1.1879 -3.3451
19078TIP3    H278650   4.322   4.857   3.158  0.9576  1.3137  1.0449
19079TIP3   OH278651   5.137   6.596  15.396  0.6870 -0.3269 -0.2706
19079TIP3    H178652   5.108   6.615  15.307  1.2242 -1.0385 -0.6085
19079TIP3    H278653   5.228   6.570  15.387  0.6285 -0.8198  0.4368
19080TIP3   OH278654   0.182   5.474  14.339  0.0222 -0.3117 -0.0175
19080TIP3    H178655   0.216   5.396  14.295  1.7485 -0.2958  1.1910
19080TIP3    H278656   0.129   5.518  14.272  1.8536 -0.7111 -1.8404
19081TIP3   OH278657   2.998   6.559   0.542  0.3161 -0.3226  0.0553
19081TIP3    H178658   2.960   6.589   0.624 -0.4460 -0.7760 -0.1259
19081TIP3    H278659   3.079   6.609   0.534 -1.0745  2.0181 -0.4275
19082TIP3   OH278660   2.931   4.305   3.834 -0.0308 -0.5440  0.2167
19082TIP3    H178661   2.912   4.215   3.860  0.5520 -0.4486  1.0005
19082TIP3    H278662   2.884   4.359   3.898 -0.9824 -0.2664 -0.6818
19083TIP3   OH278663   5.412   2.115  12.597  0.6559 -0.2752  0.2820
19083TIP3    H178664   5.370   2.085  12.678  0.0920  0.2212  0.1852
19083TIP3    H278665   5.365   2.070  12.527 -1.3445  1.9929  0.0279
19084TIP3   OH278666   4.707   0.842  15.434 -0.2895 -0.5729  0.5143
19084TIP3    H178667   4.759   0.906  15.385 -0.4846 -0.1286  0.8813
19084TIP3    H278668   4.759   0.762  15.433 -0.2691 -0.5613 -0.3827
19085TIP3   OH278669   0.317   3.137  12.917  0.6323  0.3270 -0.4687
19085TIP3    H178670   0.263   3.060  12.937 -1.9328  2.2073  0.4290
19085TIP3    H278671   0.323   3.137  12.821 -1.5682  0.3655 -0.6627
19086TIP3   OH278672   1.713   3.807   5.275 -0.0219  0.0023 -0.0907
19086TIP3    H178673   1.645   3.767   5.329  1.2265 -1.4979  0.4593
19086TIP3    H278674   1.716   3.898   5.303 -1.2657 -0.0983  0.4145
19087TIP3   OH278675   0.608   6.226   1.009  0.0227 -0.9228  0.1908
19087TIP3    H178676   0.546   6.207   1.080 -0.3104  1.0115  0.4629
19087TIP3    H278677   0.674   6.281   1.050  0.1019 -0.2043 -0.8814
19088TIP3   OH278678   2.101   5.525  12.139 -0.1602 -0.0932 -0.1443
19088TIP3    H178679   2.136   5.572  12.215 -0.2326 -1.2872  0.6581
19088TIP3    H278680   2.064   5.593  12.084 -0.6667  0.7556  1.1985
19089TIP3   OH278681   2.158   4.475   5.361  0.3761 -0.6403  0.0761
19089TIP3    H178682   2.201   4.449   5.443  1.8490  0.3558 -0.3266
19089TIP3    H278683   2.086   4.531   5.388  1.0599 -0.0390  0.6938
19090TIP3   OH278684   3.483   1.859   4.962  0.4135 -0.4192 -0.1377
19090TIP3    H178685   3.542   1.795   5.002  3.4296  1.3441 -1.4008
19090TIP3    H278686   3.433   1.895   5.035  2.6917 -0.2945  1.4458
19091TIP3   OH278687   2.881   5.972   2.271 -1.5442  0.6144  0.1959
19091TIP3    H178688   2.905   6.065   2.271 -1.3376  0.5707  1.3792
19091TIP3    H278689   2.809   5.966   2.209 -1.4649  1.5435  0.0009
19092TIP3   OH278690   2.253   0.411   2.723 -0.1641  0.2805  0.0236
19092TIP3    H178691   2.247   0.357   2.801 -0.0008 -0.6268 -0.5804
19092TIP3    H278692   2.284   0.352   2.654  1.5170  1.4672 -0.3101
19093TIP3   OH278693   6.163   1.514   1.929 -0.2689  0.1278  0.8141
19093TIP3    H178694   6.099   1.565   1.979 -2.2907 -1.3445 -0.1416
19093TIP3    H278695   6.150   1.424   1.956  0.3418 -0.3980 -0.5317
19094TIP3   OH278696   5.574   4.989   4.387  0.2989 -0.2368  0.1457
19094TIP3    H178697   5.570   5.080   4.415 -1.6900 -0.6332  1.3475
19094TIP3    H278698   5.486   4.969   4.356  1.3276 -1.0823 -2.4909
19095TIP3   OH278699   2.071   6.280  15.967  0.7205  0.2741  0.1653
19095TIP3    H178700   1.991   6.327  15.987  1.1012  2.1665 -2.2618
19095TIP3    H278701   2.053   6.236  15.884  1.2022 -1.9780  1.1757
19096TIP3   OH278702   3.901   1.766  12.600  0.3024 -0.3620 -0.3445
19096TIP3    H178703   3.848   1.691  12.574 -1.3999  0.5865  0.2374
19096TIP3    H278704   3.841   1.840  12.598  0.9996  0.4274  2.4710
19097TIP3   OH278705   0.785   6.107   5.500 -0.3287 -0.0406 -0.4672
19097TIP3    H178706   0.792   6.184   5.444 -0.7376 -1.1455 -2.0842
19097TIP3    H278707   0.873   6.070   5.501 -0.6546 -0.8931 -1.6958
19098TIP3   OH278708   2.170   0.723  12.918  0.0088 -0.3311 -0.0728
19098TIP3    H178709   2.116   0.655  12.959 -1.5643  2.1229  2.2164
19098TIP3    H278710   2.260   0.698  12.939 -0.4289 -2.2090 -0.2067
19099TIP3   OH278711   5.002   4.723  14.689  0.2349  0.2437  0.1036
19099TIP3    H178712   4.972   4.667  14.618  0.6769  0.6522 -0.4096
19099TIP3    H278713   5.092   4.745  14.667  1.0915 -1.2590  1.8027
19100TIP3   OH278714   5.589   0.317   5.387  0.3223 -0.1437  0.0279
19100TIP3    H178715   5.668   0.267   5.365  2.2550  1.9019  1.8462
19100TIP3    H278716   5.559   0.277   5.469 -0.7718 -1.0913 -0.7964
19101TIP3   OH278717   3.394   5.652  13.112 -0.2083 -0.5557 -0.0942
19101TIP3    H178718   3.323   5.587  13.111 -0.7874  0.0640  0.1177
19101TIP3    H278719   3.411   5.666  13.205  1.0386 -1.5989 -0.1450
19102TIP3   OH278720   5.918   4.026   1.414  0.3344 -0.3822 -0.4779
19102TIP3    H178721   5.865   4.078   1.474 -1.2790 -0.6699 -1.6060
19102TIP3    H278722   5.863   4.013   1.337  2.0051 -0.7778 -1.6815
19103TIP3   OH278723   1.107   5.515  13.853 -0.0099  0.0770  0.7370
19103TIP3    H178724   1.062   5.439  13.888 -1.3243  0.8960  0.8916
19103TIP3    H278725   1.145   5.485  13.770  0.1649 -0.9353  1.1739
19104TIP3   OH278726   1.271   6.613   0.016  0.0521 -0.3371  0.5126
19104TIP3    H178727   1.192   6.659   0.044 -0.0321 -0.0648 -0.1550
19104TIP3    H278728   1.243   6.560  -0.058  0.4185 -0.5161  0.4995
19105TIP3   OH278729   1.869   0.098  14.207 -0.0120  0.5800  0.2380
19105TIP3    H178730   1.959   0.101  14.176  0.4921 -1.2901  1.3687
19105TIP3    H278731   1.876   0.074  14.299 -1.6975 -1.6241 -0.1361
19106TIP3   OH278732   2.532   5.702   6.206 -0.0983  0.8743  0.6723
19106TIP3    H178733   2.522   5.618   6.252  1.5425 -0.8597 -1.8931
19106TIP3    H278734   2.626   5.722   6.214  0.4603  0.0023 -2.5546
19107TIP3   OH278735   3.840   6.508  11.714  0.0231 -0.1125  0.3268
19107TIP3    H178736   3.835   6.577  11.780 -0.0755  0.2010 -0.0008
19107TIP3    H278737   3.760   6.519  11.663  0.8020  0.6311 -0.7907
19108TIP3   OH278738   6.460   4.295  12.812  0.3403  0.0689 -0.9217
19108TIP3    H178739   6.456   4.201  12.795 -2.7576 -0.0070 -0.3021
19108TIP3    H278740   6.370   4.325  12.801  0.5849  2.3553  2.1730
19109TIP3   OH278741   0.104   5.474  11.013  0.3337 -0.5805 -0.3053
19109TIP3    H178742   0.151   5.521  11.082 -2.4829 -0.2391  1.5338
19109TIP3    H278743   0.142   5.386  11.014  0.9206 -0.3367  1.1280
19110TIP3   OH278744   0.452   0.696  16.150 -0.0652 -0.0176  0.2610
19110TIP3    H178745   0.400   0.640  16.092 -0.9039  2.7491 -1.8679
19110TIP3    H278746   0.520   0.732  16.093  2.1438 -0.8587  2.1992
19111TIP3   OH278747   5.061   4.483   6.333  0.4946 -0.3511 -0.5342
19111TIP3    H178748   5.114   4.527   6.399 -1.7642  1.0900  0.4455
19111TIP3    H278749   5.106   4.502   6.250  2.3969 -0.6661  0.3808
19112TIP3   OH278750   2.249   0.220  16.537 -0.6345 -0.6044  0.2201
19112TIP3    H178751   2.234   0.147  16.598  0.4394 -0.8294  0.2263
19112TIP3    H278752   2.340   0.246  16.552 -1.6254  2.3122  1.9043
19113TIP3   OH278753   0.741   5.330  15.189 -0.1752 -0.3026  0.2668
19113TIP3    H178754   0.809   5.360  15.129  1.1619 -0.7055  1.5348
19113TIP3    H278755   0.659   5.348  15.143  0.8060 -1.0691 -1.8897
19114TIP3   OH278756   2.024   2.354  16.547  0.4014 -0.1158 -0.1484
19114TIP3    H178757   2.004   2.273  16.595 -0.5800  0.9682  1.3584
19114TIP3    H278758   2.118   2.350  16.531  0.2711 -1.8643 -0.7235
19115TIP3   OH278759   5.852   1.548   4.469  0.5782 -0.3277  0.3729
19115TIP3    H178760   5.902   1.506   4.538  0.7386 -0.6641  0.0523
19115TIP3    H278761   5.841   1.481   4.402  1.8481  0.4480 -0.6734
19116TIP3   OH278762   0.709   0.092   0.480 -0.4800  0.2028 -0.9563
19116TIP3    H178763   0.717   0.023   0.415 -0.3255 -0.8972  0.1837
19116TIP3    H278764   0.756   0.059   0.557  0.4411  1.9926 -0.6804
19117TIP3   OH278765   5.908   1.965   1.846  0.0948 -0.2899  0.6787
19117TIP3    H178766   5.933   2.010   1.926  1.9971  0.1007 -0.0794
19117TIP3    H278767   5.989   1.921   1.817 -0.6313 -0.6780 -0.8476
19118TIP3   OH278768   4.595   3.832  10.420 -0.4872 -0.1482 -0.1409
19118TIP3    H178769   4.598   3.802  10.329 -1.3991  1.0291 -0.5890
19118TIP3    H278770   4.504   3.815  10.447 -0.4873  0.4095  0.2227
19119TIP3   OH278771   0.015   2.387  10.940  0.5426 -0.5511  0.4736
19119TIP3    H178772   0.101   2.409  10.904  0.7478 -0.3126  1.0878
19119TIP3    H278773   0.032   2.367  11.032 -0.3535  1.9934  1.3003
19120TIP3   OH278774   3.397   6.761   3.630  0.0874  0.1511 -0.0365
19120TIP3    H178775   3.356   6.816   3.563 -2.1075  0.1192  1.1749
19120TIP3    H278776   3.476   6.808   3.655 -0.6758  1.7434 -0.4812
19121TIP3   OH278777   1.743   3.806   0.184 -0.3888 -0.7240 -0.4391
19121TIP3    H178778   1.805   3.877   0.168 -2.8310  1.4693 -0.9797
19121TIP3    H278779   1.737   3.759   0.100 -1.1855  0.5903 -1.1548
19122TIP3   OH278780   3.390   0.275   4.821 -0.4940 -0.7229 -0.4803
19122TIP3    H178781   3.320   0.232   4.772 -1.8545  1.3336 -0.4693
19122TIP3    H278782   3.352   0.290   4.908  0.6124 -1.1235  0.0944
19123TIP3   OH278783   2.410   0.149  14.757  0.2333  1.0847  0.3768
19123TIP3    H178784   2.397   0.057  14.777  2.9919  0.3007 -0.9965
19123TIP3    H278785   2.420   0.191  14.843 -1.9625  0.3479  1.0559
19124TIP3   OH278786   3.351   2.736   3.464 -0.4758  0.0737  0.5690
19124TIP3    H178787   3.281   2.727   3.529  0.7103 -0.9467  1.7552
19124TIP3    H278788   3.319   2.805   3.405 -2.5332 -0.4423  0.9745
19125TIP3   OH278789   1.714   0.641  11.154  0.7395  0.0467 -0.3806
19125TIP3    H178790   1.703   0.668  11.062  2.1739 -0.9590 -0.8781
19125TIP3    H278791   1.783   0.697  11.188 -0.3890  1.0207  0.3853
19126TIP3   OH278792   0.991   4.728   5.546  0.0170 -0.1979 -0.0354
19126TIP3    H178793   1.019   4.713   5.456  1.0657  4.2136 -0.6810
19126TIP3    H278794   1.072   4.741   5.595 -0.5150  2.7109  0.2671
19127TIP3   OH278795   5.306   4.213  16.299 -0.2395  0.0320  0.0481
19127TIP3    H178796   5.282   4.260  16.379  1.0284  1.0072 -0.1101
19127TIP3    H278797   5.328   4.124  16.329 -2.3917 -0.4481  0.3857
19128TIP3   OH278798   3.416   3.322  16.342  0.9098  0.5875  0.2681
19128TIP3    H178799   3.424   3.359  16.254 -3.6070 -1.0969 -1.1113
19128TIP3    H278800   3.351   3.377  16.386 -0.4082 -1.3354  0.8141
19129TIP3   OH278801   3.566   6.460  11.623 -0.5391 -0.7499 -0.0092
19129TIP3    H178802   3.589   6.421  11.707 -0.7617 -1.1410 -0.1260
19129TIP3    H278803   3.627   6.420  11.561 -0.6572 -0.7855 -0.1027
19130TIP3   OH278804   2.526   1.790  15.168  0.2879 -0.4921  0.1186
19130TIP3    H178805   2.619   1.770  15.179  0.1921 -1.5828 -0.7897
19130TIP3    H278806   2.481   1.731  15.228  0.1695 -0.2942  0.2230
19131TIP3   OH278807   5.457   0.152   2.848  0.1937 -0.3899 -0.1469
19131TIP3    H178808   5.395   0.200   2.793  0.9534 -0.8489 -1.4441
19131TIP3    H278809   5.408   0.075   2.877 -0.4433  0.2162  0.4622
19132TIP3   OH278810   0.079   1.235  17.008 -0.2233 -0.1026 -0.1964
19132TIP3    H178811   0.059   1.148  17.043  0.4276 -0.6316 -1.1023
19132TIP3    H278812   0.136   1.275  17.074  3.0251 -2.0219 -1.6078
19133TIP3   OH278813   0.760   1.796  16.357 -0.9442 -0.3879 -0.0496
19133TIP3    H178814   0.753   1.839  16.443  0.5863 -0.3096  0.0731
19133TIP3    H278815   0.741   1.865  16.294 -0.8608 -0.1252  0.2070
19134TIP3   OH278816   0.909   4.977  14.519  0.1968 -1.0832 -0.4960
19134TIP3    H178817   0.990   4.953  14.565 -0.2538 -1.1417  0.2776
19134TIP3    H278818   0.854   4.900  14.527  0.5438 -1.5425 -2.1734
19135TIP3   OH278819   5.243   3.797  12.810 -0.3804 -0.2307  0.2588
19135TIP3    H178820   5.259   3.762  12.898  0.1230 -0.1795  0.1891
19135TIP3    H278821   5.321   3.775  12.760 -0.7487 -0.4379 -0.2408
19136TIP3   OH278822   0.181   5.226   0.569  0.4755  0.2070  0.2476
19136TIP3    H178823   0.117   5.220   0.499 -1.6555  1.0030  2.0020
19136TIP3    H278824   0.216   5.315   0.562  0.4362  0.2055  0.0485
19137TIP3   OH278825   3.075   1.575   1.792  0.1194 -0.2097 -0.7065
19137TIP3    H178826   3.163   1.546   1.817  0.0548 -0.0867 -0.3267
19137TIP3    H278827   3.016   1.511   1.832 -0.2586  2.2812  3.2467
19138TIP3   OH278828   4.513   6.107  15.976  0.4860  0.1550 -0.3339
19138TIP3    H178829   4.473   6.040  15.922 -0.2311  0.4581 -0.1989
19138TIP3    H278830   4.541   6.061  16.055  1.2440 -0.2257 -0.8162
19139TIP3   OH278831   0.827   1.358   1.120  0.1766 -0.0341 -0.0857
19139TIP3    H178832   0.827   1.337   1.026 -1.2146  1.9173 -0.5855
19139TIP3    H278833   0.811   1.452   1.123  0.9297  0.0632  2.1172
19140TIP3   OH278834   2.251   1.330  16.235  0.2407 -0.1724 -0.1607
19140TIP3    H178835   2.336   1.306  16.271 -0.2939  0.7645  1.8801
19140TIP3    H278836   2.217   1.396  16.295 -2.3291 -1.1658 -0.3783
19141TIP3   OH278837   5.344   4.058  16.882 -0.4365 -0.5037 -0.4995
19141TIP3    H178838   5.377   4.046  16.971 -2.0419 -0.4445  0.1438
19141TIP3    H278839   5.422   4.074  16.829  0.4626  0.5063  1.0663
19142TIP3   OH278840   3.993   1.042  14.179  0.0576  0.0941  0.2982
19142TIP3    H178841   3.982   1.042  14.084  0.3206  0.1825  0.2661
19142TIP3    H278842   4.009   1.134  14.201 -1.4938  0.3182  0.6086
19143TIP3   OH278843   5.323   0.088   1.071 -0.1560  0.0554  0.6618
19143TIP3    H178844   5.324   0.086   1.167 -2.9185 -1.1426  0.7372
19143TIP3    H278845   5.277   0.169   1.050 -0.8333 -0.4028  0.3804
19144TIP3   OH278846   5.569   4.036  16.064 -0.8976 -0.1575  0.3082
19144TIP3    H178847   5.606   4.025  16.152 -2.3907 -1.9243  0.7699
19144TIP3    H278848   5.608   3.965  16.013  0.0708  0.9451 -0.5338
19145TIP3   OH278849   6.348   0.539   4.314  0.0805  0.4708 -0.0831
19145TIP3    H178850   6.326   0.632   4.323 -0.0183  0.3987  0.5143
19145TIP3    H278851   6.441   0.534   4.338 -0.3146  0.2003  1.5302
19146TIP3   OH278852   2.165   0.300   0.591  0.3433 -0.0395 -0.1478
19146TIP3    H178853   2.107   0.345   0.653  0.4089  2.4120 -1.7612
19146TIP3    H278854   2.235   0.265   0.646 -1.0040 -0.3861  1.4552
19147TIP3   OH278855   5.161   1.941   4.884  0.4282  0.4709 -0.3287
19147TIP3    H178856   5.161   2.029   4.922  1.6858 -0.2421  1.4232
19147TIP3    H278857   5.211   1.951   4.802 -0.4568  1.5972 -0.7531
19148TIP3   OH278858   2.875   6.193   3.176 -0.6035  0.1853  0.2326
19148TIP3    H178859   2.943   6.147   3.126 -0.4872  0.3735  0.2174
19148TIP3    H278860   2.832   6.124   3.227 -2.7136 -0.5553 -2.3152
19149TIP3   OH278861   5.868   6.628  14.041  0.1781  0.7577  0.5216
19149TIP3    H178862   5.879   6.627  13.946  0.3406  2.1439  0.5082
19149TIP3    H278863   5.937   6.570  14.073  0.3466  0.5509 -0.1857
19150TIP3   OH278864   4.400   4.715  15.252 -0.3752  0.4738 -0.0531
19150TIP3    H178865   4.384   4.672  15.336 -0.4336 -1.8540 -1.1892
19150TIP3    H278866   4.340   4.790  15.253 -1.6703 -0.5038  1.2703
19151TIP3   OH278867   5.050   2.731   2.078  0.2037  0.0512 -0.4291
19151TIP3    H178868   5.095   2.812   2.106 -1.1152  0.8013 -0.3947
19151TIP3    H278869   4.979   2.721   2.141  1.1712 -1.9499  0.4213
19152TIP3   OH278870   2.307   3.423  15.216  0.2601 -0.4164 -0.0156
19152TIP3    H178871   2.351   3.411  15.300  0.1002  2.4061  0.5744
19152TIP3    H278872   2.373   3.399  15.150  1.7182  0.8886  0.8942
19153TIP3   OH278873   3.735   3.351   0.507  0.8395 -0.7124  0.2819
19153TIP3    H178874   3.819   3.335   0.465  3.5093  2.6905  3.6674
19153TIP3    H278875   3.689   3.410   0.447  0.7001 -2.6591 -1.6362
19154TIP3   OH278876   2.535   3.557  12.529  0.2325 -0.1830  0.6106
19154TIP3    H178877   2.610   3.613  12.509  0.5570 -0.5856  0.6939
19154TIP3    H278878   2.526   3.562  12.624  0.5560 -0.6381  0.6699
19155TIP3   OH278879   6.454   4.601   1.678  0.0408  0.0928  0.3141
19155TIP3    H178880   6.540   4.586   1.640 -1.1904 -0.3204 -2.5428
19155TIP3    H278881   6.420   4.513   1.698  0.9322  0.3064  3.2986
19156TIP3   OH278882   5.052   1.890  12.946 -0.4587 -0.0755  0.2088
19156TIP3    H178883   5.030   1.887  12.853  0.0945 -0.4436  0.0858
19156TIP3    H278884   5.010   1.970  12.978  0.8469  1.0146 -0.7358
19157TIP3   OH278885   0.211   0.249   4.902  0.4090 -0.2417 -0.1300
19157TIP3    H178886   0.304   0.273   4.908 -0.0998  1.6452  0.9516
19157TIP3    H278887   0.201   0.178   4.966  0.9126  0.2403  0.5021
19158TIP3   OH278888   0.681   4.233  10.402 -0.2588  0.4995 -0.3983
19158TIP3    H178889   0.719   4.180  10.331  2.4618 -0.9239  1.8902
19158TIP3    H278890   0.756   4.275  10.443 -1.6704  1.0731  1.7680
19159TIP3   OH278891   1.558   5.936  16.976 -0.1806  0.3696  0.0120
19159TIP3    H178892   1.476   5.952  16.929 -0.7331 -1.8172  0.0922
19159TIP3    H278893   1.590   5.853  16.939  1.9812  1.1523  0.0296
19160TIP3   OH278894   4.966   5.683   0.623  0.3175  0.1081 -0.0807
19160TIP3    H178895   5.027   5.622   0.581 -0.2599  0.1507 -1.0263
19160TIP3    H278896   4.885   5.634   0.633  0.3110  0.2451  0.5955
19161TIP3   OH278897   3.678   0.286   2.544 -0.3535  0.9722  0.0130
19161TIP3    H178898   3.758   0.310   2.591  1.3022 -1.7487 -1.1972
19161TIP3    H278899   3.608   0.327   2.595  1.6208  1.7611  2.3126
19162TIP3   OH278900   1.904   1.238  16.248  0.3523 -0.0983 -0.1672
19162TIP3    H178901   1.947   1.304  16.194  1.3909 -1.2066 -0.7407
19162TIP3    H278902   1.887   1.165  16.188 -1.0163 -0.2731  0.3919
19163TIP3   OH278903   1.628   5.023  17.068  0.0651 -0.0449  0.4450
19163TIP3    H178904   1.583   5.059  17.145  1.5154 -0.7000  1.6349
19163TIP3    H278905   1.637   5.098  17.009 -0.0232  0.7530  1.4152
19164TIP3   OH278906   0.601   6.274  13.428 -0.1973  0.2054 -0.3682
19164TIP3    H178907   0.624   6.211  13.496  0.9967 -0.4862 -1.3776
19164TIP3    H278908   0.653   6.352  13.449  0.1489  0.0022 -0.4613
19165TIP3   OH278909   1.157   4.798   1.992 -0.6700  0.3261  0.1285
19165TIP3    H178910   1.115   4.729   2.043  0.0110  0.5718  1.0557
19165TIP3    H278911   1.203   4.752   1.922  0.7923 -0.3060  1.4472
19166TIP3   OH278912   1.870   2.592   5.608  0.0438  0.6380 -0.4342
19166TIP3    H178913   1.857   2.659   5.674 -2.2175 -0.1091 -0.0096
19166TIP3    H278914   1.886   2.512   5.657  0.7148  0.5004 -0.8682
19167TIP3   OH278915   5.299   0.677  14.999 -0.2650  0.1624 -0.2582
19167TIP3    H178916   5.238   0.612  15.034 -0.6248  0.1675 -0.8565
19167TIP3    H278917   5.369   0.626  14.958  0.0751  0.1571  0.3145
19168TIP3   OH278918   1.127   1.125  14.735  0.3032 -0.3684 -0.0162
19168TIP3    H178919   1.091   1.036  14.739  0.1923 -0.3253 -0.0488
19168TIP3    H278920   1.214   1.117  14.773  1.4832 -1.0978 -2.6602
19169TIP3   OH278921   1.381   4.257   3.045 -0.1829  0.5677 -0.4003
19169TIP3    H178922   1.465   4.291   3.078  0.1672 -0.9678  0.3615
19169TIP3    H278923   1.400   4.166   3.022 -1.9869 -0.2650  1.1709
19170TIP3   OH278924   4.251   3.824   6.280 -0.1660 -0.6216  0.1725
19170TIP3    H178925   4.263   3.904   6.331 -1.5518 -0.5331  0.3932
19170TIP3    H278926   4.279   3.754   6.340  0.0125 -0.3847  0.3691
19171TIP3   OH278927   6.433   2.176   3.742 -0.0774 -0.3522  0.9103
19171TIP3    H178928   6.525   2.152   3.751 -0.1964 -1.4481 -0.4475
19171TIP3    H278929   6.434   2.260   3.697  0.2993 -1.6347 -1.6809
19172TIP3   OH278930   3.723   0.625  15.245 -0.1846  0.2311  0.1564
19172TIP3    H178931   3.684   0.657  15.164 -0.9451  0.5221  0.6293
19172TIP3    H278932   3.724   0.530  15.236 -1.1533  0.2104  0.1925
19173TIP3   OH278933   0.081   6.234  12.661 -0.0727  0.0449 -0.4178
19173TIP3    H178934   0.091   6.205  12.751 -0.5733  3.1493  0.7825
19173TIP3    H278935   0.120   6.321  12.659 -1.7980  0.9012 -2.6726
19174TIP3   OH278936   6.722   0.089   4.919  0.6747  0.5283 -0.3432
19174TIP3    H178937   6.633   0.105   4.888 -0.7137 -2.6386  1.5311
19174TIP3    H278938   6.751   0.012   4.870  0.3632 -1.4655  2.3778
19175TIP3   OH278939   2.757   4.202   1.355  0.7103 -0.6065  0.1110
19175TIP3    H178940   2.748   4.146   1.278  1.6762  0.1756 -0.5882
19175TIP3    H278941   2.728   4.288   1.326  0.6639 -0.4024  0.7510
19176TIP3   OH278942   6.119   4.163   1.280  0.1937  0.2108  0.2799
19176TIP3    H178943   6.112   4.237   1.219 -1.2367 -0.9410 -1.0277
19176TIP3    H278944   6.029   4.139   1.299  0.6333 -1.0454  0.8958
19177TIP3   OH278945   6.093   3.854  13.382 -0.1584 -0.0110  0.0922
19177TIP3    H178946   6.022   3.835  13.444  0.4041  2.6760  1.7335
19177TIP3    H278947   6.169   3.808  13.419 -0.4943 -1.0082 -0.4095
19178TIP3   OH278948   5.487   1.607  11.577 -0.2211  0.0235  0.5193
19178TIP3    H178949   5.498   1.547  11.652 -1.6548  1.8099  2.2662
19178TIP3    H278950   5.544   1.681  11.598 -0.1007  0.2399 -0.5453
19179TIP3   OH278951   1.575   3.275  15.321 -0.2193 -0.0421 -0.1865
19179TIP3    H178952   1.619   3.340  15.376  1.6245  0.0727 -1.6985
19179TIP3    H278953   1.644   3.215  15.294 -0.8426  0.2692 -2.8524
19180TIP3   OH278954   4.224   1.489  15.322  0.2365 -0.2164  0.0425
19180TIP3    H178955   4.141   1.489  15.370 -0.1562  0.6703 -0.6076
19180TIP3    H278956   4.290   1.506  15.389 -0.3027  0.9855  0.2978
19181TIP3   OH278957   1.215   3.737   0.528 -0.0748  0.1120 -0.0993
19181TIP3    H178958   1.292   3.684   0.550  0.5983  1.1535  0.0963
19181TIP3    H278959   1.230   3.821   0.571 -0.8824  0.6530 -0.8403
19182TIP3   OH278960   2.765   5.959   5.733 -0.4783 -0.2705 -0.3384
19182TIP3    H178961   2.702   5.942   5.662 -1.1263  1.7005 -0.2815
19182TIP3    H278962   2.727   6.031   5.782  1.6044  0.6792 -0.0236
19183TIP3   OH278963   3.437   4.642  13.954 -0.1265 -0.4308 -0.3921
19183TIP3    H178964   3.485   4.648  13.871  0.8342 -1.0243  0.1158
19183TIP3    H278965   3.368   4.708  13.945  0.1899 -0.2247 -1.5179
19184TIP3   OH278966   2.395   3.574  16.446 -0.9055  0.2785 -0.8660
19184TIP3    H178967   2.401   3.555  16.353 -1.1650  1.9476 -1.2520
19184TIP3    H278968   2.358   3.494  16.484 -1.2365 -0.2605 -2.2535
19185TIP3   OH278969   2.799   2.429  12.395 -0.2453 -0.2382  0.1670
19185TIP3    H178970   2.881   2.464  12.362 -0.7458 -0.0881 -0.9673
19185TIP3    H278971   2.795   2.339  12.362 -0.1529 -0.5378  0.9354
19186TIP3   OH278972   5.414   5.670  13.090  0.0761  0.0158 -0.1772
19186TIP3    H178973   5.387   5.761  13.105 -1.7647 -0.6302  0.8379
19186TIP3    H278974   5.500   5.663  13.131 -1.1946  0.5047  2.8544
19187TIP3   OH278975   6.693   4.616   3.768  0.4058  0.2715  0.0206
19187TIP3    H178976   6.674   4.540   3.823 -0.1083  0.7578  0.5280
19187TIP3    H278977   6.779   4.597   3.731  0.5626 -0.2792  0.6336
19188TIP3   OH278978   1.076   1.512  16.542  0.3409  0.4766 -0.1921
19188TIP3    H178979   1.055   1.527  16.634 -0.0334 -2.2458  0.2334
19188TIP3    H278980   1.075   1.417  16.531  1.0363  0.6766 -2.8713
19189TIP3   OH278981   1.820   6.117  16.941  0.0710 -0.3202  0.3238
19189TIP3    H178982   1.856   6.117  17.029 -0.1853 -0.9957  0.4352
19189TIP3    H278983   1.757   6.045  16.941  0.7376 -0.9364 -0.6701
19190TIP3   OH278984   3.585   4.876  12.472 -0.2834  0.1113 -0.3394
19190TIP3    H178985   3.574   4.788  12.436  0.3828  0.4673 -1.4755
19190TIP3    H278986   3.505   4.891  12.524 -0.0196 -1.4737  0.6025
19191TIP3   OH278987   3.425   3.951  13.857  0.5053 -0.2534  0.0793
19191TIP3    H178988   3.362   4.015  13.891 -0.8738 -0.2641 -2.2243
19191TIP3    H278989   3.386   3.866  13.876  0.0622 -0.2716 -0.8510
19192TIP3   OH278990   0.263   5.848   2.049 -0.4053 -0.1961  0.2719
19192TIP3    H178991   0.208   5.791   1.996  0.9434 -1.8469  0.5413
19192TIP3    H278992   0.265   5.931   2.002 -0.8130 -1.0077 -1.2235
19193TIP3   OH278993   5.590   5.240   4.501  0.0403  0.8623 -0.7351
19193TIP3    H178994   5.633   5.278   4.425  0.8112  2.4336  0.4202
19193TIP3    H278995   5.646   5.265   4.575 -0.1965 -1.3597  0.2873
19194TIP3   OH278996   4.593   4.236   4.669  0.2481  0.3655 -0.0318
19194TIP3    H178997   4.568   4.232   4.761 -2.4500 -1.2071 -0.7194
19194TIP3    H278998   4.685   4.210   4.668 -0.0543 -1.0195  2.0837
19195TIP3   OH278999   5.267   1.385   5.799  0.2542  0.1773 -0.4011
19195TIP3    H179000   5.223   1.300   5.801  2.4858 -1.0901 -1.3490
19195TIP3    H279001   5.360   1.364   5.813  0.5440  2.8274  3.4056
19196TIP3   OH279002   6.783   2.667  10.974  0.3184  0.2145 -0.2191
19196TIP3    H179003   6.816   2.703  10.892 -0.1836  1.1450 -0.0236
19196TIP3    H279004   6.716   2.605  10.949  1.7521 -1.2531 -0.5998
19197TIP3   OH279005   3.233   6.749   2.196 -0.3464 -0.1655  0.8930
19197TIP3    H179006   3.268   6.754   2.285 -1.3574 -0.6075  1.3375
19197TIP3    H279007   3.143   6.778   2.205 -0.6427 -0.8176  0.1331
19198TIP3   OH279008   2.587   6.490  14.143 -0.5254  0.2532  0.1263
19198TIP3    H179009   2.652   6.441  14.093 -1.0572 -0.9223  0.5458
19198TIP3    H279010   2.614   6.582  14.134  0.0076 -0.0173 -1.4042
19199TIP3   OH279011   1.923   1.246   4.208  0.3220 -0.3060  0.0221
19199TIP3    H179012   1.872   1.318   4.172  0.5221 -1.0335 -1.8316
19199TIP3    H279013   1.867   1.169   4.199  0.6929 -0.6538  0.5810
19200TIP3   OH279014   0.917   3.472  11.403 -0.4572  0.2532  0.1074
19200TIP3    H179015   0.953   3.516  11.326 -0.6369  0.9380  0.4070
19200TIP3    H279016   0.881   3.390  11.369  1.6598 -0.6317 -0.1609
19201TIP3   OH279017   4.888   4.144   5.376  0.1658  0.1325  0.3712
19201TIP3    H179018   4.801   4.163   5.341 -0.0083 -0.6953  0.3526
19201TIP3    H279019   4.885   4.051   5.399  1.2846 -0.0721 -0.2925
19202TIP3   OH279020   6.049   4.058   4.122 -0.1220 -0.9624  0.4819
19202TIP3    H179021   6.070   3.975   4.077 -0.0775 -0.3571 -0.6565
19202TIP3    H279022   5.954   4.053   4.136 -0.6627 -0.0463 -2.1702
19203TIP3   OH279023   1.273   0.146   4.540  0.1470 -0.4861  0.4913
19203TIP3    H179024   1.296   0.204   4.612  0.4051  0.8870 -0.6306
19203TIP3    H279025   1.341   0.161   4.474  0.5910 -2.5923  0.3990
19204TIP3   OH279026   3.532   3.620   1.368  0.5202 -0.0443 -0.8018
19204TIP3    H179027   3.596   3.664   1.424 -0.8634  0.9337  0.0752
19204TIP3    H279028   3.567   3.531   1.357  0.8152 -0.3232  1.7131
19205TIP3   OH279029   0.926   5.415   2.551 -0.2643 -0.3513  0.1383
19205TIP3    H179030   1.001   5.458   2.592 -0.4625 -0.0129  0.1536
19205TIP3    H279031   0.964   5.347   2.496  0.0423 -0.3202  0.3137
19206TIP3   OH279032   1.475   1.563   3.844 -0.1819 -0.1133  0.1362
19206TIP3    H179033   1.438   1.477   3.866  0.6817 -0.4690  0.2533
19206TIP3    H279034   1.422   1.625   3.893  0.5693 -0.7520  1.8255
19207TIP3   OH279035   4.240   5.637  10.755  0.4776 -0.2327  0.2305
19207TIP3    H179036   4.149   5.651  10.728 -0.3190 -1.6896  1.8885
19207TIP3    H279037   4.291   5.698  10.702 -1.4948  0.8570 -0.5264
19208TIP3   OH279038   4.660   1.828   0.608 -0.1990  0.3950  0.5316
19208TIP3    H179039   4.668   1.735   0.586  0.5577  0.4096  0.6963
19208TIP3    H279040   4.670   1.874   0.525  1.5845  0.4051  0.7126
19209TIP3   OH279041   3.047   0.044   5.244  0.4499 -0.3207 -0.1755
19209TIP3    H179042   3.051   0.077   5.154 -2.2883 -1.5182 -0.8522
19209TIP3    H279043   3.106  -0.031   5.244  0.7254 -0.1149 -0.8945
19210TIP3   OH279044   2.896   6.800   2.047  0.2980 -0.1765 -0.9985
19210TIP3    H179045   2.921   6.888   2.075 -1.6339  0.3346 -0.7484
19210TIP3    H279046   2.949   6.784   1.969  1.4588  0.7555 -0.4326
19211TIP3   OH279047   3.118   1.550  17.050 -0.0760  0.0588 -0.8751
19211TIP3    H179048   3.161   1.579  16.970 -0.4983 -0.6920 -1.3918
19211TIP3    H279049   3.089   1.461  17.031 -0.2411 -0.1124  0.0944
19212TIP3   OH279050   5.085   3.736   3.388 -0.2415  0.0786 -0.5745
19212TIP3    H179051   5.075   3.643   3.404  0.4286  0.1756  0.4735
19212TIP3    H279052   5.158   3.763   3.443 -0.1765  1.1499 -1.1529
19213TIP3   OH279053   3.829   6.279   2.826  0.1017 -0.1093  0.0064
19213TIP3    H179054   3.808   6.310   2.914  0.6510 -2.1148  0.9201
19213TIP3    H279055   3.749   6.235   2.796  0.6338 -1.5475  0.5653
19214TIP3   OH279056   1.085   4.218   2.736 -0.8419  0.3184  0.4339
19214TIP3    H179057   1.053   4.290   2.790  1.3253  1.5114  0.2581
19214TIP3    H279058   1.179   4.234   2.728 -0.3919 -2.1777 -0.2078
19215TIP3   OH279059   1.409   4.899  12.084  0.1504  0.6578 -0.4988
19215TIP3    H179060   1.416   4.893  11.989  1.9877 -1.1554 -0.3244
19215TIP3    H279061   1.459   4.978  12.107  0.5886  0.5312 -0.9898
19216TIP3   OH279062   6.002   5.484   4.289 -0.0153 -0.5866 -0.4330
19216TIP3    H179063   5.953   5.524   4.217 -1.2114  2.1259  1.7112
19216TIP3    H279064   5.940   5.425   4.331 -0.1215 -0.2447 -0.1148
19217TIP3   OH279065   1.471   6.019   3.123 -0.0314  0.1188  0.1383
19217TIP3    H179066   1.528   6.096   3.120 -0.1472  0.1878 -0.3541
19217TIP3    H279067   1.391   6.046   3.078  0.1455 -0.4605 -0.5475
19218TIP3   OH279068   2.784   6.144   3.708 -0.1422  0.6426  0.0744
19218TIP3    H179069   2.880   6.145   3.713 -0.1904  0.8892  1.8312
19218TIP3    H279070   2.763   6.217   3.650  0.7327  0.8613  0.0098
19219TIP3   OH279071   5.956   6.515   3.836 -0.1524 -0.1295 -0.3430
19219TIP3    H179072   6.012   6.570   3.781 -1.2837  2.4538  0.8899
19219TIP3    H279073   5.992   6.526   3.924 -2.2357  1.2350  0.4003
19220TIP3   OH279074   1.834   3.845   3.084 -0.5990 -0.3169  0.0029
19220TIP3    H179075   1.805   3.904   3.014  1.1308 -1.0555 -1.4326
19220TIP3    H279076   1.878   3.901   3.147 -0.6988  0.1711 -0.3560
19221TIP3   OH279077   3.422   4.784  17.031  0.1934  0.2321  0.1062
19221TIP3    H179078   3.438   4.851  17.098  2.7162 -1.4393  1.3412
19221TIP3    H279079   3.381   4.712  17.080  2.0990 -1.0218 -0.0505
19222TIP3   OH279080   6.582   6.315   3.726  0.0439  0.3440  0.1334
19222TIP3    H179081   6.497   6.329   3.767 -0.5803 -0.3379 -0.8721
19222TIP3    H279082   6.575   6.229   3.684 -0.1523  1.8574 -3.2251
19223TIP3   OH279083   5.412   5.580   0.583 -0.1197  0.3531 -0.1597
19223TIP3    H179084   5.331   5.541   0.552 -0.0213 -1.4620  1.6331
19223TIP3    H279085   5.392   5.613   0.670  0.8513  0.6342 -0.0244
19224TIP3   OH279086   2.784   4.095  14.192  0.1017  0.6010  0.5128
19224TIP3    H179087   2.737   4.026  14.238  1.4632  0.3034  1.5246
19224TIP3    H279088   2.876   4.072  14.202  0.4883  0.9593 -1.7464
19225TIP3   OH279089   2.111   4.662  15.976  0.5536 -0.8019  0.2696
19225TIP3    H179090   2.185   4.682  16.033  1.2826  1.5928 -1.4099
19225TIP3    H279091   2.135   4.697  15.891 -1.9284 -1.2511 -0.7002
19226TIP3   OH279092   5.495   5.600  10.688  0.0889 -0.4702 -0.4383
19226TIP3    H179093   5.425   5.650  10.730  0.0142 -0.4293 -0.6132
19226TIP3    H279094   5.538   5.662  10.631 -0.6384 -0.8509 -1.4267
19227TIP3   OH279095   5.555   3.266   5.927  0.3232  0.8228 -0.3362
19227TIP3    H179096   5.467   3.280   5.963 -0.1499 -1.2817 -0.5952
19227TIP3    H279097   5.553   3.310   5.842 -0.2355  1.3891 -0.0420
19228TIP3   OH279098   5.620   4.473   2.160 -0.1427  0.2350 -0.2232
19228TIP3    H179099   5.671   4.405   2.203 -1.5952 -0.1909  0.8942
19228TIP3    H279100   5.624   4.450   2.067 -0.6356 -1.4112  0.1359
19229TIP3   OH279101   3.407   2.850  11.696  0.4348 -0.5838  0.6262
19229TIP3    H179102   3.434   2.847  11.604  0.6411  0.7278  0.6289
19229TIP3    H279103   3.487   2.839  11.746  0.5452  0.1578  0.6318
19230TIP3   OH279104   0.677   1.744   5.604  0.4072 -0.0194  0.0778
19230TIP3    H179105   0.626   1.722   5.527  2.3716  0.3747 -1.4107
19230TIP3    H279106   0.639   1.691   5.674 -2.5210  0.8565 -0.6864
19231TIP3   OH279107   6.172   2.918  12.990  0.0229  0.2620  1.0110
19231TIP3    H179108   6.164   2.990  13.053  1.0889  0.3390  1.0713
19231TIP3    H279109   6.234   2.950  12.924 -0.4424 -0.1357  0.3593
19232TIP3   OH279110   2.680   2.699  12.375 -0.4884  0.3966  0.5928
19232TIP3    H179111   2.720   2.615  12.353  0.5554  0.8218  0.7770
19232TIP3    H279112   2.592   2.677  12.404 -0.6383 -0.5112 -0.4926
19233TIP3   OH279113   2.841   5.648  12.608  0.0694  0.2959 -0.3888
19233TIP3    H179114   2.791   5.624  12.686 -0.7038  1.8505 -0.3847
19233TIP3    H279115   2.892   5.724  12.634  3.0868 -1.6058 -0.1732
19234TIP3   OH279116   5.227   0.152   2.133  0.5528 -0.5040  0.2157
19234TIP3    H179117   5.167   0.149   2.059 -1.0008 -0.0331  1.3897
19234TIP3    H279118   5.258   0.242   2.135  0.1852 -0.3792  0.4321
19235TIP3   OH279119   1.127   2.832   2.735 -0.4839 -0.0501  0.2161
19235TIP3    H179120   1.083   2.912   2.707  0.3494  0.1172 -0.7233
19235TIP3    H279121   1.065   2.762   2.716 -1.3849  0.3934  1.4379
19236TIP3   OH279122   2.181   6.393  15.709 -0.2554  0.1611  0.5129
19236TIP3    H179123   2.171   6.300  15.730  0.6369 -0.0117  0.2032
19236TIP3    H279124   2.160   6.438  15.791  0.6035 -0.3809  1.0466
19237TIP3   OH279125   5.437   3.451  11.583  0.1097 -0.2556 -0.3348
19237TIP3    H179126   5.464   3.368  11.621  0.0795 -0.0960  0.0462
19237TIP3    H279127   5.476   3.452  11.496 -2.6896 -2.2006 -1.7520
19238TIP3   OH279128   3.585   2.628  16.338 -0.5581 -0.1276  0.2128
19238TIP3    H179129   3.575   2.706  16.283  0.2460 -0.2366 -0.1020
19238TIP3    H279130   3.667   2.643  16.386  0.1018 -1.1712 -0.5273
19239TIP3   OH279131   2.625   4.201  12.960  0.3837  0.7330  0.0903
19239TIP3    H179132   2.593   4.140  12.893  2.1312 -0.5771  0.3881
19239TIP3    H279133   2.559   4.270  12.963 -1.2963 -0.7658 -0.7837
19240TIP3   OH279134   2.894   4.763  16.040  0.0441  0.1183 -0.3091
19240TIP3    H179135   2.939   4.836  16.084 -0.7421  1.7096 -2.0112
19240TIP3    H279136   2.954   4.689  16.048  0.3911  0.5856  2.4549
19241TIP3   OH279137   3.629   6.744  17.047 -0.7444 -0.5441 -0.2507
19241TIP3    H179138   3.720   6.730  17.072 -0.8477  1.3047  1.4350
19241TIP3    H279139   3.617   6.839  17.052 -2.6736 -0.7147 -0.7473
19242TIP3   OH279140   2.981   5.760  10.725 -0.7836 -0.4463 -1.3322
19242TIP3    H179141   2.909   5.742  10.786 -0.0948 -2.4135 -1.0204
19242TIP3    H279142   2.994   5.855  10.730  0.5395 -0.6454  3.0980
19243TIP3   OH279143   4.031   3.706   4.981  0.3403  0.4326 -0.0001
19243TIP3    H179144   4.067   3.722   5.069  4.9506 -0.0865 -1.5359
19243TIP3    H279145   3.972   3.632   4.994  1.3260 -0.0337  2.6323
19244TIP3   OH279146   0.382   6.508   3.018  0.1657 -0.2271 -0.2098
19244TIP3    H179147   0.381   6.447   3.093 -0.5393 -0.3047 -0.2710
19244TIP3    H279148   0.459   6.563   3.033  1.3310 -1.6713 -0.5916
19245TIP3   OH279149   1.515   0.971  14.334 -0.8969  0.3899  0.0312
19245TIP3    H179150   1.471   0.922  14.264  0.4299 -0.1387 -0.4719
19245TIP3    H279151   1.509   0.914  14.411 -3.3513  1.4578  0.7027
19246TIP3   OH279152   0.239   4.307  15.758  0.8762  0.3955  0.7193
19246TIP3    H179153   0.219   4.396  15.789  0.1792  0.2627  0.6715
19246TIP3    H279154   0.223   4.251  15.834  1.0678  0.2820  0.6763
19247TIP3   OH279155   4.354   0.773   4.927 -0.1054 -0.1715  0.2238
19247TIP3    H179156   4.284   0.744   4.869  1.3853 -2.4409 -0.5933
19247TIP3    H279157   4.310   0.788   5.011 -1.5091 -2.4003 -0.0109
19248TIP3   OH279158   0.983   4.364  12.948 -0.2031  0.0946  1.6253
19248TIP3    H179159   0.993   4.340  13.040 -1.2013 -1.1943  1.4171
19248TIP3    H279160   0.888   4.367  12.934 -0.0811  1.3654  0.9007
19249TIP3   OH279161   3.849   4.254  16.226 -0.3795 -0.5791 -0.0868
19249TIP3    H179162   3.765   4.284  16.262 -0.2267  0.6547 -0.7101
19249TIP3    H279163   3.844   4.276  16.133  1.1378  0.7143  0.0954
19250TIP3   OH279164   2.562   5.727   3.814  0.0331  0.0637 -0.1024
19250TIP3    H179165   2.486   5.669   3.812  0.0533 -0.0547  1.2373
19250TIP3    H279166   2.526   5.812   3.839  0.2695  0.1325  0.0082
19251TIP3   OH279167   0.324   1.511   0.528 -0.4946  0.2124  0.5917
19251TIP3    H179168   0.347   1.455   0.602  0.5667 -0.0154  0.1098
19251TIP3    H279169   0.230   1.498   0.517 -0.4738 -0.5788  1.2320
19252TIP3   OH279170   1.140   6.770  15.947 -0.1937 -0.2768  0.1891
19252TIP3    H179171   1.209   6.785  15.882 -1.0801  1.4099 -0.4302
19252TIP3    H279172   1.183   6.722  16.017  1.3292 -0.2407 -0.6776
19253TIP3   OH279173   0.922   1.802  11.384  0.0099 -0.0149  0.0060
19253TIP3    H179174   1.004   1.754  11.395 -0.2170 -0.4513 -0.1421
19253TIP3    H279175   0.858   1.749  11.432 -0.0865  0.6103  0.5821
19254TIP3   OH279176   6.335   4.992  14.892 -0.5500  0.5717  0.1026
19254TIP3    H179177   6.358   5.082  14.872  0.6547 -0.1945 -2.4061
19254TIP3    H279178   6.284   4.963  14.816  2.7250 -2.0247 -1.3759
19255TIP3   OH279179   2.577   2.423   5.259 -0.2614 -0.0261  0.3094
19255TIP3    H179180   2.666   2.406   5.289 -0.4676 -1.6918  0.0878
19255TIP3    H279181   2.521   2.379   5.323 -0.7117 -3.6434 -2.2343
19256TIP3   OH279182   6.206   3.529  12.025 -0.5535 -0.3259  0.4265
19256TIP3    H179183   6.120   3.499  11.996 -1.0663  1.6762 -0.2325
19256TIP3    H279184   6.264   3.512  11.951 -0.7746 -0.0001  0.1778
19257TIP3   OH279185   4.128   5.587  10.318  0.0783  0.1491  0.6788
19257TIP3    H179186   4.182   5.648  10.368 -0.2291  1.5912 -0.6610
19257TIP3    H279187   4.040   5.624  10.321 -0.0658 -0.0795 -0.3552
19258TIP3   OH279188   4.051   1.155   3.231 -0.3275 -0.0817  0.1128
19258TIP3    H179189   3.961   1.186   3.220 -0.1353 -0.0994 -1.9292
19258TIP3    H279190   4.067   1.101   3.153  1.5814  0.2465  0.2273
19259TIP3   OH279191   5.371   3.106   4.996 -0.1921 -0.1486 -0.1434
19259TIP3    H179192   5.297   3.059   5.033  0.1514 -1.3152 -0.8908
19259TIP3    H279193   5.380   3.071   4.908  1.1446  0.0860 -0.1207
19260TIP3   OH279194   3.015   6.444  16.480 -0.1855  0.4328 -0.2403
19260TIP3    H179195   2.960   6.445  16.402  0.6317  1.4773 -0.8386
19260TIP3    H279196   2.969   6.501  16.542 -0.7424 -0.2465 -0.0252
19261TIP3   OH279197   1.769   3.005  13.812  0.6698 -0.0067 -0.2214
19261TIP3    H179198   1.782   3.100  13.812  0.1506  0.0828 -1.6229
19261TIP3    H279199   1.674   2.994  13.818  0.7666 -0.4697  0.6463
19262TIP3   OH279200   0.041   4.517  16.806  0.3780  0.2937  0.2147
19262TIP3    H179201   0.064   4.426  16.825 -1.1870 -0.2966 -0.5655
19262TIP3    H279202   0.041   4.560  16.891  0.3011 -0.6455  0.6999
19263TIP3   OH279203   1.334   5.140  15.704 -0.0317  0.1884 -0.6074
19263TIP3    H179204   1.402   5.073  15.708 -0.6419 -0.6382 -2.6834
19263TIP3    H279205   1.299   5.144  15.793  0.3522 -1.9078 -0.3035
19264TIP3   OH279206   1.124   1.997  12.503  0.4816  0.0769  0.2150
19264TIP3    H179207   1.200   2.049  12.529  1.9319 -1.4027 -0.8297
19264TIP3    H279208   1.104   2.027  12.414 -0.7800  1.0771  0.7946
19265TIP3   OH279209   0.314   5.605  14.583  0.1082 -0.0672  0.8480
19265TIP3    H179210   0.292   5.590  14.491  0.4744 -0.1294  0.7686
19265TIP3    H279211   0.269   5.687  14.605  0.0472 -0.0324  0.6035
19266TIP3   OH279212   5.534   5.315   3.398 -0.1797 -0.0490  0.8160
19266TIP3    H179213   5.491   5.272   3.323 -1.8630  1.8200  0.6107
19266TIP3    H279214   5.563   5.400   3.363  0.1237  0.3406  1.9833
19267TIP3   OH279215   2.732   1.740   1.760 -0.0043  0.3519  0.1015
19267TIP3    H179216   2.813   1.772   1.800 -0.3278  0.7200  0.4795
19267TIP3    H279217   2.703   1.669   1.818  1.0294 -1.0796 -1.0626
19268TIP3   OH279218   0.752   1.789   5.184  0.4191 -0.4970  0.1420
19268TIP3    H179219   0.701   1.826   5.255  0.6024  0.1816 -0.0731
19268TIP3    H279220   0.687   1.751   5.124  0.2377 -0.6015  0.4030
19269TIP3   OH279221   1.162   4.523  14.509  0.0387 -0.2739  0.1757
19269TIP3    H179222   1.205   4.592  14.558  0.2318  0.3212 -0.8189
19269TIP3    H279223   1.090   4.567  14.463 -1.4947 -1.1898  1.5889
19270TIP3   OH279224   6.339   3.156   5.753  0.0559  0.5247  0.0661
19270TIP3    H179225   6.408   3.091   5.740  0.2290 -0.2490  3.6873
19270TIP3    H279226   6.324   3.156   5.848 -2.3032  3.4041 -0.1594
19271TIP3   OH279227   6.277   5.177   1.347  0.2407  0.7269 -0.2956
19271TIP3    H179228   6.361   5.220   1.330  0.8573 -0.6065 -0.7548
19271TIP3    H279229   6.243   5.220   1.425  1.5155  1.0639  0.0944
19272TIP3   OH279230   3.333   1.042   2.886  0.0503 -0.3058  0.0051
19272TIP3    H179231   3.323   1.125   2.839 -0.4633 -0.3360  0.0568
19272TIP3    H279232   3.250   0.997   2.873  0.1789 -0.6383  0.3186
19273TIP3   OH279233   4.584   6.385  11.503  0.2903 -0.0152 -0.0970
19273TIP3    H179234   4.524   6.344  11.442 -2.7941  0.1274  2.5709
19273TIP3    H279235   4.624   6.313  11.551 -0.6483 -0.0698  0.6269
19274TIP3   OH279236   6.696   4.999  13.826 -0.1371  0.5903  0.2087
19274TIP3    H179237   6.612   4.979  13.868 -0.4557 -0.8904 -1.0447
19274TIP3    H279238   6.761   4.952  13.879  0.1802  2.9684  2.1081
19275TIP3   OH279239   6.153   3.728   4.320  0.4197  0.2993 -0.1181
19275TIP3    H179240   6.182   3.642   4.349 -0.4722 -0.2830 -0.8967
19275TIP3    H279241   6.062   3.716   4.295  0.6538  1.1603 -1.5060
19276TIP3   OH279242   5.470   6.529  15.376 -0.0663 -0.0262 -0.4268
19276TIP3    H179243   5.502   6.608  15.420 -0.1069 -0.3939  0.2689
19276TIP3    H279244   5.538   6.510  15.311 -1.3622  2.1733 -2.5928
19277TIP3   OH279245   5.133   6.673  14.604 -0.7338  0.0738  0.0279
19277TIP3    H179246   5.178   6.658  14.521 -1.1139 -1.5567  0.0719
19277TIP3    H279247   5.043   6.693  14.579 -0.6045  0.6336  0.0148
19278TIP3   OH279248   6.633   0.125  13.980  0.1830  0.5586 -0.7957
19278TIP3    H179249   6.637   0.056  13.914  0.7823  0.8428 -1.0640
19278TIP3    H279250   6.593   0.199  13.935  0.9503  0.8791 -0.9594
19279TIP3   OH279251   0.753   1.685  12.401  0.1027  0.2068 -0.2058
19279TIP3    H179252   0.659   1.697  12.387 -0.1940 -0.7060  0.8612
19279TIP3    H279253   0.766   1.706  12.494  0.6895 -1.0694  0.0262
19280TIP3   OH279254   4.837   3.452  14.738 -0.3193 -0.0405  0.2252
19280TIP3    H179255   4.907   3.489  14.685  1.5039 -1.8430  1.2193
19280TIP3    H279256   4.844   3.358  14.725 -2.1619 -0.3192  0.8827
19281TIP3   OH279257   3.536   5.057  14.660 -0.5164 -0.4029  0.1192
19281TIP3    H179258   3.486   5.023  14.734 -1.3563 -0.8600 -0.6434
19281TIP3    H279259   3.551   4.981  14.604  0.6367 -0.1785  0.0969
19282TIP3   OH279260   4.303   5.003  15.512  0.2194 -0.2734 -0.4916
19282TIP3    H179261   4.261   4.929  15.555 -0.8481  1.2846  1.2745
19282TIP3    H279262   4.295   4.985  15.418 -0.8961 -1.8969 -0.1139
19283TIP3   OH279263   6.019   3.633  16.744  0.1979  0.1095  0.9010
19283TIP3    H179264   6.058   3.556  16.702 -0.9134 -0.3754  0.7358
19283TIP3    H279265   6.037   3.704  16.683 -0.6793 -0.4389 -0.0420
19284TIP3   OH279266   6.720   0.648  15.281 -0.1010 -0.0527  0.7781
19284TIP3    H179267   6.777   0.600  15.222 -0.4805  1.4946 -0.9807
19284TIP3    H279268   6.680   0.716  15.225 -2.6698 -0.2654  2.1853
19285TIP3   OH279269   5.472   3.480  11.287 -0.0670 -0.3055 -0.0369
19285TIP3    H179270   5.464   3.407  11.226  0.6571  0.0270 -0.5464
19285TIP3    H279271   5.527   3.543  11.241  0.5672 -0.0840  0.9968
19286TIP3   OH279272   1.752   6.223   0.501  0.2745 -0.1349  0.6795
19286TIP3    H179273   1.699   6.159   0.455  0.9017 -0.2286  0.0661
19286TIP3    H279274   1.702   6.244   0.580 -0.8225  0.0189 -0.0273
19287TIP3   OH279275   3.235   6.659  16.086  0.1406 -0.2993  0.1056
19287TIP3    H179276   3.177   6.699  16.022 -2.6467 -3.6651  0.2205
19287TIP3    H279277   3.272   6.583  16.040  0.9219 -0.7407  1.4088
19288TIP3   OH279278   0.485   4.343  11.834  0.1947 -0.2382 -0.4027
19288TIP3    H179279   0.490   4.390  11.751 -2.0226 -0.8840 -0.9606
19288TIP3    H279280   0.516   4.255  11.813 -0.6829 -0.4968 -0.6501
19289TIP3   OH279281   6.039   4.242  11.409  0.6974  0.2678  0.0906
19289TIP3    H179282   6.107   4.307  11.427  2.7351 -1.4297 -1.1453
19289TIP3    H279283   6.063   4.166  11.462 -0.5283 -0.2219 -0.0153
19290TIP3   OH279284   2.121   0.993  16.726  0.1854 -0.8263 -0.5998
19290TIP3    H179285   2.138   0.968  16.817  0.7999  2.9412  0.4982
19290TIP3    H279286   2.026   0.992  16.718  0.0458  0.2982  0.6367
19291TIP3   OH279287   0.078   4.992   6.217  0.4161 -0.2374 -0.4384
19291TIP3    H179288   0.115   5.073   6.181 -0.6381 -0.3264 -1.7986
19291TIP3    H279289   0.145   4.960   6.278  1.0481  1.4051 -0.2124
19292TIP3   OH279290   0.355   1.036   2.939 -0.5805  0.1906 -0.2648
19292TIP3    H179291   0.392   1.122   2.957  1.6285 -0.6064 -0.7489
19292TIP3    H279292   0.335   1.000   3.025  1.9810 -0.2451  0.2084
19293TIP3   OH279293   2.233   5.366  12.349  0.0949  0.1608 -0.0086
19293TIP3    H179294   2.177   5.386  12.274  0.1224 -0.1211 -0.1063
19293TIP3    H279295   2.313   5.330  12.309  0.9138  1.8051  0.0445
19294TIP3   OH279296   3.942   6.131  17.033  0.3503 -0.1506  0.0707
19294TIP3    H179297   3.941   6.036  17.036  1.6471 -0.2369 -1.0818
19294TIP3    H279298   4.029   6.155  17.065 -0.1446  0.6742  0.8264
19295TIP3   OH279299   4.896   5.759   2.407 -0.0131  0.0246 -0.1475
19295TIP3    H179300   4.831   5.811   2.359 -1.5975 -1.8131 -0.1362
19295TIP3    H279301   4.973   5.760   2.351 -0.6439  0.7738 -1.0494
19296TIP3   OH279302   1.923   2.774   4.051 -0.6304  0.4046 -0.3523
19296TIP3    H179303   1.920   2.806   3.961 -2.7614 -1.3958 -1.0379
19296TIP3    H279304   1.921   2.679   4.042  1.8284  0.0760  1.6078
19297TIP3   OH279305   1.890   0.022   2.330 -0.3543 -0.7129 -0.0420
19297TIP3    H179306   1.913   0.083   2.260 -1.3308 -0.7809 -0.4417
19297TIP3    H279307   1.949  -0.052   2.319 -0.2098 -0.5259 -0.5229
19298TIP3   OH279308   3.608   3.139   6.560 -0.2924  0.3608 -0.6390
19298TIP3    H179309   3.573   3.078   6.496  1.7907 -0.3285 -1.2179
19298TIP3    H279310   3.665   3.085   6.616 -0.8932  1.2164  0.8763
19299TIP3   OH279311   0.421   4.740   1.026 -0.0606  0.7323  0.7023
19299TIP3    H179312   0.392   4.821   1.067  0.2134  0.6031  1.1659
19299TIP3    H279313   0.375   4.671   1.074 -1.1085  0.6550 -0.3860
19300TIP3   OH279314   5.165   2.216   5.286  0.3086 -0.1054  0.3173
19300TIP3    H179315   5.243   2.271   5.275 -0.6822  1.4679  0.8411
19300TIP3    H279316   5.182   2.165   5.365  0.1917  1.3735  1.3327
19301TIP3   OH279317   4.558   6.520   2.308  0.0633  0.3493 -0.5459
19301TIP3    H179318   4.617   6.468   2.254 -1.0591 -3.0919  1.1681
19301TIP3    H279319   4.473   6.513   2.264  0.1759  2.1114 -1.0857
19302TIP3   OH279320   2.478   3.616   5.265 -0.6517 -0.6299  0.0011
19302TIP3    H179321   2.459   3.525   5.284 -0.4041 -0.9492 -1.1784
19302TIP3    H279322   2.430   3.665   5.331 -0.5980 -1.6157  0.7902
19303TIP3   OH279323   3.567   3.533   0.854  0.1704  0.7611  0.1150
19303TIP3    H179324   3.474   3.513   0.848  0.3324  0.2975 -0.9721
19303TIP3    H279325   3.577   3.574   0.940 -0.9880  0.5810  0.3482
19304TIP3   OH279326   3.372   0.623   4.314  0.7208 -0.1015 -0.9080
19304TIP3    H179327   3.423   0.672   4.250 -0.3322  0.7691 -1.1128
19304TIP3    H279328   3.296   0.678   4.332  0.3340 -0.9221  0.1137
19305TIP3   OH279329   6.275   2.608   4.264  0.0643  0.0161  0.4420
19305TIP3    H179330   6.188   2.568   4.268  0.4932 -1.1319 -0.9135
19305TIP3    H279331   6.281   2.645   4.176 -0.0466  2.5672  1.4065
19306TIP3   OH279332   2.803   0.409  15.136 -0.0771  0.2603  0.3336
19306TIP3    H179333   2.844   0.365  15.210  1.5506  0.6326 -0.2947
19306TIP3    H279334   2.812   0.503  15.155  1.6184  0.4059 -0.9087
19307TIP3   OH279335   3.142   3.692  11.577  0.4101  0.0900  0.2317
19307TIP3    H179336   3.139   3.746  11.656 -1.5380 -2.9898  2.5386
19307TIP3    H279337   3.214   3.631  11.592 -0.3922 -0.9442 -0.0059
19308TIP3   OH279338   2.755   0.271   3.787  0.8895  0.0526 -0.3080
19308TIP3    H179339   2.741   0.176   3.786  0.3780  0.1268 -1.1241
19308TIP3    H279340   2.732   0.299   3.699  0.5303  1.0112  0.0805
19309TIP3   OH279341   0.066   3.516  15.020  0.4861  0.1372  0.2296
19309TIP3    H179342   0.060   3.457  15.094  2.8420  1.7538  1.8397
19309TIP3    H279343   0.133   3.478  14.963 -0.4119 -0.4329 -0.4848
19310TIP3   OH279344   4.466   0.124  16.128  0.0633 -0.0360  0.0788
19310TIP3    H179345   4.548   0.079  16.109  0.9491  2.0337 -1.4370
19310TIP3    H279346   4.407   0.099  16.057  0.4934  0.9799 -0.6583
19311TIP3   OH279347   2.011   1.988   5.890  0.5139 -0.1200  0.5783
19311TIP3    H179348   1.992   1.988   5.797  0.3279 -2.4911  0.5707
19311TIP3    H279349   1.946   2.047   5.928  1.3764  1.8879 -0.8777
19312TIP3   OH279350   5.311   5.508  14.461  0.4344 -0.0102  0.2956
19312TIP3    H179351   5.256   5.570  14.509 -1.2313  0.6912 -2.3043
19312TIP3    H279352   5.370   5.562  14.409  0.0430 -0.5937 -0.8037
19313TIP3   OH279353   0.852   1.134   1.425 -0.5742  0.5405 -0.4600
19313TIP3    H179354   0.864   1.179   1.509 -0.5115  1.2812 -0.8567
19313TIP3    H279355   0.864   1.042   1.445  0.8784  0.8223  0.1001
19314TIP3   OH279356   0.011   3.312   2.929 -0.1272  0.4434  0.2124
19314TIP3    H179357  -0.075   3.337   2.963 -0.7040  1.1241 -1.5957
19314TIP3    H279358   0.070   3.320   3.004 -1.4139  1.2943  1.1790
19315TIP3   OH279359   1.222   6.079  14.325  0.0111  0.2014  0.1616
19315TIP3    H179360   1.224   6.092  14.230  1.0899 -1.9554 -0.1740
19315TIP3    H279361   1.162   6.146  14.357  0.5252  1.7468 -1.8950
19316TIP3   OH279362   0.211   1.305   2.835  0.5479 -0.0536  0.0759
19316TIP3    H179363   0.218   1.228   2.778 -1.0145  0.8954 -1.4964
19316TIP3    H279364   0.170   1.372   2.780 -0.2293  1.1995  2.0634
19317TIP3   OH279365   2.593   2.092   4.034  0.1123 -0.0285  0.5261
19317TIP3    H179366   2.674   2.133   4.064  0.2299  1.5686 -1.7349
19317TIP3    H279367   2.526   2.123   4.094  0.6007  1.7029  0.2191
19318TIP3   OH279368   4.468   5.814  13.481  0.5393  0.0297 -0.0839
19318TIP3    H179369   4.515   5.734  13.459 -0.7027 -0.9226  0.5746
19318TIP3    H279370   4.420   5.793  13.561  0.9624  1.7689  0.6705
19319TIP3   OH279371   4.574   1.101  10.755  0.4471 -0.2978  0.3310
19319TIP3    H179372   4.551   1.072  10.843 -1.5954 -2.5829 -0.8302
19319TIP3    H279373   4.560   1.024  10.700 -0.3040  1.5597 -2.2751
19320TIP3   OH279374   0.380   1.859  16.182  0.3200 -0.0469  0.2634
19320TIP3    H179375   0.370   1.829  16.272 -0.2344  0.9835  0.5632
19320TIP3    H279376   0.469   1.894  16.178 -0.0666  1.0061  0.7546
19321TIP3   OH279377   1.336   6.756   5.303 -0.1430  0.2661 -0.1356
19321TIP3    H179378   1.263   6.716   5.256 -0.7272  0.5212  0.5365
19321TIP3    H279379   1.369   6.824   5.243 -0.2502 -0.0644 -0.5694
19322TIP3   OH279380   2.064   0.766   3.358 -0.4567  0.2549  0.6438
19322TIP3    H179381   2.054   0.676   3.388  1.8012 -0.0590  0.5847
19322TIP3    H279382   2.096   0.759   3.268 -0.7257  1.1363  0.4613
19323TIP3   OH279383   2.862   2.873  15.579 -0.2832 -0.3680  0.4636
19323TIP3    H179384   2.884   2.965  15.594  1.4436 -0.8486  1.1320
19323TIP3    H279385   2.784   2.858  15.632 -0.6486  0.7364  0.2594
19324TIP3   OH279386   6.005   4.537   1.684  0.2864  0.1267 -0.7151
19324TIP3    H179387   5.949   4.613   1.670 -1.2247 -0.7477  0.3947
19324TIP3    H279388   6.059   4.560   1.760 -0.7260 -0.1893  0.1179
19325TIP3   OH279389   3.623   5.307  11.413  0.1236 -0.2754 -0.8555
19325TIP3    H179390   3.603   5.299  11.320 -0.8580  0.2651 -0.7109
19325TIP3    H279391   3.537   5.308  11.456  0.4786  1.2361 -0.1000
19326TIP3   OH279392   0.044   1.200   2.350 -0.4817  0.2637  0.3111
19326TIP3    H179393   0.071   1.108   2.358 -0.6360  0.2844  1.1212
19326TIP3    H279394   0.115   1.249   2.391 -0.4358  0.5093 -0.0550
19327TIP3   OH279395   0.382   5.860  12.681  0.2188  0.2768  0.1398
19327TIP3    H179396   0.334   5.781  12.656  0.5527 -0.0342  0.4711
19327TIP3    H279397   0.358   5.874  12.772  0.3257  0.4425  0.1421
19328TIP3   OH279398   5.394   6.565  15.725 -0.4851  0.6197 -0.0612
19328TIP3    H179399   5.331   6.565  15.797  0.5116  1.6973  0.8672
19328TIP3    H279400   5.352   6.616  15.656 -0.2799  2.2205  0.9312
19329TIP3   OH279401   2.809   1.104   1.924 -0.1830 -0.0096  0.0364
19329TIP3    H179402   2.730   1.051   1.934 -1.1206  0.4760 -3.3747
19329TIP3    H279403   2.840   1.119   2.013 -1.3287 -4.0220  1.3343
19330TIP3   OH279404   2.279   2.307   0.496 -0.0003 -0.7252 -0.3125
19330TIP3    H179405   2.285   2.397   0.465  0.4440 -0.7683 -0.3676
19330TIP3    H279406   2.274   2.254   0.417 -0.7298 -0.7208 -0.2703
19331TIP3   OH279407   5.166   3.076  14.830 -0.5142  0.2675 -0.4298
19331TIP3    H179408   5.202   2.989  14.811  0.4573  1.0669 -2.5174
19331TIP3    H279409   5.234   3.119  14.881 -0.5145  0.2007 -0.3722
19332TIP3   OH279410   1.040   5.547   0.017 -0.0965  0.4167  0.7144
19332TIP3    H179411   1.065   5.621   0.072  0.4990  0.8503 -0.1212
19332TIP3    H279412   1.072   5.570  -0.071  0.1917 -0.8694  0.4614
19333TIP3   OH279413   4.201   3.122   1.644 -0.2964  0.3424 -0.4875
19333TIP3    H179414   4.184   3.072   1.725 -0.4376  0.8029 -0.2319
19333TIP3    H279415   4.296   3.130   1.641 -0.2356 -0.4281 -0.8249
19334TIP3   OH279416   5.678   6.249   2.968  0.2287 -0.0089  0.0751
19334TIP3    H179417   5.640   6.237   3.055  0.2459  1.7138  0.3456
19334TIP3    H279418   5.725   6.167   2.952 -0.8952 -0.8928  1.0988
19335TIP3   OH279419   5.003   0.755  16.944 -0.3797 -0.1074 -0.3950
19335TIP3    H179420   5.048   0.722  17.022  1.4449  1.6144 -0.6504
19335TIP3    H279421   4.911   0.764  16.971 -0.2783 -1.8775  0.7439
19336TIP3   OH279422   0.867   5.284   0.454  0.1305 -0.0192 -0.1032
19336TIP3    H179423   0.777   5.295   0.425  0.0461  0.6115  0.4004
19336TIP3    H279424   0.919   5.331   0.389  0.2355 -1.5801 -1.2180
19337TIP3   OH279425   0.242   5.503   6.053 -0.4072 -0.1192 -0.5169
19337TIP3    H179426   0.178   5.567   6.084 -1.8937 -1.5773 -0.4184
19337TIP3    H279427   0.224   5.424   6.104  2.6178 -0.1242  0.7001
19338TIP3   OH279428   2.379   2.711  16.181 -0.1521  0.5694  0.3887
19338TIP3    H179429   2.408   2.620  16.180  1.7197  1.0985  1.2974
19338TIP3    H279430   2.313   2.716  16.113  1.4644 -0.9348 -1.4155
19339TIP3   OH279431   0.079   1.355   2.577  0.1669 -0.7132 -1.0653
19339TIP3    H179432   0.088   1.450   2.565 -0.2185 -0.7702 -1.8971
19339TIP3    H279433  -0.013   1.337   2.555 -0.0532 -1.1417  0.1232
19340TIP3   OH279434   0.403   3.729  13.043  0.2726  0.2271 -0.3724
19340TIP3    H179435   0.434   3.819  13.054  1.6590 -0.3340  0.5923
19340TIP3    H279436   0.325   3.737  12.989  1.1975  1.8639 -1.5476
19341TIP3   OH279437   2.165   2.022  15.135  0.5846 -0.1803  0.5731
19341TIP3    H179438   2.231   2.040  15.067 -0.0900  1.5288  0.3350
19341TIP3    H279439   2.215   1.982  15.206  1.5031 -0.9271 -0.4556
19342TIP3   OH279440   1.124   0.246   0.912 -0.0169  0.3402 -0.4944
19342TIP3    H179441   1.176   0.204   0.844  0.7835  0.8477 -0.2048
19342TIP3    H279442   1.107   0.334   0.878  1.2940  0.9679  0.3933
19343TIP3   OH279443   5.787   6.510  15.999 -0.2840 -0.6615 -0.3740
19343TIP3    H179444   5.813   6.573  15.932  0.2240  1.2674  1.5209
19343TIP3    H279445   5.870   6.475  16.032 -0.4305 -0.2663  0.4354
19344TIP3   OH279446   1.311   4.858  11.251 -0.0628 -0.4176  0.1590
19344TIP3    H179447   1.245   4.874  11.183  1.1647 -0.7524 -1.1626
19344TIP3    H279448   1.394   4.884  11.211  0.7742 -1.1408  1.3501
19345TIP3   OH279449   0.194   3.959   3.957 -0.2853 -0.6526  0.3060
19345TIP3    H179450   0.261   3.891   3.959 -0.6198 -1.0109 -0.2835
19345TIP3    H279451   0.112   3.912   3.974 -0.5498 -0.4412 -0.3638
19346TIP3   OH279452   5.719   5.614   1.040 -0.2434 -0.6241  0.1531
19346TIP3    H179453   5.709   5.642   1.131 -0.5226 -0.1470 -0.0217
19346TIP3    H279454   5.782   5.542   1.044  0.3877 -0.0604  0.6266
19347TIP3   OH279455   4.800   0.977   1.648 -0.2525  0.4784  0.5275
19347TIP3    H179456   4.768   1.066   1.661 -2.9926 -0.5220  1.4114
19347TIP3    H279457   4.820   0.945   1.736 -1.1569 -0.3754  0.4439
19348TIP3   OH279458   1.144   5.644  15.265 -0.3925  0.3729 -0.1966
19348TIP3    H179459   1.225   5.638  15.214 -1.6983  1.1939 -2.5371
19348TIP3    H279460   1.079   5.677  15.203 -2.3254  0.6479  1.8427
19349TIP3   OH279461   1.702   2.601   0.260  0.5184 -0.1662 -0.2315
19349TIP3    H179462   1.699   2.509   0.286  0.2782  0.3073  1.6206
19349TIP3    H279463   1.652   2.605   0.179 -0.5916 -1.4679  0.3453
19350TIP3   OH279464   3.140   4.898   5.624  0.6792  0.0228 -0.2995
19350TIP3    H179465   3.217   4.857   5.586 -1.3202 -3.2013 -1.2626
19350TIP3    H279466   3.141   4.871   5.716  1.2895  1.0284  0.0053
19351TIP3   OH279467   0.833   6.416  14.977 -0.1602 -0.3695  0.2467
19351TIP3    H179468   0.920   6.449  14.952 -1.0170  2.0043  0.1929
19351TIP3    H279469   0.794   6.387  14.894 -0.6017  1.6025 -0.2836
19352TIP3   OH279470   4.100   1.335  15.080  0.3775 -0.4595 -0.0051
19352TIP3    H179471   4.024   1.282  15.054  1.4710 -2.1220  0.0414
19352TIP3    H279472   4.079   1.365  15.168 -0.3835 -0.6176 -0.1253
19353TIP3   OH279473   2.829   2.379  12.031  0.0443  0.3798 -0.4792
19353TIP3    H179474   2.818   2.409  11.940 -0.0450  1.1396 -0.2256
19353TIP3    H279475   2.919   2.347  12.035  0.0814  0.4358 -0.8132
19354TIP3   OH279476   6.183   0.148  12.070 -0.0860  0.0455 -0.3001
19354TIP3    H179477   6.127   0.070  12.065 -2.0895  1.4514 -0.7506
19354TIP3    H279478   6.217   0.158  11.981  0.0393 -0.1963 -0.2824
19355TIP3   OH279479   4.331   4.017  16.472  0.2813  0.0918 -0.2623
19355TIP3    H179480   4.254   4.063  16.438 -0.0329 -0.7608 -0.7364
19355TIP3    H279481   4.295   3.945  16.524  0.7680  0.4879  0.6444
19356TIP3   OH279482   5.584   4.231  11.050 -0.4820  0.5183  0.0331
19356TIP3    H179483   5.573   4.149  11.097 -0.5453  1.2165  1.2739
19356TIP3    H279484   5.506   4.237  10.994 -0.5915 -0.1380  0.1125
19357TIP3   OH279485   0.427   4.194   0.503  0.1702  0.2152 -0.1268
19357TIP3    H179486   0.394   4.145   0.427 -1.3580 -1.0685  1.2832
19357TIP3    H279487   0.480   4.130   0.550  1.7163  1.2192 -0.4522
19358TIP3   OH279488   5.544   0.550   5.237  0.8290  0.1964 -0.7476
19358TIP3    H179489   5.534   0.617   5.305 -0.5072 -2.4057  1.7953
19358TIP3    H279490   5.565   0.470   5.284 -0.1529 -1.7747 -3.3915
19359TIP3   OH279491   6.434   0.436  15.916  0.1137  0.2022  0.3144
19359TIP3    H179492   6.437   0.472  15.828  0.5491 -0.2516  0.1387
19359TIP3    H279493   6.433   0.513  15.974  1.0730  0.4957 -0.0493
19360TIP3   OH279494   0.848   6.085   6.532  0.1702  0.1343  0.1078
19360TIP3    H179495   0.842   6.180   6.520 -0.4134  0.3477  1.7822
19360TIP3    H279496   0.941   6.066   6.529  0.2036  0.3040 -3.0294
19361TIP3   OH279497   4.160   0.112   0.670 -0.4114  0.1426 -0.3881
19361TIP3    H179498   4.210   0.133   0.749 -0.4941  0.3144 -0.3813
19361TIP3    H279499   4.094   0.181   0.665 -2.0060 -1.2094  0.7734
19362TIP3   OH279500   4.719   5.913  11.445 -0.3183 -0.1329  0.4641
19362TIP3    H179501   4.752   5.873  11.365  0.0800 -0.6740  0.8914
19362TIP3    H279502   4.640   5.863  11.466  0.6292 -1.2537  1.4454
19363TIP3   OH279503   0.942   6.473   3.268 -0.1803 -0.2259  0.6492
19363TIP3    H179504   0.859   6.429   3.289 -0.4245 -0.3041 -0.4269
19363TIP3    H279505   1.009   6.420   3.311 -0.4358 -1.9346 -0.9309
19364TIP3   OH279506   2.318   3.803  13.854  0.4916  0.0809  0.1269
19364TIP3    H179507   2.380   3.861  13.808  0.3681 -0.0266 -0.1798
19364TIP3    H279508   2.361   3.717  13.852  0.4774  0.0723  0.1992
19365TIP3   OH279509   5.949   5.679  15.236  0.1196 -0.0589  0.2912
19365TIP3    H179510   5.921   5.642  15.152 -0.4217 -0.2343  0.5413
19365TIP3    H279511   6.000   5.757  15.213  0.6396 -0.5435 -0.2190
19366TIP3   OH279512   5.010   1.703   6.319 -0.5819 -0.2348  0.4852
19366TIP3    H179513   5.019   1.643   6.393 -0.1848  0.7853  1.2916
19366TIP3    H279514   4.919   1.694   6.292 -0.8416 -0.3619  1.3547
19367TIP3   OH279515   1.404   1.573   4.961  0.2920  0.4297  0.2927
19367TIP3    H179516   1.354   1.654   4.951 -1.7672 -0.8830 -0.8605
19367TIP3    H279517   1.338   1.505   4.968  1.9576 -1.2422  0.6052
19368TIP3   OH279518   3.956   0.596  10.518 -0.3678  0.1076 -0.1679
19368TIP3    H179519   4.010   0.675  10.513  1.4207 -1.1654 -4.1915
19368TIP3    H279520   3.994   0.546  10.590  0.9199  1.2275 -0.0228
19369TIP3   OH279521   2.703   2.296   0.999  0.3120 -0.1525  0.3906
19369TIP3    H179522   2.713   2.353   0.923  1.8626 -1.3030 -0.2939
19369TIP3    H279523   2.759   2.335   1.066  0.4290 -0.1996  0.3201
19370TIP3   OH279524   6.483   4.008   4.200 -0.1066  0.1382 -0.2321
19370TIP3    H179525   6.410   4.049   4.246  0.3567 -0.1745  0.8143
19370TIP3    H279526   6.455   3.917   4.186 -0.2313  0.2228 -0.5452
19371TIP3   OH279527   1.881   0.601   2.969  0.7229 -0.1173  0.5625
19371TIP3    H179528   1.862   0.694   2.983 -0.4610 -0.2910  0.2149
19371TIP3    H279529   1.874   0.590   2.874  1.2319 -0.4904  0.5677
19372TIP3   OH279530   6.548   3.249  15.851  0.3123 -0.0595 -0.5477
19372TIP3    H179531   6.489   3.276  15.781  0.8090 -0.2478 -1.0476
19372TIP3    H279532   6.611   3.191  15.808  1.4350  0.8822 -0.2307
19373TIP3   OH279533   3.228   1.344  14.931  0.0606 -0.6770  0.0594
19373TIP3    H179534   3.272   1.429  14.941  1.5150 -1.2910 -0.8604
19373TIP3    H279535   3.175   1.354  14.851  0.5888 -0.7739 -0.3076
19374TIP3   OH279536   4.541   4.447   5.323 -0.4685 -0.0449  0.7368
19374TIP3    H179537   4.586   4.486   5.398 -0.1894  0.3518  0.3600
19374TIP3    H279538   4.449   4.446   5.350 -0.5116  1.0306  0.6954
19375TIP3   OH279539   5.212   1.326  14.937  0.2085 -0.0525  0.3610
19375TIP3    H179540   5.203   1.257  14.871  1.1866  0.2963 -0.1450
19375TIP3    H279541   5.122   1.344  14.965 -0.1944 -0.3380 -0.7260
19376TIP3   OH279542   1.918   2.817   5.737 -0.3508  0.2725 -0.0909
19376TIP3    H179543   1.897   2.870   5.814 -1.1609  2.2525 -1.5861
19376TIP3    H279544   1.976   2.873   5.685 -1.6708 -0.0479 -1.9966
19377TIP3   OH279545   4.087   5.782  14.334  0.0100 -0.0828 -0.1395
19377TIP3    H179546   4.181   5.762  14.336  0.0081 -0.4957 -2.2251
19377TIP3    H279547   4.060   5.764  14.244 -1.5064  2.5464 -0.3304
19378TIP3   OH279548   2.795   3.636  14.458  0.1106 -0.6759  0.1766
19378TIP3    H179549   2.794   3.716  14.405 -1.4088 -0.6950  0.1075
19378TIP3    H279550   2.876   3.640  14.508  1.4350 -0.4850 -1.8807
19379TIP3   OH279551   0.641   3.705  14.018 -0.5660  0.3936 -0.1986
19379TIP3    H179552   0.629   3.663  13.933 -2.3951  0.0106  0.2055
19379TIP3    H279553   0.650   3.631  14.079  1.6096  0.6631 -0.1229
19380TIP3   OH279554   6.769   2.279  16.210  0.0594  0.0125 -0.0354
19380TIP3    H179555   6.864   2.284  16.206  0.0759 -0.9580 -1.7965
19380TIP3    H279556   6.740   2.369  16.198  0.7594  0.0868 -1.4176
19381TIP3   OH279557   2.649   3.354   1.462  0.0453 -0.1278  0.7697
19381TIP3    H179558   2.709   3.429   1.467 -1.1761  0.9597 -0.0748
19381TIP3    H279559   2.635   3.341   1.368 -1.1702 -0.2325  0.9446
19382TIP3   OH279560   1.505   2.138   2.681 -0.1501 -0.1112 -0.2737
19382TIP3    H179561   1.585   2.085   2.682 -0.0614  0.0232  0.6053
19382TIP3    H279562   1.443   2.088   2.735  0.0918  0.8925  0.9857
19383TIP3   OH279563   6.583   1.031  11.986  0.2185 -0.3584 -0.0659
19383TIP3    H179564   6.570   1.070  12.073  0.4800  0.1235 -0.2410
19383TIP3    H279565   6.577   0.936  12.001  1.5535 -0.3442  0.6952
19384TIP3   OH279566   6.608   2.567   4.179 -0.1910 -0.1589  0.2368
19384TIP3    H179567   6.611   2.580   4.274 -0.8396  0.7266  0.1457
19384TIP3    H279568   6.527   2.608   4.151 -0.7879 -1.7444 -0.5167
19385TIP3   OH279569   0.623   4.251  13.752  0.2744 -0.3931  0.2552
19385TIP3    H179570   0.639   4.159  13.775  0.7087 -0.4145 -0.1122
19385TIP3    H279571   0.558   4.281  13.815  0.1988 -0.9285  0.4366
19386TIP3   OH279572   4.072   6.452  14.845 -0.0515 -0.5072 -0.4287
19386TIP3    H179573   4.155   6.443  14.800  1.4892 -1.0508  2.3028
19386TIP3    H279574   4.036   6.363  14.847  0.0622 -0.5501 -0.2773
19387TIP3   OH279575   5.792   2.592  15.112  0.1809 -0.0079 -0.6488
19387TIP3    H179576   5.878   2.632  15.101  0.6514 -0.3823  1.2293
19387TIP3    H279577   5.801   2.505  15.074  0.1140  0.5168 -1.9063
19388TIP3   OH279578   4.323   4.030  11.999 -0.6819  0.6033  0.1600
19388TIP3    H179579   4.356   3.955  12.049 -0.8026  0.9221  0.7342
19388TIP3    H279580   4.401   4.071  11.963 -0.6789 -0.3488 -0.9842
19389TIP3   OH279581   0.045   5.453  15.984 -0.3020 -0.6873 -0.2236
19389TIP3    H179582  -0.006   5.418  16.057  0.8475 -1.6220  0.1685
19389TIP3    H279583   0.136   5.434  16.007  0.1433 -0.1915 -1.4818
19390TIP3   OH279584   5.126   0.662   0.526  0.0511 -0.1467  0.4412
19390TIP3    H179585   5.161   0.729   0.469 -1.4589 -1.6262 -2.4559
19390TIP3    H279586   5.089   0.710   0.600  3.0209  1.7727  0.8332
19391TIP3   OH279587   2.862   1.841   6.049 -0.7104  0.0412 -0.3155
19391TIP3    H179588   2.865   1.881   6.135 -0.9576  0.1585 -0.3588
19391TIP3    H279589   2.793   1.775   6.056 -0.4492 -0.2333 -0.3055
19392TIP3   OH279590   0.810   4.160   2.717 -0.3152  1.1227  0.2273
19392TIP3    H179591   0.903   4.170   2.696 -0.3298  1.2016  0.1981
19392TIP3    H279592   0.806   4.159   2.812 -0.2377  0.6687  0.2251
19393TIP3   OH279593   4.937   1.615  12.389  0.2044  0.2430 -0.0010
19393TIP3    H179594   4.929   1.579  12.478  1.1163  2.0234  0.8539
19393TIP3    H279595   4.966   1.540  12.336 -0.3964 -0.8690  1.1758
19394TIP3   OH279596   5.685   2.907  17.057 -0.0677  0.2363  0.1706
19394TIP3    H179597   5.748   2.938  16.991  0.3492 -1.7356 -0.4069
19394TIP3    H279598   5.738   2.886  17.133  0.2362 -2.6005 -0.7241
19395TIP3   OH279599   1.960   0.743  14.504  0.9600  0.5974 -0.1591
19395TIP3    H179600   1.905   0.787  14.569 -0.1997 -0.7129 -0.1918
19395TIP3    H279601   1.933   0.781  14.421 -0.3574 -0.3998 -0.2339
19396TIP3   OH279602   3.777   3.179   1.251  0.1412  0.0256 -0.7103
19396TIP3    H179603   3.723   3.162   1.174 -1.0783 -1.2452  0.3565
19396TIP3    H279604   3.817   3.095   1.272  1.9550  0.7816 -1.0140
19397TIP3   OH279605   1.289   1.619  12.886 -0.0246  0.1198  0.2975
19397TIP3    H179606   1.277   1.709  12.857 -2.0134 -0.5578 -1.1802
19397TIP3    H279607   1.381   1.599  12.868  0.0567  1.3732 -0.7484
19398TIP3   OH279608   1.945   0.514  13.544  0.2082  0.2881 -0.6896
19398TIP3    H179609   2.022   0.571  13.543  0.5160 -0.1299 -1.6568
19398TIP3    H279610   1.890   0.550  13.614  1.8732 -0.2055  0.9577
19399TIP3   OH279611   6.273   1.608   3.732 -0.4297 -0.3123  0.5211
19399TIP3    H179612   6.354   1.589   3.684 -1.1685  0.7064 -1.2219
19399TIP3    H279613   6.265   1.536   3.795  1.2896 -0.9832  0.0313
19400TIP3   OH279614   3.068   5.462   3.149  0.0606  0.6910 -0.2363
19400TIP3    H179615   3.084   5.368   3.141  1.8782  0.8972  0.5619
19400TIP3    H279616   3.119   5.501   3.078  1.3813  1.2169  0.9568
19401TIP3   OH279617   4.123   3.643   5.650  0.5555  0.2149  0.1323
19401TIP3    H179618   4.100   3.708   5.583 -0.5803 -0.3656 -0.0626
19401TIP3    H279619   4.052   3.580   5.647  2.1968 -1.7037 -0.5089
19402TIP3   OH279620   3.854   5.124  12.609  0.1853 -0.0487 -0.3031
19402TIP3    H179621   3.940   5.166  12.607  0.6542 -0.9426 -3.0850
19402TIP3    H279622   3.861   5.051  12.547 -2.0008 -1.3620  0.8686
19403TIP3   OH279623   6.021   6.432  15.250 -0.2311  0.2648 -0.8095
19403TIP3    H179624   6.108   6.445  15.288 -0.3463  2.6982 -1.2663
19403TIP3    H279625   6.005   6.338  15.260  2.2257 -0.1652 -0.2643
19404TIP3   OH279626   1.866   5.761  10.459 -0.8597  0.0282 -0.0849
19404TIP3    H179627   1.879   5.686  10.517  1.7622 -1.0025 -1.7743
19404TIP3    H279628   1.807   5.729  10.391  0.4567 -0.6886 -0.9444
19405TIP3   OH279629   0.785   0.595  14.807 -0.2421 -0.6362  0.1188
19405TIP3    H179630   0.693   0.602  14.782 -0.0617 -0.2258 -0.4536
19405TIP3    H279631   0.833   0.629  14.731  0.3410  0.3535  0.9118
19406TIP3   OH279632   4.426   6.570   4.019  0.1153  0.1983 -0.0814
19406TIP3    H179633   4.513   6.605   4.041 -0.2449  0.7967  0.4115
19406TIP3    H279634   4.444   6.503   3.952  0.8654  1.0437 -0.7609
19407TIP3   OH279635   1.207   2.199  16.404 -0.1350 -0.1923  0.2930
19407TIP3    H179636   1.117   2.167  16.402 -1.0377  2.1070 -2.3659
19407TIP3    H279637   1.242   2.177  16.318  1.6812 -0.4642  1.0526
19408TIP3   OH279638   5.584   4.558  15.153  0.5921 -0.3185 -0.4111
19408TIP3    H179639   5.636   4.635  15.177  0.0626  0.3343 -1.2819
19408TIP3    H279640   5.561   4.573  15.061 -2.4430  0.2245  0.3151
19409TIP3   OH279641   1.348   1.017   0.476 -0.1978 -0.0652 -0.3332
19409TIP3    H179642   1.293   0.964   0.418 -4.0313  1.5190  1.4815
19409TIP3    H279643   1.352   1.102   0.433 -0.8817  0.3824  0.4739
19410TIP3   OH279644   6.423   1.666   4.169 -0.4142  0.6394 -0.4791
19410TIP3    H179645   6.415   1.732   4.100 -0.3233  1.4283  0.2528
19410TIP3    H279646   6.347   1.609   4.157 -0.8826  1.3006 -0.6767
19411TIP3   OH279647   3.539   6.662   2.332  0.0469 -0.2644 -0.0164
19411TIP3    H179648   3.581   6.707   2.405 -0.0148 -1.0312  0.4975
19411TIP3    H279649   3.544   6.725   2.259  1.7940 -0.2147  0.1043
19412TIP3   OH279650   4.900   6.250  15.477  0.4780  0.2584  0.2771
19412TIP3    H179651   4.981   6.239  15.427  0.5550 -0.0798  0.4698
19412TIP3    H279652   4.904   6.339  15.510  1.2723 -0.0704  1.1356
19413TIP3   OH279653   6.214   6.746  14.748  0.9067  0.6328 -0.0592
19413TIP3    H179654   6.282   6.766  14.684  0.1929 -0.4650 -1.2094
19413TIP3    H279655   6.137   6.723  14.695  0.5477 -1.1715  1.1494
19414TIP3   OH279656   3.279   3.947   1.771 -0.1777  0.0326 -0.1387
19414TIP3    H179657   3.190   3.948   1.735 -0.1851  0.0301 -0.1203
19414TIP3    H279658   3.334   3.980   1.700 -0.1254 -0.4480 -0.3295
19415TIP3   OH279659   3.997   4.599   0.907 -0.3471  0.0481  0.9854
19415TIP3    H179660   4.087   4.632   0.904 -0.6082  0.8524  1.5710
19415TIP3    H279661   4.007   4.505   0.927  0.4693 -0.6787 -2.3270
19416TIP3   OH279662   4.361   4.702   4.333  0.3820  0.1679 -0.2439
19416TIP3    H179663   4.290   4.764   4.348  0.7467  0.6682 -0.5310
19416TIP3    H279664   4.377   4.663   4.419 -2.8722 -2.9270 -0.8032
19417TIP3   OH279665   0.565   5.297   0.957  0.2086  0.4585 -0.0580
19417TIP3    H179666   0.587   5.298   1.050  3.1064 -0.1149 -0.6367
19417TIP3    H279667   0.579   5.206   0.930 -0.1186  0.7191 -1.1681
19418TIP3   OH279668   3.291   1.386   4.627  0.0631  0.2185 -0.2144
19418TIP3    H179669   3.275   1.308   4.680 -0.5690  0.6582  0.2657
19418TIP3    H279670   3.243   1.370   4.545  1.1312 -0.5085 -0.7199
19419TIP3   OH279671   4.080   4.565  12.763  0.3836  0.2170 -0.1905
19419TIP3    H179672   4.054   4.652  12.792  1.0470  0.7093 -1.0151
19419TIP3    H279673   4.175   4.563  12.773  0.7597  0.6802 -2.8378
19420TIP3   OH279674   1.088   3.353  14.647  0.5643 -0.2009 -0.0673
19420TIP3    H179675   1.167   3.369  14.699  2.1326 -3.2057 -1.3012
19420TIP3    H279676   1.113   3.284  14.586 -2.3704  0.4044 -2.1566
19421TIP3   OH279677   0.937   2.536  10.899 -0.1908  0.4941 -0.2255
19421TIP3    H179678   0.857   2.567  10.855 -0.6513  1.7282  1.4009
19421TIP3    H279679   0.905   2.496  10.980  0.7996  0.3102  0.0846
19422TIP3   OH279680   1.314   5.489   1.783 -0.0800  0.6982  0.2649
19422TIP3    H179681   1.275   5.457   1.865  0.2472  0.7330  0.4324
19422TIP3    H279682   1.289   5.581   1.780 -0.6821  0.5328 -0.0199
19423TIP3   OH279683   2.493   3.395   0.745  0.4099  0.1099 -0.5796
19423TIP3    H179684   2.525   3.472   0.793 -0.7416  0.3042 -0.1120
19423TIP3    H279685   2.443   3.432   0.672  1.1173 -0.1976 -1.2378
19424TIP3   OH279686   2.904   0.663  14.251 -0.1742  0.4652  0.1839
19424TIP3    H179687   2.857   0.723  14.309 -0.4699 -0.5622  1.0371
19424TIP3    H279688   2.986   0.709  14.231 -0.5800  1.3333  0.4621
19425TIP3   OH279689   4.896   3.623  12.030 -0.0268 -0.1490 -0.2762
19425TIP3    H179690   4.928   3.543  11.988 -1.2010  0.6361 -2.8560
19425TIP3    H279691   4.975   3.674  12.049  0.6483 -1.3886  0.3691
19426TIP3   OH279692   6.361   2.651   5.507 -0.0682  0.6871  0.3481
19426TIP3    H179693   6.299   2.603   5.562 -0.4772  0.2878 -0.4523
19426TIP3    H279694   6.311   2.675   5.430  0.4763  1.3477  0.1982
19427TIP3   OH279695   4.867   0.255   2.328  0.7930 -0.5442  0.5029
19427TIP3    H179696   4.931   0.325   2.323 -0.6196  0.6782 -2.5313
19427TIP3    H279697   4.787   0.297   2.361  0.4144 -1.1407  0.3714
19428TIP3   OH279698   4.838   2.142  15.067  0.0565  0.6664  0.2769
19428TIP3    H179699   4.903   2.193  15.019  1.6882 -0.9295  0.6714
19428TIP3    H279700   4.785   2.100  14.999  0.7759  0.3574 -0.0971
19429TIP3   OH279701   4.204   0.685   0.691  0.2187 -0.3589  0.6025
19429TIP3    H179702   4.127   0.693   0.634  1.0119  1.3373 -0.3078
19429TIP3    H279703   4.252   0.767   0.679  2.0871 -1.2847  1.2704
19430TIP3   OH279704   6.236   6.151   4.133 -0.0622 -1.4602  0.7207
19430TIP3    H179705   6.178   6.206   4.185 -0.3144 -0.5127 -0.5112
19430TIP3    H279706   6.195   6.064   4.135 -0.8038 -1.1131  0.9532
19431TIP3   OH279707   3.698   3.000  14.627 -0.4392  0.2661  0.3479
19431TIP3    H179708   3.734   3.089  14.636  1.4563 -0.4687  0.3721
19431TIP3    H279709   3.660   3.000  14.539  0.0463  0.9299  0.1250
19432TIP3   OH279710   0.696   2.132  17.083  0.6508  0.2075  0.1154
19432TIP3    H179711   0.677   2.171  17.168  1.6367  0.2750  0.3109
19432TIP3    H279712   0.612   2.099  17.053  0.0497  1.2745  0.5592
19433TIP3   OH279713   0.859   4.054  13.270  0.2099  0.0483 -0.7239
19433TIP3    H179714   0.835   4.059  13.363 -0.7919 -1.0823 -0.9032
19433TIP3    H279715   0.818   3.973  13.239  2.0766 -0.5689 -1.7069
19434TIP3   OH279716   0.109   5.405  11.918  0.1945  0.2405 -0.3507
19434TIP3    H179717   0.185   5.437  11.967  0.1966  1.2278 -0.9717
19434TIP3    H279718   0.042   5.472  11.932 -0.5611 -0.5903  0.1434
19435TIP3   OH279719   0.671   6.046   2.673  0.1131 -0.3609  0.6141
19435TIP3    H179720   0.612   5.989   2.624 -0.4313  1.9835 -1.6992
19435TIP3    H279721   0.756   6.034   2.631  0.4002 -0.7104  1.2732
19436TIP3   OH279722   6.168   1.549   2.286  0.2205  0.5939  0.3136
19436TIP3    H179723   6.094   1.574   2.230  0.8979  1.1235 -0.3585
19436TIP3    H279724   6.241   1.602   2.255  1.9644 -2.6618 -1.6756
19437TIP3   OH279725   2.940   4.434   5.917  0.1064 -0.0694 -0.5764
19437TIP3    H179726   2.942   4.410   6.010  1.3030  0.0298 -0.5541
19437TIP3    H279727   2.962   4.528   5.917 -2.0746  0.5030 -0.8329
19438TIP3   OH279728   5.231   5.646  11.706 -0.2813 -0.0479  0.0883
19438TIP3    H179729   5.322   5.625  11.685 -0.6103 -2.0895  0.4402
19438TIP3    H279730   5.192   5.671  11.623  0.0361 -1.5506 -0.5460
19439TIP3   OH279731   1.369   2.644  13.221 -0.1527 -0.1604  0.0988
19439TIP3    H179732   1.374   2.662  13.315  1.1511  1.3310 -0.2137
19439TIP3    H279733   1.388   2.729  13.179  0.1067 -0.9707 -1.5171
19440TIP3   OH279734   0.428   2.393  15.250 -0.2918  0.7033  0.3084
19440TIP3    H179735   0.337   2.417  15.231  0.4444  1.4715 -2.7783
19440TIP3    H279736   0.441   2.311  15.202  0.7322  0.7711  0.4569
19441TIP3   OH279737   0.385   2.825   5.362 -0.7147  0.6623  0.1394
19441TIP3    H179738   0.386   2.853   5.454  2.7357 -0.3627  0.5331
19441TIP3    H279739   0.475   2.835   5.333 -0.8672 -2.7002 -1.9764
19442TIP3   OH279740   0.216   6.486  12.559 -0.1622 -0.6244  0.7312
19442TIP3    H179741   0.232   6.491  12.465  1.5267 -0.7160  0.9657
19442TIP3    H279742   0.185   6.573  12.584 -2.8139 -1.2193 -0.2127
19443TIP3   OH279743   1.355   2.386  12.482 -0.5388  0.2079 -0.1659
19443TIP3    H179744   1.358   2.383  12.577 -1.8374  0.9708 -0.0882
19443TIP3    H279745   1.446   2.369  12.455 -0.5431 -2.2660  1.1135
19444TIP3   OH279746   6.506   2.062  13.744  0.2551  0.0345  0.3211
19444TIP3    H179747   6.524   2.023  13.658 -0.1597  2.1895 -0.8150
19444TIP3    H279748   6.584   2.115  13.763 -0.7977  1.8308 -0.1227
19445TIP3   OH279749   1.954   1.260   0.212  0.1882  0.3796  0.2213
19445TIP3    H179750   1.914   1.333   0.165 -0.4180  1.2039  1.9193
19445TIP3    H279751   2.045   1.260   0.183 -0.1760  0.7864 -0.9936
19446TIP3   OH279752   1.621   2.590   3.183 -0.0878  0.0371  0.1720
19446TIP3    H179753   1.599   2.656   3.117 -1.5124 -0.0037  0.5596
19446TIP3    H279754   1.567   2.514   3.160  2.0341 -1.2944 -0.6711
19447TIP3   OH279755   3.856   3.047   2.127  0.0607 -0.1925  0.1047
19447TIP3    H179756   3.790   2.978   2.137 -0.8434  0.6351 -0.0155
19447TIP3    H279757   3.824   3.119   2.181  0.2510  0.6601 -0.8798
19448TIP3   OH279758   2.217   2.011  15.612 -0.2841  0.4111 -0.2605
19448TIP3    H179759   2.141   1.959  15.587 -1.4640  1.1477  1.5698
19448TIP3    H279760   2.280   1.946  15.644 -0.7609 -0.0874 -0.3238
19449TIP3   OH279761   3.037   5.515  13.036  0.1054  0.4704  0.3594
19449TIP3    H179762   3.101   5.467  13.088 -0.0444  0.2180  0.3110
19449TIP3    H279763   3.018   5.593  13.088  1.4069  1.2053 -0.2107
19450TIP3   OH279764   5.474   3.569   2.909  0.1729  0.0977  0.1239
19450TIP3    H179765   5.378   3.572   2.905  0.1186 -1.2257 -0.0735
19450TIP3    H279766   5.501   3.660   2.898 -0.9854  0.2486 -2.1172
19451TIP3   OH279767   1.653   3.509   4.180  0.1797  0.3912 -0.3108
19451TIP3    H179768   1.629   3.438   4.240 -0.1162  0.1517 -0.7006
19451TIP3    H279769   1.569   3.552   4.160  0.5293  1.7182  0.9885
19452TIP3   OH279770   1.793   1.458   0.106 -0.2172 -0.2325  0.0739
19452TIP3    H179771   1.813   1.549   0.087  0.8356 -0.1718  1.3459
19452TIP3    H279772   1.724   1.462   0.173  0.3087 -0.3473  0.6302
19453TIP3   OH279773   5.162   0.578  10.551  0.5864  0.5160 -0.3211
19453TIP3    H179774   5.076   0.607  10.581  0.5971  0.0038  0.2196
19453TIP3    H279775   5.206   0.659  10.523 -0.5598  0.6202 -1.9221
19454TIP3   OH279776   5.549   1.320   2.009 -0.3540  0.0502 -0.5448
19454TIP3    H179777   5.622   1.346   1.954  0.2766  0.0317  0.2714
19454TIP3    H279778   5.493   1.267   1.951 -0.2703  0.9308 -1.4539
19455TIP3   OH279779   2.543   6.318   5.348 -0.0323  0.3065 -0.1860
19455TIP3    H179780   2.567   6.233   5.312  0.7486  0.5845 -0.3530
19455TIP3    H279781   2.542   6.377   5.272 -0.3787  0.4869 -0.0454
19456TIP3   OH279782   1.793   4.694  16.733 -0.6066  0.1907 -0.1152
19456TIP3    H179783   1.870   4.641  16.755 -0.7303 -0.2189 -0.6609
19456TIP3    H279784   1.829   4.778  16.702 -0.3774 -0.0016 -0.3713
19457TIP3   OH279785   1.017   5.948  16.695 -0.1043 -0.3118 -0.0413
19457TIP3    H179786   0.981   5.860  16.691 -4.2881  1.1899 -0.0802
19457TIP3    H279787   1.001   5.977  16.784 -0.4350  0.9694 -0.4959
19458TIP3   OH279788   2.648   5.462  16.099  0.4380  0.0466  0.1197
19458TIP3    H179789   2.662   5.384  16.153 -0.0092  0.1935  0.4522
19458TIP3    H279790   2.612   5.428  16.017  0.2432 -0.0928  0.2646
19459TIP3   OH279791   3.444   5.835  12.354  0.3506 -0.1104 -0.1594
19459TIP3    H179792   3.474   5.774  12.421  0.0156  0.1506  0.2284
19459TIP3    H279793   3.386   5.783  12.298 -1.7355  0.3568  1.4570
19460TIP3   OH279794   4.340   2.196   2.345 -0.1431 -0.3012  0.2544
19460TIP3    H179795   4.315   2.109   2.373 -1.2226 -0.7130 -1.8116
19460TIP3    H279796   4.365   2.241   2.425 -0.3118 -2.2492  1.4543
19461TIP3   OH279797   1.427   6.505   4.909  0.4283 -0.4075  0.2166
19461TIP3    H179798   1.349   6.449   4.921  0.9556 -0.9499  1.2786
19461TIP3    H279799   1.472   6.466   4.834  0.0522 -0.5360  0.0504
19462TIP3   OH279800   5.804   1.318   1.851 -0.7323  0.1267 -0.3215
19462TIP3    H179801   5.853   1.257   1.906 -1.3951  0.5777  0.7850
19462TIP3    H279802   5.767   1.264   1.782  1.3310 -0.2286 -1.2236
19463TIP3   OH279803   3.841   5.383  15.518 -0.1621 -0.1079  0.1914
19463TIP3    H179804   3.751   5.407  15.538  0.0511  0.1274  0.9028
19463TIP3    H279805   3.887   5.388  15.602  0.4580 -0.4731 -0.1129
19464TIP3   OH279806   4.696   2.015   1.935  0.2383 -0.7389 -0.1389
19464TIP3    H179807   4.675   1.922   1.936  1.6676 -1.0845  1.4437
19464TIP3    H279808   4.758   2.027   2.007  1.2819  1.1567 -1.2692
19465TIP3   OH279809   6.648   4.312  13.027 -0.6406 -0.1149 -0.6906
19465TIP3    H179810   6.655   4.224  12.990  0.3979  0.1891 -1.2798
19465TIP3    H279811   6.578   4.354  12.976 -0.2978 -0.2098 -1.2505
19466TIP3   OH279812   6.361   4.365  11.062 -0.1702  0.3257  0.4063
19466TIP3    H179813   6.321   4.279  11.048 -0.2760  0.2618  1.0931
19466TIP3    H279814   6.382   4.396  10.973 -0.4174 -0.2680  0.1349
19467TIP3   OH279815   3.978   1.246  16.614 -0.1787 -0.3884  0.2191
19467TIP3    H179816   3.965   1.332  16.573 -0.6715 -0.4783  0.1808
19467TIP3    H279817   4.028   1.196  16.550  1.2282  0.2796  0.7606
19468TIP3   OH279818   6.730   5.070   1.311 -0.1639 -0.0067  0.4586
19468TIP3    H179819   6.809   5.123   1.297  0.7448 -1.1845  0.8729
19468TIP3    H279820   6.672   5.092   1.239  0.1407  1.6006  0.6727
19469TIP3   OH279821   0.027   4.562  16.218 -0.5046  0.2315  0.0117
19469TIP3    H179822   0.048   4.471  16.200  1.5026  0.7340 -0.4208
19469TIP3    H279823  -0.025   4.559  16.298 -0.8258 -1.3136 -0.2276
19470TIP3   OH279824   0.973   1.404  11.773 -0.2360 -0.0115 -0.4728
19470TIP3    H179825   0.981   1.411  11.868 -2.0346  0.3860 -0.3148
19470TIP3    H279826   0.967   1.310  11.757 -1.3164 -0.0305 -0.0352
19471TIP3   OH279827   6.410   5.386   2.421  0.4992  0.0192 -0.2190
19471TIP3    H179828   6.335   5.405   2.365  1.2325  2.1340 -0.5961
19471TIP3    H279829   6.471   5.340   2.364  0.2050 -0.1369 -0.4138
19472TIP3   OH279830   0.176   3.544  11.263 -0.5140  0.1762  0.3619
19472TIP3    H179831   0.084   3.545  11.289 -1.2779  0.3119 -2.0504
19472TIP3    H279832   0.181   3.606  11.190  1.8781  1.4332  1.4822
19473TIP3   OH279833   6.160   6.647   3.704  0.0646  0.0042  0.0783
19473TIP3    H179834   6.124   6.729   3.736  1.0898  0.6087 -0.2506
19473TIP3    H279835   6.236   6.673   3.652 -0.8755 -1.0035 -1.9062
19474TIP3   OH279836   0.895   2.199   0.792 -0.0283  0.4394  0.1285
19474TIP3    H179837   0.879   2.258   0.718  1.3367  0.1855 -0.4070
19474TIP3    H279838   0.866   2.248   0.869 -1.0876  0.8753 -0.5256
19475TIP3   OH279839   1.521   5.706   4.804 -0.1532 -0.1237 -0.0375
19475TIP3    H179840   1.553   5.628   4.850  1.7934 -0.3187 -1.5838
19475TIP3    H279841   1.546   5.779   4.861  1.2030 -0.4252 -0.2102
19476TIP3   OH279842   3.284   6.164  16.545 -0.2088 -0.1191 -0.1353
19476TIP3    H179843   3.302   6.191  16.455  2.3425 -2.1458 -0.3403
19476TIP3    H279844   3.346   6.213  16.598  1.4040 -2.1458 -0.0429
19477TIP3   OH279845   6.301   2.565   2.032 -0.3544  0.0319 -0.1776
19477TIP3    H179846   6.218   2.536   2.070  1.0814 -2.4375  1.3372
19477TIP3    H279847   6.321   2.499   1.966  0.5303  0.4350 -0.3231
19478TIP3   OH279848   6.146   1.631   1.489 -0.0774  0.4365 -0.2268
19478TIP3    H179849   6.059   1.646   1.454 -0.9805  0.8671  2.0089
19478TIP3    H279850   6.203   1.626   1.412 -2.2742 -1.4745 -1.8582
19479TIP3   OH279851   1.426   6.444  14.296 -0.3714 -0.6561  0.4175
19479TIP3    H179852   1.359   6.469  14.232  1.5334  0.4723 -1.3002
19479TIP3    H279853   1.387   6.465  14.381 -1.5735  1.6615 -0.5947
19480TIP3   OH279854   1.092   0.117   3.205 -0.5524 -0.2693  0.2627
19480TIP3    H179855   1.138   0.111   3.289 -0.4895 -0.3868  0.2200
19480TIP3    H279856   1.006   0.080   3.222 -0.3528 -0.8003  0.1382
19481TIP3   OH279857   4.094   5.317   5.470 -0.0300 -0.6153 -0.2043
19481TIP3    H179858   4.061   5.230   5.450 -2.3157  0.4038 -1.1921
19481TIP3    H279859   4.050   5.375   5.407  2.3924  1.1144 -0.4382
19482TIP3   OH279860   0.559   1.288  14.346 -0.3820 -0.1316  0.6416
19482TIP3    H179861   0.534   1.196  14.340 -0.3847 -0.0718 -0.7196
19482TIP3    H279862   0.582   1.301  14.438 -1.3347 -1.2321  1.0621
19483TIP3   OH279863   0.870   0.723   5.915 -0.2339 -0.0543 -0.0351
19483TIP3    H179864   0.818   0.762   5.845 -0.2744 -1.7146 -0.9948
19483TIP3    H279865   0.861   0.783   5.989 -2.7833  0.1862 -0.4496
19484TIP3   OH279866   4.840   4.879  15.866 -0.2581 -0.6192 -0.1108
19484TIP3    H179867   4.806   4.808  15.811 -0.1085 -0.0247 -1.0051
19484TIP3    H279868   4.924   4.902  15.826 -1.9615  2.6756 -2.3711
19485TIP3   OH279869   3.835   2.326  16.316  0.2061 -0.0827 -0.2591
19485TIP3    H179870   3.880   2.270  16.253 -0.2020  0.5892 -1.1807
19485TIP3    H279871   3.896   2.399  16.331  0.2916 -0.2286  0.1070
19486TIP3   OH279872   0.330   2.436  14.546 -0.3849  0.3245  0.0675
19486TIP3    H179873   0.365   2.370  14.485  0.2404  1.1543 -0.4975
19486TIP3    H279874   0.235   2.430  14.536 -0.3028  0.2045 -0.7513
19487TIP3   OH279875   1.463   1.291   0.114  0.4450 -0.0713  0.1513
19487TIP3    H179876   1.417   1.256   0.190  2.2608  0.1008  1.4103
19487TIP3    H279877   1.503   1.372   0.146  0.1186  0.7449 -1.4051
19488TIP3   OH279878   4.130   3.467   0.057  0.6224 -0.1089  0.1482
19488TIP3    H179879   4.087   3.384   0.079 -0.3360  0.1167 -0.7843
19488TIP3    H279880   4.167   3.497   0.140  0.2086 -1.0275  0.6888
19489TIP3   OH279881   4.790   2.215  16.080  0.2921 -0.4564  0.0869
19489TIP3    H179882   4.850   2.172  16.140 -0.4497 -0.0314  1.1624
19489TIP3    H279883   4.847   2.263  16.019  1.0585 -1.1138  0.2738
19490TIP3   OH279884   5.790   3.916   4.846 -0.1602 -0.6335 -0.0235
19490TIP3    H179885   5.824   3.956   4.765  1.3024 -1.8224 -0.0456
19490TIP3    H279886   5.695   3.925   4.838  0.0014  0.5403 -1.1985
19491TIP3   OH279887   6.121   4.360   6.110 -0.1581  0.0888  0.0686
19491TIP3    H179888   6.070   4.293   6.155  0.7574  0.7235  2.1842
19491TIP3    H279889   6.056   4.413   6.063 -1.1432 -0.7325  0.4697
19492TIP3   OH279890   1.660   2.935   5.693  0.1686 -0.2190  0.0287
19492TIP3    H179891   1.699   3.007   5.643  0.2670  1.1507  1.9966
19492TIP3    H279892   1.728   2.869   5.696  0.2323 -0.2600 -1.4486
19493TIP3   OH279893   6.000   6.404   4.854  0.2326 -0.8862  0.4130
19493TIP3    H179894   5.960   6.478   4.809  0.3531 -1.5841 -0.8901
19493TIP3    H279895   5.943   6.330   4.835  1.5401 -1.6882 -0.6512
19494TIP3   OH279896   1.303   4.378   2.600  0.2878 -0.3084  0.2199
19494TIP3    H179897   1.320   4.440   2.530 -0.1914 -1.4200 -0.9275
19494TIP3    H279898   1.363   4.403   2.670  0.3875  1.1680 -0.3618
19495TIP3   OH279899   1.877   2.631   3.536  0.2670  0.3030 -0.0302
19495TIP3    H179900   1.828   2.688   3.596  0.7250 -0.7873  1.4218
19495TIP3    H279901   1.918   2.692   3.475 -0.3327  1.4556  0.6675
19496TIP3   OH279902   6.720   1.546   2.792  0.2451  0.4448 -0.0072
19496TIP3    H179903   6.750   1.553   2.701 -0.2947  0.1791 -0.2088
19496TIP3    H279904   6.724   1.452   2.811  1.1663  0.5829  0.5256
19497TIP3   OH279905   1.884   3.434   1.662 -0.0490  0.2028 -0.5548
19497TIP3    H179906   1.828   3.380   1.717  0.3480 -0.8969 -1.1830
19497TIP3    H279907   1.935   3.371   1.610 -0.0455  1.1828 -1.8023
19498TIP3   OH279908   4.556   4.791   4.779  0.1386 -0.4472  0.1123
19498TIP3    H179909   4.651   4.783   4.789  0.0895  1.1216  2.7061
19498TIP3    H279910   4.525   4.815   4.866 -2.3532  1.5455 -1.2069
19499TIP3   OH279911   4.365   4.319  12.543  0.3195 -0.4070  0.3967
19499TIP3    H179912   4.383   4.363  12.460 -0.5706 -0.1761  0.3223
19499TIP3    H279913   4.346   4.390  12.604 -2.0436 -0.6937  0.0566
19500TIP3   OH279914   4.062   3.942  12.079 -0.4343 -0.0171  0.1577
19500TIP3    H179915   4.032   3.865  12.032  0.0302  0.2415 -0.5836
19500TIP3    H279916   4.136   3.974  12.027  0.9962 -0.5204  1.7947
19501TIP3   OH279917   1.562   1.492   0.240  0.4693 -0.0582 -0.3342
19501TIP3    H179918   1.578   1.583   0.215  0.0089 -0.1074 -0.8077
19501TIP3    H279919   1.515   1.498   0.324  0.5638  0.1351 -0.2943
19502TIP3   OH279920   2.405   0.635  14.088  0.7930  0.1412 -0.5165
19502TIP3    H179921   2.437   0.558  14.135  0.3691  0.6465  0.6440
19502TIP3    H279922   2.331   0.604  14.037  1.0839 -0.3707 -0.6262
19503TIP3   OH279923   6.516   5.997   4.158 -0.2844 -0.3016 -0.0175
19503TIP3    H179924   6.532   6.081   4.201  0.1776 -0.5057  0.2182
19503TIP3    H279925   6.468   5.946   4.223 -1.6216  0.1910 -0.5993
19504TIP3   OH279926   5.285   2.121   3.197  0.0201  0.2406  0.1977
19504TIP3    H179927   5.220   2.085   3.136 -1.2416 -3.3307  3.3081
19504TIP3    H279928   5.237   2.189   3.244 -1.6189 -2.1750  2.2729
19505TIP3   OH279929   1.560   2.495  11.868  0.1040  0.4387  0.2473
19505TIP3    H179930   1.536   2.580  11.904  0.5132  1.1380 -1.0385
19505TIP3    H279931   1.646   2.510  11.828 -0.3134 -0.2575 -0.9758
19506TIP3   OH279932   6.510   5.957  11.412  0.1227  0.0663  0.0008
19506TIP3    H179933   6.494   5.872  11.452  0.9007 -0.1393 -0.1207
19506TIP3    H279934   6.433   5.973  11.357 -0.2413 -0.3389  0.3865
19507TIP3   OH279935   4.812   6.231  14.873 -0.6806  0.3054  0.0055
19507TIP3    H179936   4.825   6.175  14.950  2.2622 -1.7724 -1.8054
19507TIP3    H279937   4.741   6.291  14.899  0.0344 -0.3513  4.2224
19508TIP3   OH279938   0.581   1.563   0.632 -0.5432 -0.7830 -0.2520
19508TIP3    H179939   0.623   1.644   0.602  0.3873 -1.0993  0.1324
19508TIP3    H279940   0.492   1.567   0.597 -1.7969  2.1293  2.7150
19509TIP3   OH279941   3.594   2.584   3.935  0.4627  0.5086  0.7764
19509TIP3    H179942   3.548   2.597   3.852  0.6729  0.3918  0.6407
19509TIP3    H279943   3.687   2.582   3.911  0.6459  2.0633  1.1968
19510TIP3   OH279944   5.218   5.849   3.576 -0.1341 -0.6167  0.0846
19510TIP3    H179945   5.145   5.807   3.532 -0.4197 -0.2217  0.1795
19510TIP3    H279946   5.246   5.918   3.516 -1.4905  0.9268  1.1365
19511TIP3   OH279947   5.141   0.421   3.154  0.0318  0.5934 -0.4631
19511TIP3    H179948   5.201   0.491   3.180  0.9105  0.2283 -1.4613
19511TIP3    H279949   5.189   0.370   3.089 -0.9788 -0.3342 -0.5192
19512TIP3   OH279950   0.902   5.448  14.286 -0.5076 -0.3618  0.2238
19512TIP3    H179951   0.896   5.354  14.265 -1.1740 -0.3693  0.4200
19512TIP3    H279952   0.989   5.474  14.255  0.0070 -1.2206  0.8819
19513TIP3   OH279953   0.577   6.270   2.813  0.0392 -0.0196 -0.1407
19513TIP3    H179954   0.596   6.193   2.760  1.0664 -1.6852  2.4500
19513TIP3    H279955   0.487   6.257   2.843 -0.2563  0.5146 -0.7548
19514TIP3   OH279956   2.722   1.321  11.227 -0.3181 -0.4620 -0.2976
19514TIP3    H179957   2.650   1.267  11.192 -0.0601 -0.2234 -1.2166
19514TIP3    H279958   2.757   1.366  11.150  1.9437 -1.8622 -0.1804
19515TIP3   OH279959   6.368   6.117   5.630 -0.0023  0.0514  0.1831
19515TIP3    H179960   6.305   6.161   5.572  1.0324  1.2159 -0.1131
19515TIP3    H279961   6.401   6.187   5.687  2.7541  0.0729 -1.2530
19516TIP3   OH279962   6.683   3.547   0.578  0.1493 -0.4289 -0.2852
19516TIP3    H179963   6.713   3.478   0.518  0.0283  0.7108 -1.6987
19516TIP3    H279964   6.589   3.554   0.561  0.0658 -0.2687  0.2398
19517TIP3   OH279965   2.375   6.820  12.874 -0.4039 -0.0694  0.3217
19517TIP3    H179966   2.425   6.752  12.830  0.5995  0.5260  0.5225
19517TIP3    H279967   2.337   6.872  12.803 -0.9810 -0.6764  0.1700
19518TIP3   OH279968   1.727   6.398  16.280 -0.0166  0.3797  0.3783
19518TIP3    H179969   1.809   6.368  16.241 -0.7410 -1.3840  0.1175
19518TIP3    H279970   1.672   6.422  16.206 -0.5513 -0.7039  0.4038
19519TIP3   OH279971   6.136   2.675   2.371  0.1723  0.2053  0.3018
19519TIP3    H179972   6.158   2.731   2.297 -0.9617 -1.4463 -1.3648
19519TIP3    H279973   6.045   2.695   2.391 -0.1250 -0.7559 -0.0620
19520TIP3   OH279974   6.629   5.738   0.250 -0.4900  0.3483  0.1098
19520TIP3    H179975   6.628   5.644   0.231  0.9676 -0.2419  2.4765
19520TIP3    H279976   6.566   5.747   0.322 -0.9984  1.2909 -0.4440
19521TIP3   OH279977   3.915   2.545  16.966  0.5943  0.0592 -0.4387
19521TIP3    H179978   3.873   2.468  16.929  0.8973 -0.4044  0.1656
19521TIP3    H279979   3.996   2.512  17.005  1.2295  0.8407 -1.0517
19522TIP3   OH279980   3.022   0.226  12.289 -0.3093  0.3613  0.2612
19522TIP3    H179981   3.080   0.301  12.291  2.9716 -1.9141 -0.9828
19522TIP3    H279982   3.066   0.162  12.233 -2.6225 -2.7092  1.5914
19523TIP3   OH279983   1.331   4.765  15.803  0.2431  0.4464 -0.0513
19523TIP3    H179984   1.406   4.821  15.821  1.3652 -0.6563 -1.1452
19523TIP3    H279985   1.348   4.686  15.855  0.2877 -0.1444 -0.9371
19524TIP3   OH279986   6.457   4.909  11.414 -0.8963  0.0302  0.3856
19524TIP3    H179987   6.423   4.839  11.358 -0.8139  0.0604  0.2971
19524TIP3    H279988   6.552   4.894  11.415 -1.0016 -0.6689  1.4493
19525TIP3   OH279989   4.082   0.163   2.971 -0.5665  0.0388 -0.0897
19525TIP3    H179990   4.155   0.206   2.926 -0.3851 -1.2657 -1.0785
19525TIP3    H279991   4.062   0.221   3.045  1.4449  0.4415  0.1861
19526TIP3   OH279992   0.505   6.280  11.411  0.2383 -0.1022 -0.6617
19526TIP3    H179993   0.483   6.280  11.504 -3.4026  1.3265 -1.3835
19526TIP3    H279994   0.474   6.195  11.378  0.4722 -0.1310 -0.8189
19527TIP3   OH279995   5.277   3.390   3.672  0.6178 -0.4385  0.0359
19527TIP3    H179996   5.342   3.413   3.737  1.2657 -0.3110 -0.6467
19527TIP3    H279997   5.288   3.296   3.658  0.7610 -0.3879 -0.1934
19528TIP3   OH279998   6.782   3.046   4.639 -0.5711  0.0235  0.6385
19528TIP3    H179999   6.874   3.018   4.634 -0.6585 -0.1073 -0.3935
19528TIP3    H280000   6.774   3.084   4.726  1.2126  2.7030 -0.2404
19529TIP3   OH280001   4.737   6.250  15.900 -0.1028  0.0483 -0.6766
19529TIP3    H180002   4.808   6.191  15.926  1.3481  1.5350 -1.0985
19529TIP3    H280003   4.658   6.209  15.935  1.0435 -1.2296  0.5504
19530TIP3   OH280004   4.692   3.770  12.285  0.0468 -0.1718 -0.2111
19530TIP3    H180005   4.721   3.806  12.368  1.7206  1.7412 -1.5263
19530TIP3    H280006   4.727   3.681  12.283 -0.2856 -0.3469  1.2191
19531TIP3   OH280007   2.160   5.183  11.840 -0.0871  0.6682  0.3825
19531TIP3    H180008   2.080   5.187  11.787 -0.2749 -1.8203  0.3877
19531TIP3    H280009   2.225   5.230  11.788 -1.3929  2.2880  0.1427
19532TIP3   OH280010   4.662   1.897   2.618 -0.3285 -0.0865 -0.1388
19532TIP3    H180011   4.732   1.878   2.680 -1.4721 -0.8934  0.9476
19532TIP3    H280012   4.684   1.844   2.541  0.1689 -0.4734  0.2571
19533TIP3   OH280013   3.566   1.053  12.960  0.1408  0.0218 -0.0307
19533TIP3    H180014   3.546   0.959  12.965  1.4822 -0.2722  0.4774
19533TIP3    H280015   3.592   1.067  12.869 -0.4596  0.0002 -0.2096
19534TIP3   OH280016   3.048   3.829  12.046 -0.2558  0.2118  0.1524
19534TIP3    H180017   2.997   3.900  12.085 -1.9140 -1.9735  2.3417
19534TIP3    H280018   2.985   3.757  12.037  1.7891 -1.6892  0.2084
19535TIP3   OH280019   5.505   4.189  15.806  0.0844  0.5429  0.3084
19535TIP3    H180020   5.508   4.283  15.826 -0.8007  0.2841  1.7859
19535TIP3    H280021   5.514   4.146  15.891 -2.3777 -0.6744  0.0250
19536TIP3   OH280022   2.298   3.376   4.066  0.0648  0.1594  0.1101
19536TIP3    H180023   2.295   3.425   4.148  0.5373  0.0505  0.1977
19536TIP3    H280024   2.346   3.433   4.005 -0.8498  0.5239 -0.2984
19537TIP3   OH280025   3.558   0.506   3.357 -0.6391 -1.0065 -0.1339
19537TIP3    H180026   3.489   0.515   3.291 -0.2675 -2.2752 -0.7366
19537TIP3    H280027   3.556   0.588   3.406 -2.4539 -0.9425 -0.2476
19538TIP3   OH280028   0.712   5.677  16.295  0.0665  0.4087  0.4432
19538TIP3    H180029   0.714   5.714  16.207 -1.1946 -0.4286  0.0411
19538TIP3    H280030   0.783   5.722  16.341  1.2057  0.3629 -1.1879
19539TIP3   OH280031   5.509   5.196  13.418 -0.2156 -0.0398  0.0129
19539TIP3    H180032   5.562   5.118  13.397  0.1341  0.5432 -1.3904
19539TIP3    H280033   5.503   5.243  13.335  0.3277  1.8937  1.0201
19540TIP3   OH280034   5.908   5.488   4.037  0.1209 -0.0104  0.5870
19540TIP3    H180035   5.901   5.521   3.948 -0.1420 -1.1371  0.1680
19540TIP3    H280036   5.896   5.393   4.028  0.3440 -0.1660  1.7875
19541TIP3   OH280037   4.831   4.618  12.380 -0.4190 -0.0594 -0.5176
19541TIP3    H180038   4.899   4.649  12.321  0.4013 -0.7660  0.0328
19541TIP3    H280039   4.878   4.592  12.460 -1.5490  1.3773  0.6611
19542TIP3   OH280040   1.404   1.953  13.161 -0.4727 -0.6139  0.4539
19542TIP3    H180041   1.438   1.870  13.193 -0.3844 -0.0191  1.9685
19542TIP3    H280042   1.373   1.998  13.239 -1.0859  0.5228 -0.4197
19543TIP3   OH280043   4.835   1.506  16.236  0.0814 -0.6494  0.2497
19543TIP3    H180044   4.829   1.539  16.147  0.1752 -1.9280 -0.2493
19543TIP3    H280045   4.883   1.424  16.228 -1.4299 -1.6832  1.2195
19544TIP3   OH280046   2.041   6.240   6.064 -0.3176 -0.1851 -0.0151
19544TIP3    H180047   2.014   6.168   6.007 -0.1507 -0.2756  0.0208
19544TIP3    H280048   2.119   6.276   6.022  0.6053 -1.0984  0.8433
19545TIP3   OH280049   3.932   5.992   2.988 -0.4160 -0.7155 -0.0791
19545TIP3    H180050   3.837   5.995   2.997 -0.3790 -0.4959  0.2623
19545TIP3    H280051   3.952   5.900   2.970 -0.4370 -1.4065  2.8725
19546TIP3   OH280052   2.372   2.136  15.390  0.2486 -0.2722 -0.3371
19546TIP3    H180053   2.463   2.134  15.419 -0.1511 -1.2941  0.9324
19546TIP3    H280054   2.323   2.094  15.461 -1.1730 -0.0460 -1.1465
19547TIP3   OH280055   3.611   0.223  12.684 -0.8342 -0.5144  0.0227
19547TIP3    H180056   3.570   0.298  12.641 -2.1925 -1.6802 -0.8324
19547TIP3    H280057   3.678   0.193  12.623 -0.1379  0.1006  0.4635
19548TIP3   OH280058   5.672   6.683   5.384 -0.3318 -0.5647  0.2938
19548TIP3    H180059   5.699   6.632   5.460  0.0396 -1.2797 -0.3087
19548TIP3    H280060   5.618   6.753   5.421 -1.7638 -1.9937  1.0700
19549TIP3   OH280061   0.287   6.357   0.541 -0.4679  0.3521  0.1016
19549TIP3    H180062   0.195   6.382   0.543 -0.3102  0.9103  0.9417
19549TIP3    H280063   0.335   6.440   0.544  0.1037  0.2138 -2.4669
19550TIP3   OH280064   6.155   1.103   2.816 -0.1595  0.1279 -0.2320
19550TIP3    H180065   6.198   1.171   2.764 -2.3823  0.8852 -1.2386
19550TIP3    H280066   6.155   1.026   2.759 -1.9454  0.7485 -1.1446
19551TIP3   OH280067   4.533   6.802  15.550  0.3279 -0.5382 -0.4747
19551TIP3    H180068   4.621   6.778  15.579 -0.5764 -0.7803  2.3910
19551TIP3    H280069   4.486   6.718  15.546 -0.1960 -0.2607 -0.2821
19552TIP3   OH280070   5.716   6.258  12.894  0.3109 -0.0814  0.3617
19552TIP3    H180071   5.759   6.336  12.929 -0.0226 -0.4234  1.5770
19552TIP3    H280072   5.776   6.186  12.915  1.0529 -0.0806 -1.5484
19553TIP3   OH280073   6.111   1.025  14.575 -0.4654  0.0411 -0.2573
19553TIP3    H180074   6.052   1.005  14.647 -0.4427  0.7384 -0.0429
19553TIP3    H280075   6.195   0.987  14.601  0.2977  2.6242  1.3844
19554TIP3   OH280076   5.443   2.478  11.271 -0.0264 -0.0821  0.2995
19554TIP3    H180077   5.446   2.384  11.290  0.2378 -0.2120 -0.3524
19554TIP3    H280078   5.533   2.508  11.286  0.2686 -0.2509 -0.9985
19555TIP3   OH280079   5.414   6.089   1.591  0.0686  0.3903  0.7169
19555TIP3    H180080   5.353   6.063   1.522 -0.8446  0.2787  1.5396
19555TIP3    H280081   5.386   6.177   1.615  0.5158  0.5110  0.7998
19556TIP3   OH280082   1.798   2.509   1.736 -0.5603 -0.2609  0.0240
19556TIP3    H180083   1.720   2.485   1.787 -1.5823  0.4618 -1.1491
19556TIP3    H280084   1.787   2.602   1.719  0.1732 -0.3205 -0.8303
19557TIP3   OH280085   1.070   0.558  12.671  0.0310 -0.3674 -0.8219
19557TIP3    H180086   1.158   0.524  12.684  0.6532  0.6244 -2.2157
19557TIP3    H280087   1.014   0.500  12.723  1.6804  0.2158  1.7742
19558TIP3   OH280088   1.953   3.225  16.886 -0.0816 -0.4748  0.2075
19558TIP3    H180089   2.032   3.256  16.930  0.2786 -0.3478 -0.5049
19558TIP3    H280090   1.942   3.135  16.914  1.5177 -1.1938 -1.2756
19559TIP3   OH280091   2.037   1.296  15.454 -0.5026 -0.2029 -0.2325
19559TIP3    H180092   2.048   1.386  15.422  1.1968  0.7969  2.7595
19559TIP3    H280093   2.123   1.256  15.441 -0.3511 -0.3796  1.1545
19560TIP3   OH280094   4.776   2.418  15.768  0.0858 -0.2703  0.0663
19560TIP3    H180095   4.834   2.344  15.751 -0.1406 -0.4039 -0.1249
19560TIP3    H280096   4.818   2.465  15.840  1.0039  0.2596 -0.7997
19561TIP3   OH280097   2.931   0.370   0.626 -0.0214  0.9998  0.2347
19561TIP3    H180098   2.949   0.458   0.594  2.4964  0.7932  0.8895
19561TIP3    H280099   2.837   0.358   0.610 -0.0029  2.9335 -1.9197
19562TIP3   OH280100   4.722   4.594  11.731 -0.2561 -0.4129 -0.3130
19562TIP3    H180101   4.805   4.641  11.740 -0.1057 -0.5774 -0.7987
19562TIP3    H280102   4.696   4.575  11.821 -0.0278  0.0882 -0.1373
19563TIP3   OH280103   0.617   3.766   1.750 -0.1150 -0.0520 -0.0810
19563TIP3    H180104   0.656   3.685   1.782 -1.7176 -0.9305 -0.2796
19563TIP3    H280105   0.665   3.784   1.669  1.6728  0.3760  1.0152
19564TIP3   OH280106   3.303   4.056  14.501 -0.2869 -0.3343  0.2178
19564TIP3    H180107   3.234   4.052  14.567  1.4898 -0.3002  2.2151
19564TIP3    H280108   3.331   3.964  14.491  0.2568 -0.2046  0.4717
19565TIP3   OH280109   5.171   5.369  15.221 -0.0192 -0.3469 -0.3152
19565TIP3    H180110   5.211   5.447  15.260  2.0934  0.5321 -3.8456
19565TIP3    H280111   5.195   5.298  15.281  1.4854  1.1009  0.9257
19566TIP3   OH280112   0.265   5.714  13.161  0.0645  0.5541  0.3378
19566TIP3    H180113   0.177   5.677  13.160 -0.6956  2.1637  1.5344
19566TIP3    H280114   0.302   5.693  13.075 -1.7021  0.3200 -0.3963
19567TIP3   OH280115   6.715   4.446  14.107  0.8110 -0.6293 -0.2107
19567TIP3    H180116   6.808   4.445  14.083  0.8482 -0.8215 -0.0689
19567TIP3    H280117   6.669   4.471  14.028  1.1611  2.0014  0.3431
19568TIP3   OH280118   3.199   5.410   0.924 -0.5534 -0.2487  0.9472
19568TIP3    H180119   3.207   5.348   0.996 -3.2899 -0.4525  1.2020
19568TIP3    H280120   3.118   5.457   0.943 -0.5260  0.7613 -1.2076
19569TIP3   OH280121   3.158   2.542  13.814  0.2993 -0.2953  0.5981
19569TIP3    H180122   3.122   2.518  13.729  0.7047  0.9367  0.0523
19569TIP3    H280123   3.083   2.546  13.872 -0.0958 -0.3289  0.0964
19570TIP3   OH280124   1.728   2.894  14.897  0.1924  0.1931  0.1474
19570TIP3    H180125   1.777   2.901  14.815 -0.8132  0.8503 -0.4030
19570TIP3    H280126   1.694   2.982  14.912  0.9570  0.2620  1.6620
19571TIP3   OH280127   2.960   0.734  15.575 -0.7095  0.3905 -0.1852
19571TIP3    H180128   3.035   0.737  15.516 -0.0871  1.1941  0.6148
19571TIP3    H280129   2.907   0.810  15.550 -0.5450  0.6188  0.1575
19572TIP3   OH280130   4.682   5.499  16.222  0.5272  0.3057 -0.0881
19572TIP3    H180131   4.669   5.561  16.293  0.3932  0.7400 -0.4900
19572TIP3    H280132   4.682   5.552  16.142  1.4303 -0.0769 -0.3656
19573TIP3   OH280133   1.003   5.291  13.950 -0.2804  0.1948  0.5154
19573TIP3    H180134   1.062   5.266  14.021 -1.5590 -0.5487  1.3671
19573TIP3    H280135   0.989   5.210  13.901 -0.4339  0.4111  0.1990
19574TIP3   OH280136   0.699   0.114  10.967  0.0371 -0.3819 -0.5032
19574TIP3    H180137   0.674   0.205  10.949 -0.7271 -0.6753 -0.9930
19574TIP3    H280138   0.786   0.106  10.928 -0.3399 -0.1494 -1.4335
19575TIP3   OH280139   5.931   6.197  14.235 -0.1204 -0.2230  0.1494
19575TIP3    H180140   5.901   6.183  14.325 -0.4623  2.7533  0.6050
19575TIP3    H280141   6.013   6.149  14.229  0.8767  0.9582  2.7014
19576TIP3   OH280142   5.525   5.312  10.621 -0.4514 -0.5569  0.1123
19576TIP3    H180143   5.471   5.391  10.609  1.2900  0.6426 -0.1310
19576TIP3    H280144   5.502   5.256  10.546 -1.7726 -0.3655  0.3358
19577TIP3   OH280145   5.729   2.372   2.636  0.9342  0.1442  0.0139
19577TIP3    H180146   5.696   2.396   2.550  0.7163  0.1441  0.0978
19577TIP3    H280147   5.774   2.450   2.668 -0.7119  0.8381  0.7593
19578TIP3   OH280148   2.494   3.769  11.195 -0.5790  0.0877 -0.0887
19578TIP3    H180149   2.462   3.858  11.188 -0.5006  0.1253  0.0286
19578TIP3    H280150   2.586   3.778  11.222 -0.3238 -0.0005 -0.8977
19579TIP3   OH280151   4.669   4.714  14.225  0.3524 -0.3004 -0.0535
19579TIP3    H180152   4.700   4.670  14.146 -0.5154 -0.5521 -0.2647
19579TIP3    H280153   4.584   4.749  14.201 -0.5798 -1.6121  1.1741
19580TIP3   OH280154   5.346   4.825   5.122 -0.3985  0.3315 -0.0007
19580TIP3    H180155   5.433   4.818   5.083  0.1845  0.9311  1.1476
19580TIP3    H280156   5.331   4.740   5.162 -1.0922 -0.3662 -1.6457
19581TIP3   OH280157   0.591   4.089   3.956 -0.0027  0.1345  0.3270
19581TIP3    H180158   0.521   4.104   4.018  1.8953  1.1678  2.3669
19581TIP3    H280159   0.630   4.175   3.942  1.0000 -0.4390 -0.5674
19582TIP3   OH280160   2.041   5.602  16.710  0.1799 -0.2481  0.3415
19582TIP3    H180161   2.101   5.629  16.780  0.6380 -0.5294  0.0608
19582TIP3    H280162   1.996   5.682  16.685 -1.6187 -0.4901  2.4758
19583TIP3   OH280163   6.691   0.589  11.741  0.0606  0.6945 -0.0080
19583TIP3    H180164   6.682   0.514  11.683  0.6657  1.5034 -1.2177
19583TIP3    H280165   6.676   0.555  11.828  0.6472 -0.8921 -0.4934
19584TIP3   OH280166   3.167   1.730   2.944  0.5850  0.5903  0.1292
19584TIP3    H180167   3.182   1.800   2.880  1.2667 -0.3841 -0.7889
19584TIP3    H280168   3.226   1.752   3.016  0.3259  1.3058  0.1395
19585TIP3   OH280169   6.329   3.648   5.582 -0.2636 -0.7095 -0.1482
19585TIP3    H180170   6.258   3.651   5.519 -0.6007 -1.4819  0.1893
19585TIP3    H280171   6.292   3.605   5.659  0.4178 -0.6554  0.2239
19586TIP3   OH280172   3.001   2.249  13.276  0.3315  0.1207 -0.1129
19586TIP3    H180173   3.076   2.193  13.256  0.3748 -0.1680  0.7674
19586TIP3    H280174   2.988   2.237  13.370 -1.4943 -0.6741 -0.4383
19587TIP3   OH280175   2.463   0.489   0.971 -0.1140 -0.2500  0.6323
19587TIP3    H180176   2.434   0.468   1.061  0.8563  2.3251  1.6397
19587TIP3    H280177   2.411   0.566   0.947  0.3039 -0.3525 -0.6562
19588TIP3   OH280178   4.936   1.567   1.070  0.5857 -0.0211  0.2391
19588TIP3    H180179   4.963   1.550   0.980  1.8277 -2.5657  0.9821
19588TIP3    H280180   4.840   1.573   1.065  0.6374  0.0068 -1.2426
19589TIP3   OH280181   3.164   2.880  11.870 -0.1740  0.3185  0.0474
19589TIP3    H180182   3.225   2.854  11.802 -0.2903 -1.6377  0.6225
19589TIP3    H280183   3.088   2.915  11.823 -0.2170 -0.9138 -0.8667
19590TIP3   OH280184   2.001   6.789   1.653 -0.5723 -0.2257  0.1536
19590TIP3    H180185   1.978   6.770   1.744 -1.2849 -2.2864 -0.3986
19590TIP3    H280186   2.079   6.843   1.659 -1.5140  1.0633  1.9955
19591TIP3   OH280187   0.645   0.158   5.018 -0.5173 -0.2944 -0.3223
19591TIP3    H180188   0.603   0.073   5.003 -0.5282 -1.1202  3.4092
19591TIP3    H280189   0.738   0.141   5.006 -0.6447 -0.2776 -1.4937
19592TIP3   OH280190   6.401   6.204   2.918 -0.1308  0.1074  0.0669
19592TIP3    H180191   6.323   6.167   2.958 -0.4364 -0.2188 -0.8093
19592TIP3    H280192   6.425   6.142   2.849 -1.8019  2.3470 -2.8033
19593TIP3   OH280193   6.510   2.325  11.958 -0.2705 -0.0763  0.2578
19593TIP3    H180194   6.575   2.395  11.957 -0.0170 -0.2704 -1.7570
19593TIP3    H280195   6.532   2.272  12.035  1.5296  0.2678  0.0210
19594TIP3   OH280196   6.820   5.145   5.521  1.0216  0.2883  0.8777
19594TIP3    H180197   6.870   5.226   5.520  3.1944 -0.9725  1.4401
19594TIP3    H280198   6.839   5.105   5.436 -0.5067  0.5905  0.3611
19595TIP3   OH280199   5.047   0.580   2.126 -0.2610 -0.0068 -0.1791
19595TIP3    H180200   5.068   0.663   2.083  0.6875 -0.1316  0.0244
19595TIP3    H280201   5.008   0.606   2.209  1.6867  0.2772  0.6925
19596TIP3   OH280202   0.035   0.620  14.319  0.1716 -0.2835  0.0449
19596TIP3    H180203   0.111   0.674  14.299  0.5385 -0.5385  0.7558
19596TIP3    H280204  -0.006   0.605  14.233  1.7587 -1.4006 -0.5573
19597TIP3   OH280205   0.966   2.478   2.267  0.3947 -0.0153 -0.4933
19597TIP3    H180206   0.872   2.468   2.278  0.1718  3.0271  1.2681
19597TIP3    H280207   0.980   2.465   2.173 -1.5058 -1.8458 -0.6118
19598TIP3   OH280208   0.387   3.665   3.084  0.2343  0.1145  0.3096
19598TIP3    H180209   0.355   3.747   3.044  0.5014  0.8266  1.5129
19598TIP3    H280210   0.309   3.610   3.091  0.0289  0.3013 -0.4041
19599TIP3   OH280211   3.455   1.159  14.154 -0.5602  0.5063 -0.1162
19599TIP3    H180212   3.433   1.180  14.245 -2.0994 -0.8645 -0.1040
19599TIP3    H280213   3.427   1.236  14.104 -0.5846  0.8938  0.4820
19600TIP3   OH280214   4.028   0.032  15.474  0.0139  0.1582  0.3305
19600TIP3    H180215   4.052   0.020  15.382 -1.1465 -0.2771  0.0649
19600TIP3    H280216   3.993   0.121  15.477 -0.1155  0.1086  0.3081
19601TIP3   OH280217   1.188   2.101  15.391 -0.4207 -0.0458  0.1393
19601TIP3    H180218   1.181   2.011  15.424  0.7531 -0.1675  0.1191
19601TIP3    H280219   1.255   2.096  15.323 -0.4482  0.8137  0.0382
19602TIP3   OH280220   3.069   6.046  13.708 -0.2552  0.3302 -0.1276
19602TIP3    H180221   3.010   5.971  13.696 -0.4113  0.4183  0.0830
19602TIP3    H280222   3.057   6.071  13.799 -1.3021  1.5400 -0.5726
19603TIP3   OH280223   5.774   5.624  10.704 -0.0229  0.4230 -0.2416
19603TIP3    H180224   5.852   5.575  10.730  0.2319  0.3797 -1.0641
19603TIP3    H280225   5.702   5.563  10.720  0.2257  0.0275 -0.5822
19604TIP3   OH280226   0.090   1.423  12.945  0.3776  0.3704 -0.2347
19604TIP3    H180227   0.155   1.406  12.877 -0.3607 -2.0374 -0.4234
19604TIP3    H280228   0.118   1.370  13.019  0.9803  2.6813  1.3235
19605TIP3   OH280229   4.714   0.913   2.903  0.1483 -0.5936 -0.1453
19605TIP3    H180230   4.673   0.926   2.817  1.1201 -1.9879 -0.8490
19605TIP3    H280231   4.791   0.860   2.885  2.0863  1.5750  1.1926
19606TIP3   OH280232   3.917   4.845   2.869 -0.8364 -1.0059  0.8200
19606TIP3    H180233   3.924   4.764   2.919 -0.8109 -0.3635  1.8981
19606TIP3    H280234   4.007   4.864   2.842 -1.1231 -2.5488 -1.5109
19607TIP3   OH280235   4.477   2.841  15.461 -0.6916  0.2605  0.1808
19607TIP3    H180236   4.470   2.763  15.516 -0.8096 -0.2513 -0.5478
19607TIP3    H280237   4.493   2.912  15.522 -0.5843 -0.3374  0.8575
19608TIP3   OH280238   2.665   3.586  16.188 -0.1683 -0.1267 -0.2297
19608TIP3    H180239   2.579   3.547  16.205  0.0126  0.2535  1.9313
19608TIP3    H280240   2.724   3.511  16.181 -0.3848 -0.3489  0.2435
19609TIP3   OH280241   0.026   1.355  12.637  0.0906  0.4112 -0.0516
19609TIP3    H180242   0.003   1.267  12.667 -0.8797 -0.0879 -2.1389
19609TIP3    H280243  -0.041   1.412  12.675 -0.3915 -0.0268 -0.2352
19610TIP3   OH280244   0.429   2.929  13.652 -0.0723  0.2557  0.4805
19610TIP3    H180245   0.342   2.889  13.642  0.2267 -0.1575 -0.6196
19610TIP3    H280246   0.416   2.999  13.716 -1.0956 -0.1622  0.7480
19611TIP3   OH280247   3.923   1.356  16.195 -0.3836  0.4218 -0.0307
19611TIP3    H180248   3.923   1.359  16.099  0.8694  1.5402 -0.0117
19611TIP3    H280249   3.861   1.424  16.221  0.2376  1.0066 -0.0485
19612TIP3   OH280250   5.849   0.860  15.619 -0.1788  0.6972 -0.6397
19612TIP3    H180251   5.918   0.805  15.656 -1.5598  0.0422  1.1198
19612TIP3    H280252   5.829   0.923  15.688 -3.1848 -0.8639  0.0745
19613TIP3   OH280253   4.016   3.141  13.057 -0.3797  0.0617 -0.6801
19613TIP3    H180254   4.046   3.051  13.061  1.8158  0.7202 -1.0293
19613TIP3    H280255   4.030   3.168  12.966 -0.2386  0.9753 -0.4053
19614TIP3   OH280256   5.353   1.809   1.134  0.6307  0.3666  0.2628
19614TIP3    H180257   5.328   1.837   1.046  1.2510 -1.1986 -0.4333
19614TIP3    H280258   5.373   1.716   1.126  1.9220  0.4566  1.7963
19615TIP3   OH280259   4.017   4.418   1.391 -0.6677  0.5827  0.0235
19615TIP3    H180260   3.935   4.466   1.405 -0.7918  0.1997  0.6640
19615TIP3    H280261   4.071   4.477   1.339 -1.0438  1.1800  0.2973
19616TIP3   OH280262   2.965   2.527  14.520 -0.2015  0.0244  0.2619
19616TIP3    H180263   3.006   2.445  14.495  1.0327  0.6394  0.2277
19616TIP3    H280264   3.022   2.563  14.588  0.5096  1.8989 -1.2487
19617TIP3   OH280265   5.105   1.418  12.547 -0.6095 -0.0502  0.3344
19617TIP3    H180266   5.123   1.377  12.463  0.6207  3.1553 -1.1164
19617TIP3    H280267   5.010   1.408  12.558 -0.6097 -1.6798 -0.7253
19618TIP3   OH280268   5.384   2.579  15.320  0.2249 -0.4457 -0.0616
19618TIP3    H180269   5.405   2.489  15.298  0.8309 -0.6584  1.3355
19618TIP3    H280270   5.466   2.616  15.353 -0.4617  0.0453  1.1625
19619TIP3   OH280271   3.044   2.269  13.879 -0.0123  0.0038 -0.0367
19619TIP3    H180272   3.125   2.254  13.830 -0.3071 -1.4294 -0.1051
19619TIP3    H280273   2.978   2.219  13.832 -0.8936  0.9255  0.1917
19620TIP3   OH280274   1.786   6.801   1.474  0.2821  0.0217  0.4932
19620TIP3    H180275   1.863   6.786   1.529  0.5281 -1.5043 -0.2264
19620TIP3    H280276   1.807   6.759   1.391 -0.9593  0.4091 -0.0407
19621TIP3   OH280277   5.264   3.100  11.824  0.4488  0.0203  0.6526
19621TIP3    H180278   5.228   3.015  11.849  0.6151 -0.2247  0.0772
19621TIP3    H280279   5.359   3.090  11.836  0.4167  0.3580  1.2550
19622TIP3   OH280280   6.527   5.334   1.363 -0.4890 -0.4286  0.6519
19622TIP3    H180281   6.470   5.363   1.434 -0.8874  0.4371 -0.0159
19622TIP3    H280282   6.598   5.287   1.407 -0.0444  1.1893  1.7265
19623TIP3   OH280283   2.448   4.193   1.227  0.2781  0.7029 -0.3321
19623TIP3    H180284   2.504   4.128   1.269  0.0040  0.7212  0.0709
19623TIP3    H280285   2.387   4.141   1.175  1.7022  0.7323 -2.1349
19624TIP3   OH280286   4.961   0.094   6.032  0.4135 -0.6132  0.2414
19624TIP3    H180287   4.970  -0.001   6.030 -0.9077 -0.7603 -1.7457
19624TIP3    H280288   5.043   0.126   5.994 -0.1979 -1.1411 -1.6744
19625TIP3   OH280289   4.220   0.536   1.392  0.2863  0.1509 -0.4046
19625TIP3    H180290   4.251   0.472   1.455  0.5099  0.9822  0.3551
19625TIP3    H280291   4.204   0.486   1.312  1.6923 -0.6267 -0.2259
19626TIP3   OH280292   0.033   5.399   2.246 -0.1948 -0.3099 -0.2925
19626TIP3    H180293  -0.055   5.369   2.224 -0.3812  1.1620 -1.7326
19626TIP3    H280294   0.033   5.404   2.342 -1.1269 -1.8389 -0.1795
19627TIP3   OH280295   1.869   5.222  12.512 -0.1015  0.3113 -0.0276
19627TIP3    H180296   1.803   5.219  12.581 -0.1762  0.2467 -0.1028
19627TIP3    H280297   1.948   5.186  12.553 -0.4220 -0.6921 -0.2840
19628TIP3   OH280298   6.667   2.574   0.542  0.4960  0.0031  0.6039
19628TIP3    H180299   6.684   2.655   0.493  1.5474 -0.9516 -0.6860
19628TIP3    H280300   6.614   2.602   0.617 -0.6206  1.6405 -0.7126
19629TIP3   OH280301   0.151   1.308  11.993 -0.0827 -0.0226 -0.0370
19629TIP3    H180302   0.161   1.391  11.947  1.8677  0.0410  0.4319
19629TIP3    H280303   0.097   1.255  11.934 -3.7980  2.3950  0.8629
19630TIP3   OH280304   6.351   1.602   1.279 -0.2522 -0.4292  0.1176
19630TIP3    H180305   6.339   1.653   1.199  0.3408 -0.7123 -0.1595
19630TIP3    H280306   6.442   1.620   1.305 -0.1602 -1.0448  0.2305
19631TIP3   OH280307   3.722   0.229   3.279 -0.0776 -0.1644 -0.0635
19631TIP3    H180308   3.777   0.283   3.336 -2.1674 -0.3427  2.3000
19631TIP3    H280309   3.645   0.283   3.262 -0.4579 -0.9563 -0.9040
19632TIP3   OH280310   3.445   2.107  15.487 -0.2386  0.2658 -0.3059
19632TIP3    H180311   3.447   2.189  15.536  0.2533 -0.6719  1.3170
19632TIP3    H280312   3.403   2.045  15.546  1.3304 -1.1728 -0.6249
19633TIP3   OH280313   1.386   4.257  10.496  0.4261  0.1963 -0.0422
19633TIP3    H180314   1.331   4.311  10.553  2.4818  0.7356  1.5033
19633TIP3    H280315   1.453   4.316  10.464  1.2303 -0.8722 -0.3832
19634TIP3   OH280316   2.946   2.878   2.770 -0.1787 -0.4169  0.0876
19634TIP3    H180317   2.858   2.863   2.738 -0.2436  1.2437 -0.6025
19634TIP3    H280318   2.960   2.809   2.835 -2.3514 -0.1291  0.9355
19635TIP3   OH280319   4.448   5.256  12.784  0.1688 -0.0374  0.6423
19635TIP3    H180320   4.405   5.222  12.706  2.3631 -1.6165  0.0047
19635TIP3    H280321   4.542   5.249  12.765  0.7765  1.8790  2.4692
19636TIP3   OH280322   6.328   6.100  12.220 -0.2316 -0.0137  0.1045
19636TIP3    H180323   6.423   6.092  12.226 -0.0184  0.4573 -1.8744
19636TIP3    H280324   6.297   6.093  12.311  1.7031  0.2337  0.8290
19637TIP3   OH280325   4.798   6.185   0.052 -0.0861  0.4247  0.0258
19637TIP3    H180326   4.862   6.254   0.032 -1.0843  1.3245 -0.1345
19637TIP3    H280327   4.720   6.233   0.079 -2.0233 -0.4768 -3.4991
19638TIP3   OH280328   6.522   4.291  11.665  0.5746  0.1223 -0.5068
19638TIP3    H180329   6.534   4.368  11.609  0.5825  2.2824  2.2549
19638TIP3    H280330   6.605   4.280  11.710  0.6460 -1.7140 -1.0070
19639TIP3   OH280331   2.948   1.736  14.638 -0.1582 -0.3224  0.0075
19639TIP3    H180332   2.934   1.825  14.607 -1.3262 -0.3089  0.5200
19639TIP3    H280333   3.042   1.730  14.655 -0.3601  1.5966  2.3090
19640TIP3   OH280334   5.371   2.683  15.626 -0.2269  0.1020  0.0555
19640TIP3    H180335   5.350   2.754  15.566 -0.0471 -0.2483 -0.4332
19640TIP3    H280336   5.465   2.691  15.641 -0.1761 -0.1349 -0.1348
19641TIP3   OH280337   2.572   6.778   4.818 -0.1202  0.0910 -0.5134
19641TIP3    H180338   2.665   6.790   4.799 -0.5015 -0.1788 -2.8901
19641TIP3    H280339   2.545   6.708   4.758 -2.5034  2.2678 -2.1751
19642TIP3   OH280340   5.685   3.135  14.182  0.0642  0.0718 -0.4479
19642TIP3    H180341   5.773   3.170  14.167  0.0269  0.4184  0.0888
19642TIP3    H280342   5.641   3.142  14.098  0.0868  1.2479 -0.3772
19643TIP3   OH280343   2.984   6.233  16.191 -0.0800 -0.7646  0.2031
19643TIP3    H180344   2.949   6.294  16.126 -0.4386 -0.3853  0.7438
19643TIP3    H280345   2.911   6.216  16.250  0.6315  0.0368  1.3576
19644TIP3   OH280346   4.037   5.252   6.229  0.1962  0.2886 -0.0196
19644TIP3    H180347   4.054   5.342   6.258 -1.9233  1.0591 -0.9930
19644TIP3    H280348   4.019   5.204   6.310  1.7338  0.6200  0.5459
19645TIP3   OH280349   5.770   6.611   5.080 -0.4001 -0.1184  0.1244
19645TIP3    H180350   5.729   6.650   5.157 -1.4675  0.5901 -0.7636
19645TIP3    H280351   5.779   6.684   5.019 -1.0760 -0.9672 -1.0246
19646TIP3   OH280352   3.867   0.881  11.955  0.1231  0.6927 -0.2082
19646TIP3    H180353   3.944   0.921  11.994  0.5628 -0.4969  0.1789
19646TIP3    H280354   3.833   0.823  12.023 -0.0271 -0.2107 -1.0421
19647TIP3   OH280355   6.152   2.638  10.675 -0.0759 -0.2508  0.2078
19647TIP3    H180356   6.223   2.691  10.639 -1.3438 -0.2230 -2.4212
19647TIP3    H280357   6.171   2.549  10.646  0.3152 -0.7581  1.8849
19648TIP3   OH280358   5.044   5.364   5.358 -0.0088  0.4400 -0.2142
19648TIP3    H180359   5.021   5.323   5.275  0.3059  1.6824 -0.9377
19648TIP3    H280360   5.135   5.339   5.373  0.4308  1.4985 -1.0507
19649TIP3   OH280361   2.612   1.908  13.290  0.3260 -0.0986  0.4353
19649TIP3    H180362   2.600   1.989  13.339  2.7227  0.8170 -0.3172
19649TIP3    H280363   2.692   1.869  13.327  0.9854 -0.4673 -1.2627
19650TIP3   OH280364   2.771   2.743   0.883 -0.3645  0.2356  0.0890
19650TIP3    H180365   2.731   2.760   0.968 -0.0779  1.7955 -0.0631
19650TIP3    H280366   2.865   2.746   0.899 -0.3087  0.4241 -0.2526
19651TIP3   OH280367   2.569   6.745   0.073  0.8511 -0.3584  0.1935
19651TIP3    H180368   2.495   6.723   0.017  0.0633 -0.5145  1.2568
19651TIP3    H280369   2.575   6.841   0.069 -0.9778 -0.0973  1.9474
19652TIP3   OH280370   6.393   0.613  16.111  0.3514 -0.6064 -0.0529
19652TIP3    H180371   6.303   0.598  16.141  0.6750 -0.4756  0.9940
19652TIP3    H280372   6.394   0.706  16.088  0.1331 -0.6820 -0.3813
19653TIP3   OH280373   5.030   5.280   4.118  0.2136  0.7510  0.1995
19653TIP3    H180374   4.989   5.332   4.186 -0.5505  0.9038 -0.3589
19653TIP3    H280375   5.012   5.328   4.037 -1.0069 -0.6401 -0.3997
19654TIP3   OH280376   2.089   1.072  13.729 -0.4313 -0.3698 -0.4229
19654TIP3    H180377   2.171   1.073  13.779  0.4990  0.8628 -1.9026
19654TIP3    H280378   2.022   1.047  13.794  1.1962 -2.3979  0.5994
19655TIP3   OH280379   0.289   0.591  12.473  0.0213  0.1773 -0.7705
19655TIP3    H180380   0.233   0.518  12.446 -0.8703 -0.0673  1.4462
19655TIP3    H280381   0.359   0.550  12.524  1.2486  0.6462 -2.0230
19656TIP3   OH280382   4.276   5.849  13.280  0.0335 -0.2864  0.5353
19656TIP3    H180383   4.289   5.770  13.228 -2.4023 -0.9921  0.9012
19656TIP3    H280384   4.349   5.849  13.342 -0.6243 -2.9831  1.3960
19657TIP3   OH280385   0.237   0.392  11.927  0.4109  0.1463  0.0121
19657TIP3    H180386   0.141   0.396  11.922  0.3615 -0.8795  0.0653
19657TIP3    H280387   0.264   0.484  11.936 -0.5591  0.4514 -0.0869
19658TIP3   OH280388   1.609   6.036   4.787 -0.2073 -0.0047  0.0244
19658TIP3    H180389   1.657   6.119   4.780 -0.8313  0.3530 -0.1544
19658TIP3    H280390   1.666   5.979   4.838  1.6150 -0.4882 -2.3659
19659TIP3   OH280391   3.528   0.966   2.293  0.7941  0.0418  0.0204
19659TIP3    H180392   3.544   0.963   2.387 -0.3686  0.5702  0.2562
19659TIP3    H280393   3.533   1.059   2.270  0.1097  0.0218 -0.2427
19660TIP3   OH280394   2.773   5.665   3.557 -0.0678 -0.5024  0.2492
19660TIP3    H180395   2.841   5.673   3.491  0.9725 -0.5658  1.2765
19660TIP3    H280396   2.815   5.620   3.630 -0.7674  0.8244  1.5159
19661TIP3   OH280397   3.711   1.184  14.064  0.3036  0.3346  0.2820
19661TIP3    H180398   3.737   1.152  14.150 -0.2287 -0.7163  0.0742
19661TIP3    H280399   3.615   1.178  14.064  0.3302 -0.3491 -0.6213
19662TIP3   OH280400   4.874   5.038   2.751 -0.1698  0.3542 -0.0431
19662TIP3    H180401   4.781   5.025   2.734  0.2757 -3.2179 -0.4832
19662TIP3    H280402   4.880   5.049   2.846 -0.9259 -0.9515  0.1665
19663TIP3   OH280403   4.896   1.048  12.635  0.2210  0.4353  0.2858
19663TIP3    H180404   4.986   1.066  12.660  0.3720 -1.1322  0.9966
19663TIP3    H280405   4.896   1.053  12.539  2.1165 -3.5620 -0.1158
19664TIP3   OH280406   6.503   5.058   1.135  0.3334  0.0685  0.0178
19664TIP3    H180407   6.469   5.128   1.080 -0.1324  0.2759  0.5579
19664TIP3    H280408   6.425   5.015   1.169  0.6083  0.2616  0.9161
19665TIP3   OH280409   2.449   5.045   4.325 -0.3649  0.2672  0.0800
19665TIP3    H180410   2.425   4.960   4.361 -0.1347  0.0832 -0.1997
19665TIP3    H280411   2.509   5.025   4.253 -0.8907  0.6225 -0.4729
19666TIP3   OH280412   4.834   6.147  11.154 -0.9387  0.0486  0.0447
19666TIP3    H180413   4.745   6.169  11.125 -1.1937 -0.0318  0.7426
19666TIP3    H280414   4.890   6.168  11.080 -1.2346  2.5614  0.4550
19667TIP3   OH280415   1.647   2.347  15.296  0.4100 -0.3175  0.4375
19667TIP3    H180416   1.608   2.288  15.361  0.8328  1.0684  2.0281
19667TIP3    H280417   1.742   2.334  15.307  0.4795 -0.3546 -0.1928
19668TIP3   OH280418   1.703   2.553   5.281 -0.2132 -0.4122 -0.9446
19668TIP3    H180419   1.611   2.568   5.263 -0.1372  0.8397 -0.4523
19668TIP3    H280420   1.714   2.458   5.280 -1.4866 -0.5656 -1.0754
19669TIP3   OH280421   6.815   3.022   4.361 -0.1680  0.3045 -0.5215
19669TIP3    H180422   6.765   2.942   4.378  0.3574 -0.0889 -0.8233
19669TIP3    H280423   6.780   3.086   4.424 -0.6740 -0.1208 -0.3657
19670TIP3   OH280424   5.044   5.181   1.002 -0.8193  0.3184 -0.3943
19670TIP3    H180425   5.049   5.091   0.969  1.1607  0.2878 -0.1233
19670TIP3    H280426   5.073   5.175   1.093 -0.8313  1.2049 -0.3237
19671TIP3   OH280427   3.085   0.537  14.920 -0.2580  0.6008 -0.4683
19671TIP3    H180428   3.151   0.523  14.852  0.7621  0.7140  0.4832
19671TIP3    H280429   3.120   0.609  14.973 -1.4089  1.0336 -0.2666
19672TIP3   OH280430   3.786   5.673  11.948 -0.0974 -0.4048 -0.1263
19672TIP3    H180431   3.868   5.648  11.991  0.0363  0.1020 -0.0821
19672TIP3    H280432   3.755   5.748  11.998 -0.2301 -0.1578 -0.5719
19673TIP3   OH280433   6.216   1.207   4.048 -0.4128  0.6525 -0.3866
19673TIP3    H180434   6.187   1.289   4.087 -0.5663 -0.4275  1.9408
19673TIP3    H280435   6.144   1.146   4.063  0.5087 -0.4285 -0.1732
19674TIP3   OH280436   2.329   0.050   1.424  0.2743 -0.2489  0.0898
19674TIP3    H180437   2.295  -0.037   1.404  0.5693 -0.0632 -1.3068
19674TIP3    H280438   2.416   0.035   1.460  0.5343 -0.5183 -0.6408
19675TIP3   OH280439   0.309   5.565  11.217  0.4985 -0.1790  0.0475
19675TIP3    H180440   0.356   5.490  11.254 -0.1082 -0.8549 -0.5123
19675TIP3    H280441   0.286   5.619  11.293  2.3762  0.3214  0.3129
19676TIP3   OH280442   3.320   4.400  12.105  0.0643 -0.0177  0.2671
19676TIP3    H180443   3.415   4.390  12.101  0.4264  2.4361  0.6338
19676TIP3    H280444   3.291   4.338  12.172  1.4235 -0.6992  0.2380
19677TIP3   OH280445   2.826   1.915   3.139 -0.3252  0.1306  0.1015
19677TIP3    H180446   2.769   1.955   3.204 -0.0983 -1.8828  1.6637
19677TIP3    H280447   2.905   1.968   3.140 -1.1131  1.3372 -0.0779
19678TIP3   OH280448   6.114   4.030  15.242  0.1949  0.5754 -0.5648
19678TIP3    H180449   6.071   4.114  15.258  1.1595  0.6503  2.0593
19678TIP3    H280450   6.162   4.011  15.322  1.5480 -1.6058 -1.7712
19679TIP3   OH280451   3.507   0.789   1.662  0.8262  0.2012 -0.1266
19679TIP3    H180452   3.425   0.838   1.661  0.5551 -0.2232 -1.8201
19679TIP3    H280453   3.504   0.740   1.744  1.3020  3.2141  1.8770
19680TIP3   OH280454   1.892   5.818   1.430 -0.7349 -0.7795  0.0325
19680TIP3    H180455   1.887   5.803   1.524  0.8700  0.3419  0.3454
19680TIP3    H280456   1.841   5.898   1.415 -0.9158 -0.9082 -0.0469
19681TIP3   OH280457   4.822   0.726  11.750  0.3978 -0.0140 -0.1617
19681TIP3    H180458   4.868   0.791  11.696  2.6174 -0.7780  0.7115
19681TIP3    H280459   4.810   0.770  11.834 -2.8104  1.0729 -1.0490
19682TIP3   OH280460   5.290   5.709   5.648  0.4174 -0.4833 -0.3813
19682TIP3    H180461   5.341   5.760   5.711 -0.2203  0.1976 -0.4002
19682TIP3    H280462   5.200   5.714   5.681 -0.1029  0.7285 -1.8450
19683TIP3   OH280463   4.045   6.564   3.825  0.2627 -0.3471  0.0518
19683TIP3    H180464   3.974   6.616   3.787  0.2519 -0.1921  0.2869
19683TIP3    H280465   4.036   6.478   3.784  0.4821 -0.0731 -0.5857
19684TIP3   OH280466   5.848   5.634  14.395 -0.4429 -0.2748  0.3290
19684TIP3    H180467   5.934   5.609  14.429 -0.1333 -1.6010 -1.3205
19684TIP3    H280468   5.863   5.720  14.355 -0.3261  0.3116  1.5728
19685TIP3   OH280469   1.475   0.931  14.990  0.1148  0.3806  0.1226
19685TIP3    H180470   1.436   1.004  14.941 -1.4235  0.2903  1.1459
19685TIP3    H280471   1.475   0.961  15.081  0.1881 -0.5931  0.4465
19686TIP3   OH280472   4.247   5.324  11.554 -0.2224  0.7433  0.7926
19686TIP3    H180473   4.157   5.349  11.577 -0.5701  1.6692 -1.4009
19686TIP3    H280474   4.256   5.349  11.462  1.4166 -1.7751  0.1899
19687TIP3   OH280475   2.461   4.115  13.792  0.8092  0.4042 -0.0492
19687TIP3    H180476   2.391   4.058  13.825  2.3200 -1.8584 -0.5500
19687TIP3    H280477   2.415   4.179  13.738 -0.8897 -1.2439 -0.6955
19688TIP3   OH280478   5.153   4.284  11.941 -0.2531  0.0272 -0.7626
19688TIP3    H180479   5.109   4.255  12.020 -0.0315 -0.2177 -0.7273
19688TIP3    H280480   5.162   4.205  11.887 -0.0174  0.1060 -0.8426
19689TIP3   OH280481   1.798   2.909   1.966 -0.1349  0.8480  0.1579
19689TIP3    H180482   1.886   2.918   2.002 -0.2917 -1.4800  1.3106
19689TIP3    H280483   1.810   2.871   1.879  0.0198  0.8383  0.1838
19690TIP3   OH280484   1.572   3.135  11.717 -0.4579 -0.1600  0.0897
19690TIP3    H180485   1.479   3.113  11.721 -0.2354 -0.9974  1.3890
19690TIP3    H280486   1.581   3.209  11.777  0.0563 -1.5323  1.7769
19691TIP3   OH280487   0.554   6.481   0.141  0.0111  0.0319  0.1068
19691TIP3    H180488   0.552   6.385   0.132  0.0723  0.1341 -1.0840
19691TIP3    H280489   0.643   6.505   0.115 -0.4743  0.5515 -1.0810
19692TIP3   OH280490   6.273   6.658   2.902 -0.2795  0.0622 -0.0654
19692TIP3    H180491   6.269   6.688   2.811 -0.0792 -2.2043 -0.8805
19692TIP3    H280492   6.186   6.624   2.920  0.0518 -0.7041  0.1358
19693TIP3   OH280493   5.860   1.795  12.444  0.4622 -0.7415 -0.3989
19693TIP3    H180494   5.790   1.853  12.414 -0.1198  0.3881  2.7851
19693TIP3    H280495   5.936   1.819  12.392  0.1990  2.8485  0.6273
19694TIP3   OH280496   6.621   4.662  16.428  0.1225  0.3938 -0.6698
19694TIP3    H180497   6.627   4.586  16.485  0.1177  0.9559  0.0967
19694TIP3    H280498   6.529   4.666  16.402 -0.0156  0.5177 -0.1721
19695TIP3   OH280499   2.538   2.032   2.619  0.1656 -0.0730  0.1321
19695TIP3    H180500   2.502   2.120   2.621  0.7329  0.1585  0.3078
19695TIP3    H280501   2.610   2.037   2.556  0.2039 -0.4092  0.1472
19696TIP3   OH280502   2.295   4.237  12.343  0.2120 -0.4028  0.2542
19696TIP3    H180503   2.348   4.214  12.419  0.6347  1.0394  0.4252
19696TIP3    H280504   2.245   4.314  12.370 -0.4350 -0.5155 -0.5796
19697TIP3   OH280505   1.848   0.810  16.557 -0.0575  0.5168 -0.4377
19697TIP3    H180506   1.864   0.903  16.543 -0.0676  0.3202 -1.8666
19697TIP3    H280507   1.772   0.807  16.615 -0.1877  1.3952 -0.5535
19698TIP3   OH280508   5.192   3.702  13.525 -0.1782 -0.3558 -0.1047
19698TIP3    H180509   5.277   3.663  13.505 -0.3585 -0.1704 -1.2721
19698TIP3    H280510   5.207   3.796  13.517 -1.0598 -0.3803 -2.8259
19699TIP3   OH280511   2.624   2.399  17.038 -0.2520 -0.2414  0.0622
19699TIP3    H180512   2.536   2.392  17.002 -0.8707  2.2970  0.8312
19699TIP3    H280513   2.681   2.413  16.962 -1.2493  2.9725 -0.2409
19700TIP3   OH280514   4.560   0.923   0.136  0.4257  0.6835  0.2616
19700TIP3    H180515   4.544   0.872   0.057  1.2038  1.5143 -0.4659
19700TIP3    H280516   4.476   0.962   0.157  0.1071  0.0852  0.1170
19701TIP3   OH280517   1.554   1.926   4.614 -0.1242 -0.4577 -0.0780
19701TIP3    H180518   1.488   1.971   4.561 -0.3516  0.5802  1.0309
19701TIP3    H280519   1.629   1.986   4.615 -1.0277  0.7623  2.7805
19702TIP3   OH280520   3.889   4.130  11.944  0.2265  0.1700  0.4853
19702TIP3    H180521   3.941   4.136  12.024 -0.8688 -0.1865  1.2558
19702TIP3    H280522   3.859   4.039  11.942 -0.0992  0.2861 -0.1088
19703TIP3   OH280523   4.814   1.076  15.871 -0.6194 -0.1075  0.0555
19703TIP3    H180524   4.809   1.153  15.813  0.3489  1.2335  1.6543
19703TIP3    H280525   4.896   1.088  15.918 -1.8903 -0.5343  2.5104
19704TIP3   OH280526   2.664   1.707  15.892  0.7854  0.0059 -0.3493
19704TIP3    H180527   2.715   1.640  15.847  0.4853  0.5900 -1.5922
19704TIP3    H280528   2.576   1.669  15.901  0.6443  0.1802 -0.9550
19705TIP3   OH280529   1.545   2.910  14.562  0.7154 -0.3336  0.0538
19705TIP3    H180530   1.457   2.890  14.529  0.2878  0.0243  0.9595
19705TIP3    H280531   1.596   2.832  14.541  0.2664 -0.4235 -0.7645
19706TIP3   OH280532   2.372   6.136   4.927  0.2819 -0.8420  0.1456
19706TIP3    H180533   2.338   6.186   5.001 -1.2477 -1.3195 -0.1922
19706TIP3    H280534   2.461   6.168   4.915  0.3976 -0.4211  1.8871
19707TIP3   OH280535   5.239   6.190  12.988  0.2024 -0.5161 -0.1038
19707TIP3    H180536   5.239   6.095  12.998 -1.1413 -0.4529  0.7841
19707TIP3    H280537   5.211   6.223  13.073  0.3601  0.6684 -0.4886
19708TIP3   OH280538   0.801   4.978   1.867  0.3163 -0.1448 -0.0592
19708TIP3    H180539   0.771   4.890   1.890 -1.1776  0.5589  0.8695
19708TIP3    H280540   0.817   5.020   1.951 -0.6347  1.0015 -0.4298
19709TIP3   OH280541   3.973   5.107   0.470 -0.7271 -0.1646 -0.5066
19709TIP3    H180542   4.005   5.028   0.514 -1.5705 -0.4212 -0.3489
19709TIP3    H280543   3.878   5.102   0.477 -0.8334  2.6359  2.6546
19710TIP3   OH280544   2.717   3.932   4.699  0.2496  0.8659 -0.6613
19710TIP3    H180545   2.784   3.993   4.730  0.1152  0.7198 -0.0766
19710TIP3    H280546   2.634   3.969   4.728  0.0666  1.0293 -1.3577
19711TIP3   OH280547   2.955   0.735   1.240  0.1497  0.3207 -0.0471
19711TIP3    H180548   3.024   0.739   1.173 -1.0947 -0.7111 -1.4691
19711TIP3    H280549   2.882   0.784   1.201 -1.1220 -1.5702 -0.1584
19712TIP3   OH280550   5.670   5.946  15.187  0.2666  0.4879 -0.2086
19712TIP3    H180551   5.694   6.020  15.131 -1.1380  0.8619 -0.3654
19712TIP3    H280552   5.663   5.872  15.127  1.6921  0.1937 -0.0499
19713TIP3   OH280553   0.423   6.704  12.836 -0.3418  0.4697 -0.0896
19713TIP3    H180554   0.503   6.755  12.846 -1.6255  2.5336  0.1245
19713TIP3    H280555   0.379   6.743  12.761 -0.3318 -1.8580 -1.4213
19714TIP3   OH280556   1.726   6.211  11.182  0.9737 -0.1768  0.4200
19714TIP3    H180557   1.665   6.270  11.226  0.7663 -1.8925  2.6142
19714TIP3    H280558   1.789   6.269  11.139 -1.0787  1.6204 -0.3128
19715TIP3   OH280559   3.927   4.589   2.946 -0.3367  0.8612 -0.9096
19715TIP3    H180560   3.933   4.536   3.026 -0.7335  2.6055  0.3385
19715TIP3    H280561   3.952   4.529   2.876 -0.7035 -0.9438  0.4226
19716TIP3   OH280562   4.014   6.756   0.530 -0.2927  0.2844 -0.4721
19716TIP3    H180563   4.041   6.669   0.560 -0.1214  0.1850 -0.9004
19716TIP3    H280564   4.065   6.817   0.583 -0.6635  0.1338  0.0685
19717TIP3   OH280565   5.812   1.540   2.259 -0.1547  0.0112 -0.4107
19717TIP3    H180566   5.750   1.595   2.211  0.6364  0.9535 -0.3856
19717TIP3    H280567   5.808   1.572   2.350  1.3488  1.0559 -0.6608
19718TIP3   OH280568   5.199   4.466  14.068  0.3762  0.5531 -0.0135
19718TIP3    H180569   5.135   4.495  14.002  1.4415  0.9584 -0.8888
19718TIP3    H280570   5.149   4.463  14.150 -1.1378 -0.5570 -0.9236
19719TIP3   OH280571   1.644   6.078   0.941  0.2281  0.0580  0.1824
19719TIP3    H180572   1.681   6.148   0.887 -0.4187  1.0214  0.9588
19719TIP3    H280573   1.720   6.027   0.969  0.5381 -0.8744 -2.1341
19720TIP3   OH280574   1.768   6.150  15.625  0.0046 -0.0466  0.1516
19720TIP3    H180575   1.703   6.213  15.656 -1.1683 -0.5981 -1.0676
19720TIP3    H280576   1.763   6.156  15.529  1.0331 -0.8303  0.0376
19721TIP3   OH280577   0.638   3.534   3.076 -0.4146  0.1445  0.6005
19721TIP3    H180578   0.546   3.554   3.093 -0.5474  1.0540 -0.9882
19721TIP3    H280579   0.636   3.477   2.999  0.3405 -0.2481  0.8613
19722TIP3   OH280580   6.021   3.884   6.069 -0.3849 -0.3529 -0.1527
19722TIP3    H180581   6.107   3.913   6.038  0.1628 -0.7570  0.9258
19722TIP3    H280582   6.032   3.790   6.085 -1.3820 -0.6512 -1.1262
19723TIP3   OH280583   1.560   1.891  14.184  0.0147 -0.2734 -0.2578
19723TIP3    H180584   1.610   1.809  14.182 -2.5224 -1.9792  0.8595
19723TIP3    H280585   1.484   1.874  14.129 -0.7048  1.2814  0.2021
19724TIP3   OH280586   5.080   3.137  15.780 -0.1237 -0.0721  0.3476
19724TIP3    H180587   5.130   3.213  15.751 -1.0893  0.7908  0.8821
19724TIP3    H280588   5.060   3.155  15.872 -1.4651 -0.3481  0.1304
19725TIP3   OH280589   0.239   3.507  14.168  0.6056  0.0744  0.1766
19725TIP3    H180590   0.271   3.563  14.097 -0.2039 -1.9450 -1.8846
19725TIP3    H280591   0.223   3.422  14.127 -3.3776 -0.2405  1.8951
19726TIP3   OH280592   1.216   2.337   4.884 -0.0014  0.4978 -0.2942
19726TIP3    H180593   1.127   2.352   4.914  0.2050  0.5979  0.2833
19726TIP3    H280594   1.253   2.424   4.873  0.5417  0.4608  1.0622
19727TIP3   OH280595   3.113   6.504   3.682  0.4499 -0.2208 -0.1856
19727TIP3    H180596   3.075   6.509   3.595  1.6177 -0.9092 -0.7703
19727TIP3    H280597   3.203   6.475   3.667  0.6666 -0.3829  1.2505
19728TIP3   OH280598   0.466   4.786  11.639 -0.1890 -0.3019  0.0598
19728TIP3    H180599   0.382   4.740  11.648 -0.2812 -0.0636  0.4367
19728TIP3    H280600   0.498   4.760  11.552 -2.4647  2.5185 -1.8042
19729TIP3   OH280601   2.542   6.410   0.030 -0.2469 -0.0678  0.1135
19729TIP3    H180602   2.626   6.453   0.047 -0.4216  0.7668 -1.0068
19729TIP3    H280603   2.497   6.469  -0.031 -0.2562 -2.0656 -1.9666
19730TIP3   OH280604   5.020   4.569   1.135 -0.3414  0.6085  1.0040
19730TIP3    H180605   5.115   4.577   1.128 -0.4154  0.8888  0.1916
19730TIP3    H280606   5.006   4.488   1.183  0.2931 -0.0474  0.1039
19731TIP3   OH280607   1.974   1.956  13.109  0.0574  0.1875  0.4309
19731TIP3    H180608   1.939   1.914  13.187  0.4630 -0.2939  0.3560
19731TIP3    H280609   1.914   1.929  13.039  0.2863 -0.2247  0.3928
19732TIP3   OH280610   0.721   4.452  14.432  0.2630  0.0380  0.0975
19732TIP3    H180611   0.646   4.455  14.372  1.3457 -1.1592 -1.4049
19732TIP3    H280612   0.761   4.539  14.424 -1.7678  1.2482  2.0961
19733TIP3   OH280613   1.991   6.791   0.249  0.1598  0.0159 -0.1733
19733TIP3    H180614   1.961   6.777   0.159  1.2473  0.0559 -0.5709
19733TIP3    H280615   2.057   6.723   0.262  0.1095  0.1041  0.5444
19734TIP3   OH280616   4.577   3.286   4.028  0.1390  0.2645 -0.2351
19734TIP3    H180617   4.539   3.347   3.965  1.6169  1.5642  0.0546
19734TIP3    H280618   4.549   3.318   4.113 -0.6883 -0.6578 -0.1364
19735TIP3   OH280619   5.846   3.863   5.587 -0.6027 -0.4060 -0.1874
19735TIP3    H180620   5.893   3.796   5.637  0.5955  0.4057 -0.1707
19735TIP3    H280621   5.887   3.946   5.615 -0.5936  0.1489 -1.7701
19736TIP3   OH280622   1.825   4.639   1.305 -0.4082 -0.6443 -0.2033
19736TIP3    H180623   1.803   4.631   1.212  0.8249 -2.1410 -0.4062
19736TIP3    H280624   1.752   4.598   1.351 -0.1643 -1.5492 -0.6150
19737TIP3   OH280625   3.686   2.417   2.235 -0.2102 -0.3756  0.1943
19737TIP3    H180626   3.615   2.393   2.175 -0.9400 -0.6580  1.1476
19737TIP3    H280627   3.766   2.400   2.185 -0.7977  0.5277 -1.1280
19738TIP3   OH280628   4.842   3.222  13.953 -0.1682 -0.0314  0.1008
19738TIP3    H180629   4.918   3.177  13.917  0.3279 -0.2437  1.3457
19738TIP3    H280630   4.843   3.308  13.911  1.2556  0.2742  0.6836
19739TIP3   OH280631   2.701   5.891   6.424  0.0192  1.1300  0.3499
19739TIP3    H180632   2.646   5.966   6.401 -0.3911  0.5097 -0.7391
19739TIP3    H280633   2.780   5.902   6.371  0.1177  0.9714  0.4612
19740TIP3   OH280634   6.732   4.534   0.645  0.0180  0.1820 -0.1215
19740TIP3    H180635   6.691   4.615   0.614 -1.6004 -0.6596 -0.3137
19740TIP3    H280636   6.660   4.471   0.647  1.1625 -1.1473  0.4121
19741TIP3   OH280637   5.044   4.449   2.981  0.1693 -0.7831 -0.2215
19741TIP3    H180638   5.021   4.369   3.029 -0.3528  0.7890  2.4038
19741TIP3    H280639   4.960   4.488   2.959  0.3014  0.5374  1.3764
19742TIP3   OH280640   0.210   2.447   6.214  0.2018 -0.1000 -0.3669
19742TIP3    H180641   0.198   2.513   6.283  1.7770  1.0754 -1.1586
19742TIP3    H280642   0.178   2.366   6.254  1.5539  0.4140  2.0066
19743TIP3   OH280643   6.079   4.781  16.859 -0.2731  0.2229  0.8016
19743TIP3    H180644   6.115   4.839  16.792  1.4168 -0.7059  0.8628
19743TIP3    H280645   5.993   4.756  16.824  0.6785 -0.4926 -1.2088
19744TIP3   OH280646   4.237   2.992  15.600 -0.0024 -0.2448 -0.6765
19744TIP3    H180647   4.162   3.035  15.641 -0.3783 -1.6496  0.1860
19744TIP3    H280648   4.266   3.053  15.533  0.0893  1.7708  1.1068
19745TIP3   OH280649   0.459   2.089  12.040 -0.2520 -0.0364  0.1296
19745TIP3    H180650   0.462   2.068  12.133  0.3678  1.1506  0.3888
19745TIP3    H280651   0.454   2.184  12.036 -0.7903 -0.0903 -1.0518
19746TIP3   OH280652   4.559   2.074  16.766  0.0399  0.1539  0.2263
19746TIP3    H180653   4.627   2.009  16.780  0.5174  0.5079 -0.3784
19746TIP3    H280654   4.514   2.080  16.850 -0.8084 -1.8170 -0.0323
19747TIP3   OH280655   4.131   2.877   5.510  0.1167  0.6722  0.3300
19747TIP3    H180656   4.202   2.918   5.459  0.8482 -2.1196 -1.0936
19747TIP3    H280657   4.165   2.791   5.533 -2.5401 -0.4549  0.3146
19748TIP3   OH280658   5.941   0.477   3.507  0.2026  0.0229 -0.1187
19748TIP3    H180659   5.963   0.388   3.535  1.2361  0.6050  1.0413
19748TIP3    H280660   5.925   0.470   3.413  2.0938 -1.0723 -0.4028
19749TIP3   OH280661   1.044   1.444   2.167  0.2042 -0.9031 -0.0165
19749TIP3    H180662   1.118   1.502   2.186  0.5415 -1.1757 -0.4583
19749TIP3    H280663   1.076   1.357   2.189 -0.5644 -0.8535  1.3776
19750TIP3   OH280664   4.116   4.050   1.241 -0.0244  0.0243 -0.1182
19750TIP3    H180665   4.114   4.021   1.332  0.9334  0.9795  0.2320
19750TIP3    H280666   4.208   4.073   1.225 -0.2613  0.3014 -1.1811
19751TIP3   OH280667   0.188   1.922  10.050  0.4397 -0.2264 -0.4314
19751TIP3    H180668   0.176   2.006  10.004  0.0290  0.2696  0.5634
19751TIP3    H280669   0.261   1.881  10.004  1.2664  1.0965 -0.3690
19752TIP3   OH280670   0.406   2.034  17.002 -0.4887 -0.2231 -0.4537
19752TIP3    H180671   0.379   2.073  17.086 -1.1324 -0.7925 -0.3871
19752TIP3    H280672   0.368   2.091  16.936 -0.0426  0.1857 -0.3655
19753TIP3   OH280673   1.769   5.068  15.091 -0.0933  0.5258  0.3429
19753TIP3    H180674   1.804   4.980  15.075  0.7064  0.4102  2.3614
19753TIP3    H280675   1.674   5.055  15.096 -0.2632  0.3358 -2.2993
19754TIP3   OH280676   3.340   5.905   3.974 -0.5201  0.0411  0.4321
19754TIP3    H180677   3.291   5.882   3.895  0.5185 -2.7288  0.4474
19754TIP3    H280678   3.426   5.864   3.960 -0.9147 -2.3133  3.7252
19755TIP3   OH280679   0.064   2.321  12.633 -0.6293 -0.2481  0.0605
19755TIP3    H180680   0.079   2.306  12.727  1.7122  3.0089  0.3431
19755TIP3    H280681  -0.015   2.375  12.630  0.1177  0.8805  0.3093
19756TIP3   OH280682   3.449   1.181  13.819 -0.4361 -0.3923  0.9625
19756TIP3    H180683   3.423   1.179  13.727 -1.2592  0.9738  1.1451
19756TIP3    H280684   3.535   1.224  13.819  1.0377 -3.1179  0.5671
19757TIP3   OH280685   0.627   3.717  16.935  0.4017  0.0053 -0.0486
19757TIP3    H180686   0.581   3.683  17.012 -1.3611 -2.2871 -1.9600
19757TIP3    H280687   0.719   3.696  16.951  0.1221 -0.1953  1.5059
19758TIP3   OH280688   6.462   1.439  13.998 -0.5710  0.0425 -0.7073
19758TIP3    H180689   6.402   1.401  14.062 -1.6615 -1.1863 -2.3461
19758TIP3    H280690   6.545   1.448  14.044 -1.2858 -0.8840  0.8276
19759TIP3   OH280691   5.564   2.961  15.550 -0.2967 -0.3649 -0.3704
19759TIP3    H180692   5.486   2.920  15.513  0.6328 -0.7914 -1.9551
19759TIP3    H280693   5.578   3.039  15.496  2.3805 -2.1881 -2.6435
19760TIP3   OH280694   1.844   5.925   5.382 -0.2030  0.2097  0.2114
19760TIP3    H180695   1.915   5.892   5.327 -1.8432 -0.8613 -1.3918
19760TIP3    H280696   1.771   5.938   5.321 -1.6970  0.3005  1.9377
19761TIP3   OH280697   3.622   4.024   5.745  0.0433 -0.1099  0.1082
19761TIP3    H180698   3.553   4.083   5.774  0.9612  1.5534 -0.9884
19761TIP3    H280699   3.658   3.988   5.826 -1.8567 -0.7646  0.7097
19762TIP3   OH280700   5.832   3.086  15.383 -0.6552 -0.1248  0.0838
19762TIP3    H180701   5.841   3.090  15.478 -1.7379  0.3717  0.1800
19762TIP3    H280702   5.863   2.998  15.360  1.4151  0.3782  0.6506
19763TIP3   OH280703   1.797   4.325  15.321 -0.3711 -0.2797 -0.2478
19763TIP3    H180704   1.853   4.343  15.396 -1.0391  3.1256 -0.4170
19763TIP3    H280705   1.714   4.296  15.358  0.1708 -1.4345  0.1343
19764TIP3   OH280706   4.699   4.566  13.997  0.2042  0.1391  0.0157
19764TIP3    H180707   4.753   4.497  14.035 -0.7416  0.1033  1.3704
19764TIP3    H280708   4.627   4.520  13.955 -1.1136  0.2670  1.9957
19765TIP3   OH280709   2.006   4.657  13.289 -0.2730  0.5663 -0.6933
19765TIP3    H180710   2.017   4.654  13.194  0.2936  0.4688 -0.6265
19765TIP3    H280711   1.956   4.578  13.310 -0.0438  0.3749 -0.8623
19766TIP3   OH280712   0.845   4.941   3.820 -0.5253 -0.3943 -0.6589
19766TIP3    H180713   0.818   5.032   3.803  1.9014  0.4520 -0.4029
19766TIP3    H280714   0.923   4.949   3.874 -2.3310 -2.7709  2.6505
19767TIP3   OH280715   5.055   2.554  13.068  0.9175 -0.3486 -0.0159
19767TIP3    H180716   5.087   2.496  12.998  0.4997  0.1282 -0.6200
19767TIP3    H280717   5.126   2.616  13.083  0.9340 -0.3304 -0.1632
19768TIP3   OH280718   2.491   0.010  11.102 -0.2001  0.3068  0.3139
19768TIP3    H180719   2.545  -0.053  11.150  0.0363 -0.0474 -0.3959
19768TIP3    H280720   2.515   0.095  11.137 -0.5581  0.0079  1.3258
19769TIP3   OH280721   1.268   1.310   0.812 -0.0060  0.4183  0.1732
19769TIP3    H180722   1.255   1.281   0.903  1.2640 -0.2877  0.1521
19769TIP3    H280723   1.255   1.231   0.760 -2.0411  1.0813 -0.4186
19770TIP3   OH280724   2.678   3.709  13.167 -0.9797  0.0240  0.3388
19770TIP3    H180725   2.710   3.654  13.096  0.3621  0.3628  0.6598
19770TIP3    H280726   2.610   3.764  13.127  1.6071  2.1971 -1.4413
19771TIP3   OH280727   3.778   0.110   6.086  0.0571 -0.0611  0.3884
19771TIP3    H180728   3.835   0.174   6.129 -0.0424  0.4337 -0.2050
19771TIP3    H280729   3.718   0.082   6.155 -0.5873  1.2914  0.4095
19772TIP3   OH280730   5.081   4.781  12.597  0.5204  0.1738 -0.0672
19772TIP3    H180731   5.116   4.717  12.658  1.5176 -0.9982 -1.7891
19772TIP3    H280732   4.986   4.769  12.600  0.4890  0.5999  1.6800
19773TIP3   OH280733   1.175   3.137  14.832  0.1240 -0.3718  0.3207
19773TIP3    H180734   1.086   3.132  14.867  0.3699  0.4878  1.0955
19773TIP3    H280735   1.221   3.197  14.890  0.0195  2.7596 -2.5120
19774TIP3   OH280736   6.245   5.926  13.650 -0.4152  0.7747  0.8026
19774TIP3    H180737   6.224   5.917  13.743 -0.1043  1.8870  0.9951
19774TIP3    H280738   6.337   5.954  13.649 -0.4037  0.7298  0.1596
19775TIP3   OH280739   6.406   3.300  15.601  0.1222 -0.4951 -0.2139
19775TIP3    H180740   6.376   3.220  15.560 -2.5309  0.4665 -0.3311
19775TIP3    H280741   6.445   3.351  15.530 -0.0990 -0.8090 -0.5628
19776TIP3   OH280742   3.746   3.594  16.024  0.6988  0.1666  0.2138
19776TIP3    H180743   3.707   3.670  16.067  0.4687 -0.3824  0.9877
19776TIP3    H280744   3.791   3.546  16.094  0.7180 -0.4889 -0.2348
19777TIP3   OH280745   2.433   3.152   4.503  0.3331 -0.8573  0.3333
19777TIP3    H180746   2.527   3.169   4.494  0.3180 -1.2903 -0.9065
19777TIP3    H280747   2.402   3.219   4.564  1.3206 -0.2515  0.1959
19778TIP3   OH280748   5.446   1.177   3.351  0.0463 -0.1871 -0.1494
19778TIP3    H180749   5.400   1.094   3.359  1.6922 -1.2164 -0.8527
19778TIP3    H280750   5.521   1.169   3.411  1.2458  0.0174 -1.5512
19779TIP3   OH280751   5.029   2.552  11.987  0.0710  0.0950  0.3643
19779TIP3    H180752   5.091   2.598  11.929  0.6042 -0.2331  0.6673
19779TIP3    H280753   4.950   2.543  11.934  0.1879  0.7597  0.0643
19780TIP3   OH280754   1.735   0.002  13.211 -0.5577 -0.0959 -0.1365
19780TIP3    H180755   1.724   0.092  13.243  1.2591 -0.5646  2.0662
19780TIP3    H280756   1.650  -0.021  13.174 -0.9780  2.6098 -1.0856
19781TIP3   OH280757   2.181   6.073   0.514 -0.5031 -0.5916  0.5452
19781TIP3    H180758   2.183   6.019   0.593 -0.9613 -0.8013  0.4149
19781TIP3    H280759   2.186   6.163   0.546  0.4584 -0.7010  0.7555
19782TIP3   OH280760   4.326   0.452  15.938  0.7239 -0.3880 -0.2527
19782TIP3    H180761   4.286   0.516  15.997 -1.8057 -2.1889  0.1270
19782TIP3    H280762   4.316   0.491  15.851 -0.3448 -0.0519  0.0122
19783TIP3   OH280763   5.424   5.948  16.952 -0.2055 -0.7194 -0.1604
19783TIP3    H180764   5.461   5.873  16.999  1.2991  1.3363  2.2160
19783TIP3    H280765   5.331   5.947  16.975 -0.6210 -2.8113 -1.6700
19784TIP3   OH280766   0.338   1.611   1.791 -0.2356  0.2993 -0.1210
19784TIP3    H180767   0.387   1.598   1.872 -1.5321  2.7737  1.1872
19784TIP3    H280768   0.247   1.595   1.815 -0.5348  0.0258 -1.3701
19785TIP3   OH280769   3.437   4.120   5.145  0.1134  0.4826 -0.3582
19785TIP3    H180770   3.455   4.211   5.171  1.6836  0.3535 -0.8958
19785TIP3    H280771   3.461   4.068   5.221  1.8533  0.3348 -0.9704
19786TIP3   OH280772   4.992   4.170  12.149 -0.0866  0.5410 -0.1770
19786TIP3    H180773   5.040   4.219  12.217 -0.6380  0.8208  0.0237
19786TIP3    H280774   4.995   4.079  12.178 -1.3515  0.8020  0.8906
19787TIP3   OH280775   4.614   5.496   5.873 -0.3045  0.3162 -0.3583
19787TIP3    H180776   4.550   5.538   5.931 -1.4981 -0.1560 -1.2911
19787TIP3    H280777   4.614   5.551   5.795  2.0794  1.5644  0.4084
19788TIP3   OH280778   4.376   4.562  12.059 -0.1521 -0.8945  0.0067
19788TIP3    H180779   4.409   4.509  11.987  1.6712  1.1192 -0.7581
19788TIP3    H280780   4.350   4.644  12.018 -0.5057 -0.2475  1.4525
19789TIP3   OH280781   2.708   6.262   0.744 -0.2760  0.0882 -0.5378
19789TIP3    H180782   2.658   6.279   0.664  0.9044 -1.4870 -1.6917
19789TIP3    H280783   2.685   6.172   0.767  2.1494 -0.8041 -1.2782
19790TIP3   OH280784   1.712   2.005  14.862  0.4350  0.0467  0.0237
19790TIP3    H180785   1.660   2.047  14.930  0.8851  1.0749 -0.2418
19790TIP3    H280786   1.794   1.982  14.904  0.4319  0.0103  0.0100
19791TIP3   OH280787   6.231   6.358  10.935 -0.1490  0.0193  0.0722
19791TIP3    H180788   6.318   6.394  10.915 -0.0768 -0.9092 -1.4649
19791TIP3    H280789   6.196   6.416  11.003  1.0228  1.3714 -0.4243
19792TIP3   OH280790   6.803   4.895   5.372  0.2747 -0.3768 -0.0878
19792TIP3    H180791   6.753   4.881   5.453  0.4775 -0.0350  0.0947
19792TIP3    H280792   6.892   4.866   5.393  0.6624  0.9833  0.2372
19793TIP3   OH280793   2.643   3.892   1.290 -0.0432 -0.2841  0.2214
19793TIP3    H180794   2.692   3.879   1.372  2.3447 -1.7836 -1.3176
19793TIP3    H280795   2.678   3.825   1.231 -1.9883  0.4752 -1.9173
19794TIP3   OH280796   3.864   1.411  13.024 -0.3668 -0.5917  0.3568
19794TIP3    H180797   3.944   1.429  12.975 -1.5213  0.5056 -1.2025
19794TIP3    H280798   3.853   1.487  13.080  0.4921 -1.4658  1.7866
19795TIP3   OH280799   5.736   0.788   1.821  0.0996  0.0411 -0.2380
19795TIP3    H180800   5.724   0.707   1.772  2.8517 -1.8389  1.9246
19795TIP3    H280801   5.790   0.843   1.765 -1.3808  0.2391 -1.5188
19796TIP3   OH280802   4.148   0.139  16.340 -0.3015 -0.7063  0.3143
19796TIP3    H180803   4.089   0.079  16.293 -0.4975 -1.0686  1.0198
19796TIP3    H280804   4.218   0.156  16.277  0.6549 -3.0163  0.6635
19797TIP3   OH280805   1.546   3.224   2.740 -0.1438  0.0201 -0.0844
19797TIP3    H180806   1.633   3.247   2.707  1.3303 -3.5025  0.9216
19797TIP3    H280807   1.495   3.203   2.662  0.3284  0.7833 -0.6120
19798TIP3   OH280808   4.358   0.269   3.559  0.1897 -0.3536 -0.5599
19798TIP3    H180809   4.428   0.216   3.599  1.5468  1.5589 -0.2381
19798TIP3    H280810   4.391   0.291   3.472  0.4403  1.3041 -0.0803
19799TIP3   OH280811   6.093   4.255   0.407 -0.5452  0.2847  0.5008
19799TIP3    H180812   6.189   4.256   0.416 -0.6038  1.5930  1.2001
19799TIP3    H280813   6.078   4.275   0.315 -0.1393 -1.9133 -0.0983
19800TIP3   OH280814   4.314   2.678   5.534  0.3327 -0.1400 -0.0273
19800TIP3    H180815   4.403   2.670   5.570  1.0972  1.4234 -1.4244
19800TIP3    H280816   4.309   2.611   5.466  1.2582  1.0940 -1.3818
19801TIP3   OH280817   6.026   0.212  16.561  0.0150  0.0082  0.1003
19801TIP3    H180818   6.054   0.138  16.614 -0.3925  0.2010  0.5912
19801TIP3    H280819   6.095   0.221  16.494  0.0701 -0.7923  0.0452
19802TIP3   OH280820   6.113   1.948   3.329  0.1724 -0.4785 -0.0797
19802TIP3    H180821   6.199   1.909   3.345  0.0546 -1.2546 -1.2284
19802TIP3    H280822   6.079   1.967   3.416  2.3640  1.8305  0.3938
19803TIP3   OH280823   2.269   4.353  14.020 -0.0659 -0.0174  0.3178
19803TIP3    H180824   2.322   4.397  13.953 -0.7644  1.6868  0.8331
19803TIP3    H280825   2.182   4.393  14.012 -0.2546 -0.0256  2.0174
19804TIP3   OH280826   3.718   3.858  15.583 -0.1474 -0.2135 -0.6222
19804TIP3    H180827   3.775   3.924  15.621  1.5141 -0.5089 -2.4550
19804TIP3    H280828   3.729   3.781  15.640 -1.7761  0.8422  1.2765
19805TIP3   OH280829   6.602   1.579   5.351  0.3183  0.1555 -0.0315
19805TIP3    H180830   6.552   1.505   5.316 -0.0247  0.1667  0.4198
19805TIP3    H280831   6.547   1.655   5.333  1.9960  0.7936 -3.2805
19806TIP3   OH280832   3.363   3.777  14.198  0.2525 -0.1106 -0.1381
19806TIP3    H180833   3.390   3.804  14.286  1.1418 -0.5881 -0.2619
19806TIP3    H280834   3.435   3.803  14.141  0.6552 -1.7324 -0.4173
19807TIP3   OH280835   4.709   3.029  13.443 -0.9085  0.6658 -0.7376
19807TIP3    H180836   4.636   3.089  13.460 -1.3604  0.1477 -0.8366
19807TIP3    H280837   4.671   2.942  13.453  0.0692  0.3704  0.8529
19808TIP3   OH280838   4.565   4.132  13.962 -0.3766  0.5634 -0.1652
19808TIP3    H180839   4.497   4.087  13.911  0.1982 -0.3626 -0.1264
19808TIP3    H280840   4.607   4.062  14.013  1.6696  0.8386 -1.3669
19809TIP3   OH280841   2.358   5.768   1.503 -0.1605 -0.5376  0.0722
19809TIP3    H180842   2.425   5.752   1.436 -0.0355  0.1813  0.0166
19809TIP3    H280843   2.276   5.749   1.458 -0.1483  0.9472 -0.6277
19810TIP3   OH280844   0.962   3.720  16.278 -0.2925 -0.0887 -0.6787
19810TIP3    H180845   0.904   3.646  16.298 -1.5935  0.9986 -0.2428
19810TIP3    H280846   0.974   3.716  16.183 -0.9169 -0.4738 -0.7516
19811TIP3   OH280847   6.698   4.895  13.548 -0.6058  0.2467 -0.4765
19811TIP3    H180848   6.779   4.844  13.551 -1.2397 -0.7910 -0.5916
19811TIP3    H280849   6.675   4.908  13.640 -1.6483 -1.6862 -0.4128
19812TIP3   OH280850   5.917   6.214  11.156 -0.4904  0.5531 -0.1361
19812TIP3    H180851   5.907   6.282  11.089  0.1589  0.3044 -0.4950
19812TIP3    H280852   5.846   6.231  11.218 -0.2592  1.6401 -0.1454
19813TIP3   OH280853   0.898   6.188   4.248 -0.5464  0.0604  0.1344
19813TIP3    H180854   0.907   6.131   4.172 -0.3246 -0.1937  0.3468
19813TIP3    H280855   0.813   6.165   4.286 -1.9674  2.1335 -1.6099
19814TIP3   OH280856   5.990   0.411  13.940  0.3835 -0.3050 -0.6048
19814TIP3    H180857   5.993   0.489  13.995 -2.8102 -0.1577 -0.4592
19814TIP3    H280858   5.988   0.338  14.001 -2.8993 -0.1502 -0.3379
19815TIP3   OH280859   4.465   6.192   6.826  0.3150 -0.5311 -0.1131
19815TIP3    H180860   4.380   6.195   6.781  0.3310 -2.1075 -0.3022
19815TIP3    H280861   4.483   6.099   6.836  1.1588 -0.2232  1.5969
19816TIP3   OH280862   6.132   6.300   2.499  0.4233 -0.4521 -0.2930
19816TIP3    H180863   6.208   6.253   2.465  0.0591 -1.3370  0.0776
19816TIP3    H280864   6.114   6.258   2.583 -1.6770 -1.5920 -1.2591
19817TIP3   OH280865   1.685   3.167  11.438  0.5124 -0.1728  0.1484
19817TIP3    H180866   1.633   3.169  11.518 -1.0775  0.3148 -0.8653
19817TIP3    H280867   1.714   3.257  11.425  0.6755 -0.2291  0.1089
19818TIP3   OH280868   1.353   3.156  12.105 -0.8085  0.4884 -0.2258
19818TIP3    H180869   1.350   3.231  12.165 -0.8531  1.1095 -1.0007
19818TIP3    H280870   1.427   3.104  12.138  1.0908  2.3080 -1.3383
19819TIP3   OH280871   6.328   2.198   4.391 -0.0794 -0.2715  0.1037
19819TIP3    H180872   6.292   2.202   4.479  1.4040 -0.3071  0.7314
19819TIP3    H280873   6.307   2.110   4.360 -1.3544  0.0261  0.0714
19820TIP3   OH280874   1.820   2.728  11.180  0.1317  0.0988  0.0167
19820TIP3    H180875   1.870   2.774  11.248  2.2811 -2.5927  0.4535
19820TIP3    H280876   1.884   2.709  11.112 -0.9554 -1.0817 -0.7259
19821TIP3   OH280877   4.210   2.248  14.235  0.4258 -0.7910 -0.3683
19821TIP3    H180878   4.247   2.272  14.320  1.0370 -3.6353  0.2639
19821TIP3    H280879   4.278   2.274  14.172 -0.7497  2.9656 -0.3296
19822TIP3   OH280880   3.590   3.388  15.938 -0.1320 -0.4034  0.3648
19822TIP3    H180881   3.627   3.470  15.970 -1.5042 -0.3767  2.0401
19822TIP3    H280882   3.637   3.320  15.988  1.1031 -0.6791 -1.1198
19823TIP3   OH280883   2.819   4.827   5.857 -0.0004  0.3281  0.0868
19823TIP3    H180884   2.886   4.780   5.906 -0.4415 -1.6065 -1.0382
19823TIP3    H280885   2.751   4.846   5.921 -1.0915 -3.1410  0.1551
19824TIP3   OH280886   3.103   5.424   6.204 -0.2399 -0.1160 -0.7314
19824TIP3    H180887   3.198   5.416   6.202 -0.2391 -0.6053  0.4331
19824TIP3    H280888   3.088   5.516   6.226  0.0977 -0.7763  3.0045
19825TIP3   OH280889   6.341   0.080   1.306 -0.4179 -0.4914 -0.4517
19825TIP3    H180890   6.290   0.010   1.348 -0.0613 -0.3353  0.2602
19825TIP3    H280891   6.296   0.161   1.333  0.2620 -0.3435  0.2914
19826TIP3   OH280892   5.757   1.527  15.851  0.5655 -0.3608  0.3398
19826TIP3    H180893   5.770   1.464  15.922 -1.8936 -0.6266  0.6252
19826TIP3    H280894   5.768   1.475  15.771  0.5806 -0.6849  0.5504
19827TIP3   OH280895   1.744   4.305   4.329  0.1701 -0.0483  0.1439
19827TIP3    H180896   1.653   4.326   4.352  0.0339 -1.7024  1.2237
19827TIP3    H280897   1.739   4.222   4.283  1.0320  0.5484 -1.0988
19828TIP3   OH280898   6.729   0.097   0.486  0.1154 -0.4473  0.2480
19828TIP3    H180899   6.758   0.158   0.554  2.6605  1.7639 -2.4877
19828TIP3    H280900   6.681   0.152   0.424  0.3406 -1.7266 -1.1216
19829TIP3   OH280901   1.395   5.706   1.139  0.1512 -0.5621 -0.3578
19829TIP3    H180902   1.321   5.669   1.091  0.7102 -0.2525 -1.5034
19829TIP3    H280903   1.470   5.694   1.080  0.8522 -0.1079  0.4211
19830TIP3   OH280904   2.675   3.152   1.643 -0.3991  0.8414 -0.1202
19830TIP3    H180905   2.642   3.216   1.580 -0.0655  1.5379  0.3968
19830TIP3    H280906   2.762   3.183   1.667 -0.1084  0.0327 -0.0746
19831TIP3   OH280907   2.218   5.740   6.100  0.0616 -0.5163 -0.0377
19831TIP3    H180908   2.128   5.742   6.066 -0.6972  0.2000  1.8853
19831TIP3    H280909   2.228   5.652   6.137  0.0639 -0.5023 -0.0056
19832TIP3   OH280910   6.084   5.684   6.154 -0.0197  0.7953  0.3273
19832TIP3    H180911   6.168   5.652   6.120 -0.1938  0.7745 -0.0886
19832TIP3    H280912   6.075   5.643   6.240 -1.3313 -2.2045 -1.1164
19833TIP3   OH280913   2.278   6.692  12.109 -0.0251  0.0887  0.0888
19833TIP3    H180914   2.243   6.628  12.047  1.7993  0.8212 -1.8285
19833TIP3    H280915   2.366   6.711  12.077  0.2226  2.0953  1.7147
19834TIP3   OH280916   3.675   0.601  13.619 -0.0872  0.3401 -0.1634
19834TIP3    H180917   3.600   0.549  13.648  0.9570 -0.5329  1.0793
19834TIP3    H280918   3.705   0.557  13.539  0.0733 -0.2691  0.2296
19835TIP3   OH280919   2.051   1.465   6.514  0.2146 -0.8517  0.2552
19835TIP3    H180920   2.121   1.451   6.451 -0.2819 -0.1955 -0.4620
19835TIP3    H280921   2.057   1.558   6.537 -0.6154 -0.7081 -0.0654
19836TIP3   OH280922   0.663   5.305  15.877 -0.4758  0.1769  0.0103
19836TIP3    H180923   0.757   5.285  15.868 -0.7817 -1.7412  0.6444
19836TIP3    H280924   0.631   5.309  15.787 -0.1009 -0.8499 -0.1761
19837TIP3   OH280925   0.094   1.147   3.516  0.3502 -0.7876 -0.6350
19837TIP3    H180926   0.073   1.072   3.460 -1.6861 -0.1769 -0.7834
19837TIP3    H280927   0.071   1.119   3.605 -1.9169  0.1043 -0.8772
19838TIP3   OH280928   5.067   3.422  12.960  0.1831  0.7058  0.2632
19838TIP3    H180929   5.107   3.374  13.032 -0.3066  1.6875  1.2285
19838TIP3    H280930   5.023   3.496  13.003 -0.8222  0.8479 -0.9670
19839TIP3   OH280931   0.805   3.558   5.203  0.3986  0.2024  0.9012
19839TIP3    H180932   0.793   3.505   5.124  1.3211  0.4943  0.5558
19839TIP3    H280933   0.750   3.635   5.188  0.8611  0.4363  0.3648
19840TIP3   OH280934   6.729   0.389  12.915 -0.4329  0.2109 -0.2860
19840TIP3    H180935   6.672   0.345  12.852  0.2522 -2.2583  0.7311
19840TIP3    H280936   6.807   0.333  12.921  0.3535  1.3957  1.3271
19841TIP3   OH280937   6.196   3.630  12.739  0.4080  0.4079 -0.0954
19841TIP3    H180938   6.206   3.694  12.810  0.6506  0.6395 -0.3355
19841TIP3    H280939   6.258   3.560  12.762 -0.3626 -0.0914  0.5390
19842TIP3   OH280940   2.982   3.291  11.252  0.2058 -0.6770  0.2232
19842TIP3    H180941   2.930   3.215  11.226 -1.0582  0.6766 -1.4212
19842TIP3    H280942   2.963   3.357  11.186  1.8707  0.8306  1.1680
19843TIP3   OH280943   1.194   1.136   6.033  0.3231  0.2695  0.2144
19843TIP3    H180944   1.180   1.190   6.111 -1.1248 -2.0063  1.6532
19843TIP3    H280945   1.262   1.074   6.059  0.3120 -0.0930 -0.5905
19844TIP3   OH280946   6.609   6.757   6.465 -0.2785 -0.2534 -0.4086
19844TIP3    H180947   6.675   6.746   6.397 -0.9680 -0.5764 -1.0375
19844TIP3    H280948   6.599   6.670   6.504 -1.1683 -0.4693 -1.1047
19845TIP3   OH280949   1.450   1.123  11.548  0.5192  0.8850  0.2067
19845TIP3    H180950   1.531   1.110  11.597 -0.2247 -1.3135  0.9220
19845TIP3    H280951   1.415   1.035  11.534 -0.1514  1.5120 -2.8752
19846TIP3   OH280952   5.298   4.452  13.160  0.0230 -0.3457 -0.1145
19846TIP3    H180953   5.394   4.449  13.163  0.0634  0.7266  0.0030
19846TIP3    H280954   5.273   4.507  13.234 -0.6828 -0.4744 -0.2485
19847TIP3   OH280955   3.878   1.236   3.805  0.1203  0.2257 -0.0686
19847TIP3    H180956   3.818   1.294   3.758  2.7939  1.2481 -2.4921
19847TIP3    H280957   3.956   1.290   3.820  1.2073 -1.6030  1.2213
19848TIP3   OH280958   4.952   3.622  13.654 -0.1725 -0.0577 -0.2467
19848TIP3    H180959   5.021   3.642  13.590  0.6621 -0.7697  0.3976
19848TIP3    H280960   4.990   3.648  13.739 -1.3551  1.1224 -0.0336
19849TIP3   OH280961   5.745   1.012  13.463 -0.0675  0.2332  0.4052
19849TIP3    H180962   5.710   1.064  13.391 -1.2547 -0.7133  0.2706
19849TIP3    H280963   5.813   0.957  13.423  0.5967  1.0490  0.3881
19850TIP3   OH280964   4.897   0.516   5.088 -0.1042 -0.3370 -0.6453
19850TIP3    H180965   4.951   0.547   5.162  0.2414  0.2215 -1.1245
19850TIP3    H280966   4.914   0.422   5.084 -0.0738 -0.3607 -0.0493
19851TIP3   OH280967   2.145   2.157   0.661  0.4367  0.2907  0.1996
19851TIP3    H180968   2.138   2.223   0.730  1.2918 -0.4133  0.9823
19851TIP3    H280969   2.193   2.201   0.590 -0.9712  1.2102 -0.2234
19852TIP3   OH280970   2.874   3.707   2.313 -0.0251 -0.1582  0.4358
19852TIP3    H180971   2.949   3.744   2.359 -0.9500  1.2842  0.8485
19852TIP3    H280972   2.904   3.621   2.284  1.9600  0.5940  0.1047
19853TIP3   OH280973   3.726   4.399  11.571  0.1140 -0.1585  0.1368
19853TIP3    H180974   3.807   4.397  11.621  0.2776  0.8114 -0.0876
19853TIP3    H280975   3.688   4.312  11.585  0.8424 -0.3809  0.8038
19854TIP3   OH280976   0.101   6.212  12.937  0.3210  0.0005 -0.3014
19854TIP3    H180977   0.011   6.179  12.939 -0.6529  2.4499 -0.1283
19854TIP3    H280978   0.151   6.147  12.986 -0.9991 -2.2627 -1.7389
19855TIP3   OH280979   5.695   4.820  10.964  0.1461  0.1492 -0.9680
19855TIP3    H180980   5.760   4.855  10.902  0.0137  2.2661 -0.0013
19855TIP3    H280981   5.611   4.847  10.928 -0.0156  0.0683 -0.6514
19856TIP3   OH280982   1.003   3.731  11.475 -0.1800 -0.0450 -0.0322
19856TIP3    H180983   0.942   3.658  11.483 -2.1401  1.4743 -0.1999
19856TIP3    H280984   0.969   3.784  11.403  1.2942  0.9332 -0.0641
19857TIP3   OH280985   0.474   6.796  16.039 -0.3500 -0.6008  0.3719
19857TIP3    H180986   0.513   6.806  16.126 -0.1607  1.6316  0.0689
19857TIP3    H280987   0.549   6.789  15.980 -0.4207  0.6119  0.1191
19858TIP3   OH280988   1.109   3.236  11.662  0.6624  0.0906 -0.2427
19858TIP3    H180989   1.197   3.252  11.629  0.8364 -1.2993 -0.5170
19858TIP3    H280990   1.119   3.232  11.758  0.8947 -0.0654 -0.2740
19859TIP3   OH280991   5.507   0.984   5.863 -0.1955 -0.0511 -0.0375
19859TIP3    H180992   5.511   0.964   5.957 -0.9918 -0.2237 -0.0361
19859TIP3    H280993   5.572   0.926   5.824 -1.1877 -1.3705  0.1876
19860TIP3   OH280994   3.954   3.566  14.139 -0.0839 -0.1909  0.2475
19860TIP3    H180995   4.003   3.622  14.200 -1.2873  2.1858 -0.8303
19860TIP3    H280996   3.996   3.581  14.054 -1.4353  0.4455 -0.3518
19861TIP3   OH280997   1.878   4.299  15.047 -0.5196  0.4416  0.1724
19861TIP3    H180998   1.886   4.337  15.134 -0.3394  1.0344 -0.0945
19861TIP3    H280999   1.795   4.332  15.014 -0.3953  0.5504 -0.0347
19862TIP3   OH281000   1.809   0.026  12.211  0.5131  0.5730  0.1275
19862TIP3    H181001   1.750   0.042  12.137 -0.4483 -2.5632  0.0894
19862TIP3    H281002   1.773   0.079  12.283  0.3525  2.1695 -1.0764
19863TIP3   OH281003   4.949   0.321   3.385  0.2918  0.0597  0.2753
19863TIP3    H181004   5.020   0.382   3.402  1.4160 -1.1666  0.1262
19863TIP3    H281005   4.957   0.300   3.292  0.4878 -0.9703  0.5077
19864TIP3   OH281006   1.259   5.435   2.045 -0.6802  0.1938  0.1791
19864TIP3    H181007   1.180   5.405   2.090 -0.6336  0.7393  0.6356
19864TIP3    H281008   1.330   5.385   2.086 -0.9315 -1.6585 -1.4654
19865TIP3   OH281009   0.660   0.264   1.479  0.3595  0.5203 -0.3178
19865TIP3    H181010   0.575   0.229   1.507  0.9167 -0.2063  0.5353
19865TIP3    H281011   0.709   0.188   1.451  1.0787  0.7997  0.1509
19866TIP3   OH281012   5.795   2.820  15.572 -0.1388 -0.4721  0.1344
19866TIP3    H181013   5.759   2.783  15.492 -0.1648 -0.4496  0.1360
19866TIP3    H281014   5.719   2.856  15.618  0.1990  2.0811 -1.1506
19867TIP3   OH281015   3.157   0.536   0.359 -0.1048  0.3333 -0.8625
19867TIP3    H181016   3.181   0.596   0.288  1.4451  1.6359  0.6800
19867TIP3    H281017   3.199   0.453   0.334  0.0287  0.6300 -1.6819
19868TIP3   OH281018   0.986   5.920   5.607  0.4866 -0.4854 -0.3019
19868TIP3    H181019   0.919   5.859   5.577  0.6374 -0.8575  0.1006
19868TIP3    H281020   1.036   5.871   5.672  1.0182 -0.1417 -0.4425
19869TIP3   OH281021   6.802   5.475   5.310  0.4705 -0.2509 -0.2430
19869TIP3    H181022   6.835   5.486   5.399 -0.0815  1.0244 -0.1670
19869TIP3    H281023   6.876   5.439   5.261  1.8248  1.9527  0.0467
19870TIP3   OH281024   3.674   6.598  10.900  0.7101 -0.5763  0.3027
19870TIP3    H181025   3.731   6.643  10.837  0.5374 -1.1975 -0.3191
19870TIP3    H281026   3.624   6.536  10.846 -0.0789 -0.4980  0.9327
19871TIP3   OH281027   0.289   1.530   2.657 -0.4809 -0.1224  0.0874
19871TIP3    H181028   0.372   1.501   2.620  0.2747  0.8134  1.0123
19871TIP3    H281029   0.284   1.623   2.637 -0.4717  0.2079  1.5118
19872TIP3   OH281030   2.087   4.666   4.396  0.0650  0.0962 -0.5283
19872TIP3    H181031   2.163   4.626   4.438  0.6579  2.0072  0.2896
19872TIP3    H281032   2.111   4.671   4.303  0.4537 -0.3353 -0.4585
19873TIP3   OH281033   1.791   3.733   4.331 -0.0938  0.0488 -0.2544
19873TIP3    H181034   1.775   3.642   4.307  1.2148 -0.3498  0.3155
19873TIP3    H281035   1.846   3.728   4.409 -1.3064  1.3189  0.7517
19874TIP3   OH281036   6.766   6.112   3.513  0.3423  0.1942 -0.2972
19874TIP3    H181037   6.849   6.100   3.558  0.4553 -1.1879 -0.8214
19874TIP3    H281038   6.700   6.104   3.582  0.5836 -0.2626 -0.1125
19875TIP3   OH281039   4.539   1.470   1.933 -0.4680  0.4355  0.0936
19875TIP3    H181040   4.621   1.431   1.903  0.1182  1.2987  0.5347
19875TIP3    H281041   4.505   1.517   1.856 -1.1532 -0.8612 -0.4252
19876TIP3   OH281042   0.519   1.255  12.428 -0.8921  0.1545  0.8138
19876TIP3    H181043   0.601   1.304  12.436 -0.7590  0.2091 -0.5722
19876TIP3    H281044   0.547   1.165  12.412 -1.0593  0.3295 -0.6031
19877TIP3   OH281045   0.901   6.791   4.940  0.6937 -0.1421 -0.1926
19877TIP3    H181046   0.847   6.715   4.916  1.5584 -1.0286  0.5754
19877TIP3    H281047   0.965   6.798   4.869  2.7054 -2.2296  1.2786
19878TIP3   OH281048   5.088   0.861   2.376  0.3859  0.4016  0.6781
19878TIP3    H181049   5.100   0.878   2.282 -0.1063 -0.1447  0.5082
19878TIP3    H281050   5.112   0.943   2.418 -1.3841  1.3637 -0.0700
19879TIP3   OH281051   1.341   6.192  15.629 -0.6264  0.2082 -0.1888
19879TIP3    H181052   1.407   6.233  15.574  0.7025  0.3049  1.4212
19879TIP3    H281053   1.288   6.265  15.662 -1.3445  0.1603 -1.1738
19880TIP3   OH281054   2.368   5.970   3.131 -0.2844 -0.0763  0.0246
19880TIP3    H181055   2.447   5.984   3.182 -0.3426  0.4262 -0.0136
19880TIP3    H281056   2.362   6.047   3.074  0.3020 -1.0698 -1.4377
19881TIP3   OH281057   0.832   1.283   2.970 -0.2010 -0.4035 -0.0236
19881TIP3    H181058   0.901   1.217   2.961  0.2401  0.2745 -2.1694
19881TIP3    H281059   0.868   1.346   3.032  1.6320  0.4699 -1.8576
19882TIP3   OH281060   1.973   5.917  10.689 -0.0158 -0.2403 -0.3208
19882TIP3    H181061   1.983   5.848  10.624 -0.9425 -3.7937  2.9166
19882TIP3    H281062   2.052   5.911  10.743 -1.0919 -0.3801  1.3217
19883TIP3   OH281063   3.143   2.913   1.170  0.4430 -0.0809  0.2239
19883TIP3    H181064   3.205   2.869   1.228 -0.8571  0.4080  2.0603
19883TIP3    H281065   3.193   2.986   1.133  1.9918 -1.7531 -1.2054
19884TIP3   OH281066   2.469   5.545  13.795 -0.3699 -0.6325  0.0326
19884TIP3    H181067   2.551   5.495  13.795 -0.5029 -0.8490 -0.0016
19884TIP3    H281068   2.414   5.501  13.730  0.4555  1.0748 -1.9245
19885TIP3   OH281069   3.641   4.981  13.862  0.1331 -0.3600 -0.3226
19885TIP3    H181070   3.558   4.947  13.828 -1.2287  2.5046 -0.1218
19885TIP3    H281071   3.678   5.030  13.789  0.6506  0.0740  0.2240
19886TIP3   OH281072   2.896   0.932   1.038  0.0125  0.3110 -0.0406
19886TIP3    H181073   2.955   1.007   1.050  0.1571 -0.0177  1.3698
19886TIP3    H281074   2.922   0.895   0.953  1.6012  0.3924  0.3835
19887TIP3   OH281075   3.025   6.795  16.579  0.0907 -0.0081 -0.0452
19887TIP3    H181076   3.089   6.811  16.649  0.8816  0.9251 -0.9378
19887TIP3    H281077   3.078   6.793  16.499 -0.9461  0.3064 -0.7610
19888TIP3   OH281078   0.704   4.620   1.641  0.0682 -0.3295  0.1127
19888TIP3    H181079   0.710   4.603   1.547 -1.1731 -0.2269 -0.0070
19888TIP3    H281080   0.633   4.684   1.650 -1.7677 -2.3526  1.2841
19889TIP3   OH281081   2.110   1.546  10.178 -0.0602 -0.1076 -0.4156
19889TIP3    H181082   2.036   1.565  10.119  1.2786  1.1912 -1.7751
19889TIP3    H281083   2.140   1.459  10.151 -0.6103 -0.3175 -0.3684
19890TIP3   OH281084   3.845   2.516   4.958 -0.2834  0.2194  0.0128
19890TIP3    H181085   3.936   2.500   4.935  0.5288  0.9852  2.3717
19890TIP3    H281086   3.842   2.609   4.981 -1.4995  0.0639  0.5670
19891TIP3   OH281087   1.551   6.263  12.382  0.0541 -0.3486 -0.0094
19891TIP3    H181088   1.632   6.311  12.396 -0.5778  0.5284  0.7614
19891TIP3    H281089   1.573   6.197  12.316  1.4178 -0.2256  0.2976
19892TIP3   OH281090   4.644   2.967   0.444 -0.0969  0.0390  0.2370
19892TIP3    H181091   4.571   2.909   0.466 -0.7732  1.0079  0.6102
19892TIP3    H281092   4.671   2.940   0.356 -2.0190  0.7699 -0.6158
19893TIP3   OH281093   0.289   5.344  11.711 -0.2046  0.9434 -0.2648
19893TIP3    H181094   0.243   5.278  11.659 -0.5998  2.2160 -1.5986
19893TIP3    H281095   0.223   5.374  11.774 -0.3473  0.8220 -0.3526
19894TIP3   OH281096   4.294   3.543   0.311 -0.2339 -0.0574  0.0417
19894TIP3    H181097   4.374   3.539   0.259 -0.0853  0.0355  0.2601
19894TIP3    H281098   4.284   3.454   0.346 -0.9333 -0.4252 -1.0232
19895TIP3   OH281099   5.180   4.675  15.171 -0.3688 -0.0974  0.1058
19895TIP3    H181100   5.142   4.735  15.107 -0.4884 -1.1019 -0.7867
19895TIP3    H281101   5.117   4.604  15.178 -0.4474  0.0764  1.4925
19896TIP3   OH281102   4.319   2.897  12.646  0.0674 -0.4679 -0.0500
19896TIP3    H181103   4.396   2.925  12.596  0.6275 -0.2427  0.9177
19896TIP3    H281104   4.345   2.907  12.737 -0.9628 -0.8195  0.2912
19897TIP3   OH281105   0.444   4.057  16.798  0.1785 -0.3141  0.1852
19897TIP3    H181106   0.485   4.138  16.829 -2.5170  1.5376 -0.7484
19897TIP3    H281107   0.419   4.011  16.878 -1.7468  1.7363  0.8663
19898TIP3   OH281108   0.361   0.355  12.860 -0.2926 -0.0179 -0.7477
19898TIP3    H181109   0.273   0.317  12.865 -0.6171  0.8058  0.1837
19898TIP3    H281110   0.398   0.340  12.947  1.0363 -1.5780 -1.5392
19899TIP3   OH281111   0.220   5.315  16.466  0.2026  0.5626 -0.6137
19899TIP3    H181112   0.127   5.329  16.483  0.4579  0.1978  1.3895
19899TIP3    H281113   0.224   5.228  16.426 -0.2317 -0.1203  0.7626
19900TIP3   OH281114   0.922   6.669   1.314  0.1913  0.0177 -0.0011
19900TIP3    H181115   0.849   6.642   1.259  0.1476 -3.2742  1.4549
19900TIP3    H281116   0.991   6.692   1.252 -0.8113 -0.6361 -1.4076
19901TIP3   OH281117   4.798   1.927  16.518  0.6969 -0.1236  0.2792
19901TIP3    H181118   4.801   1.852  16.460 -0.4229 -0.5116  0.6895
19901TIP3    H281119   4.725   1.980  16.486  0.2031 -0.2349  1.1827
19902TIP3   OH281120   1.269   4.709   4.053 -0.3301  0.1044  0.0416
19902TIP3    H181121   1.285   4.623   4.091  0.3630  0.4303  0.5038
19902TIP3    H281122   1.183   4.735   4.085 -1.0983 -0.9462 -1.1019
19903TIP3   OH281123   6.744   6.306  13.906  0.0382 -0.6823  0.1228
19903TIP3    H181124   6.720   6.318  13.814 -0.0332  0.4492  0.2710
19903TIP3    H281125   6.835   6.276  13.904 -0.0491 -0.9186 -0.3261
19904TIP3   OH281126   1.332   3.980   3.282  0.0004 -0.0071 -1.0285
19904TIP3    H181127   1.253   4.001   3.332  0.1883  2.5762 -1.6451
19904TIP3    H281128   1.305   3.911   3.222 -0.9716 -1.1768  0.6586
19905TIP3   OH281129   1.565   4.940   1.747 -0.2267  0.3140 -0.0313
19905TIP3    H181130   1.654   4.919   1.776  0.0000  1.9314  0.5841
19905TIP3    H281131   1.526   4.984   1.823 -1.8638 -1.0985  0.0139
19906TIP3   OH281132   3.145   4.091  13.191  0.4314  0.1199 -0.0971
19906TIP3    H181133   3.067   4.134  13.157  1.3429  1.0509 -1.0766
19906TIP3    H281134   3.129   4.084  13.285 -0.3899  1.2589 -0.1344
19907TIP3   OH281135   5.114   4.367   0.212  0.1738  0.5519  0.0929
19907TIP3    H181136   5.106   4.407   0.125  0.5084 -0.9567 -0.6710
19907TIP3    H281137   5.027   4.375   0.251 -0.2749  0.2858 -0.8310
19908TIP3   OH281138   4.500   5.257   6.024  0.3880  0.4600 -0.1543
19908TIP3    H181139   4.556   5.313   5.969  0.8569  0.1818  0.0287
19908TIP3    H281140   4.561   5.218   6.087  0.1626 -0.6534 -0.5941
19909TIP3   OH281141   3.015   6.335   6.265  0.3661  0.0831 -0.1825
19909TIP3    H181142   3.056   6.256   6.299  0.8254 -0.7508 -2.5039
19909TIP3    H281143   2.927   6.335   6.304  0.8333 -0.8081  0.9177
19910TIP3   OH281144   0.629   3.239   3.251  0.1489  0.1874  0.1249
19910TIP3    H181145   0.649   3.159   3.203  1.4167  0.1881  0.6022
19910TIP3    H281146   0.537   3.230   3.277  0.0559 -0.7499 -0.4908
19911TIP3   OH281147   4.834   1.615  13.963 -0.0198  0.3093 -0.0138
19911TIP3    H181148   4.770   1.562  13.916  0.3255  0.9134 -1.2086
19911TIP3    H281149   4.909   1.622  13.904 -0.1402  2.3086 -0.0232
19912TIP3   OH281150   3.147   0.928   5.202 -0.0317  0.3315 -0.4702
19912TIP3    H181151   3.124   1.007   5.153  0.5640  1.5249  1.1210
19912TIP3    H281152   3.115   0.943   5.290  1.0833 -0.7412  0.1485
19913TIP3   OH281153   0.010   3.333  11.947 -0.3946  0.1087  0.0846
19913TIP3    H181154   0.061   3.256  11.974  1.8843  1.5372  0.1294
19913TIP3    H281155   0.033   3.400  12.011 -1.2268  1.2409 -0.7666
19914TIP3   OH281156   2.153   5.938   0.786  0.6784 -0.0726 -0.4536
19914TIP3    H181157   2.175   5.845   0.795 -1.4042 -0.5741 -0.1395
19914TIP3    H281158   2.058   5.941   0.790  0.6539  1.9999 -1.3547
19915TIP3   OH281159   6.053   5.994   5.322 -0.0571 -0.3030  0.6721
19915TIP3    H181160   5.979   5.934   5.307 -1.0238  1.3780 -2.1270
19915TIP3    H281161   6.126   5.953   5.277 -0.4517  0.0745 -0.3433
19916TIP3   OH281162   0.744   2.385  16.213  0.3108  0.3456 -0.0593
19916TIP3    H181163   0.825   2.432  16.193  1.9729 -1.5542  1.7330
19916TIP3    H281164   0.750   2.304  16.162 -0.7366  0.4205 -0.3140
19917TIP3   OH281165   5.335   4.991   1.376  0.1050  0.1234  0.0117
19917TIP3    H181166   5.416   4.960   1.336  0.6489  1.8201 -0.2537
19917TIP3    H281167   5.359   5.074   1.418 -0.8397 -0.7313  2.4108
19918TIP3   OH281168   1.924   0.570   3.961 -0.2074  0.3802 -0.2241
19918TIP3    H181169   1.873   0.648   3.985  0.4013  1.8034 -3.1466
19918TIP3    H281170   1.952   0.586   3.871  2.2725 -2.0179 -0.0155
19919TIP3   OH281171   5.149   0.610   1.669  0.2395 -0.7502 -0.6734
19919TIP3    H181172   5.180   0.608   1.579 -0.5154  1.3284 -1.0303
19919TIP3    H281173   5.057   0.585   1.663  0.1009 -0.2894 -0.5480
19920TIP3   OH281174   1.614   3.218   6.190 -0.3220 -0.7972  0.2525
19920TIP3    H181175   1.667   3.228   6.270  0.4078 -2.4512  0.0254
19920TIP3    H281176   1.661   3.267   6.123  0.3670 -1.3860  0.2991
19921TIP3   OH281177   6.134   2.718   1.236 -0.0992  0.7005 -0.4003
19921TIP3    H181178   6.140   2.666   1.156 -0.1979  1.3337 -0.8230
19921TIP3    H281179   6.114   2.654   1.305 -1.8499  0.3848 -1.1548
19922TIP3   OH281180   4.478   1.555   2.500 -0.0896 -0.1718  0.0724
19922TIP3    H181181   4.550   1.595   2.451  0.6174 -0.2152  1.0359
19922TIP3    H281182   4.521   1.486   2.552 -0.7771  0.0146  0.9056
19923TIP3   OH281183   3.330   1.892  15.679 -0.7657 -0.3585 -0.2393
19923TIP3    H181184   3.247   1.934  15.701 -1.0394 -0.9009 -0.2169
19923TIP3    H281185   3.345   1.830  15.751 -0.1160  0.0528 -0.0122
19924TIP3   OH281186   0.062   2.226   4.016  0.2443  0.5500 -0.7864
19924TIP3    H181187   0.002   2.286   3.972  2.1772  2.8327 -0.5599
19924TIP3    H281188   0.147   2.244   3.974  1.1098 -1.2172  0.1241
19925TIP3   OH281189   0.858   1.786   0.116 -0.2850  0.6401 -0.1321
19925TIP3    H181190   0.856   1.709   0.172 -0.3579 -0.0871 -1.0932
19925TIP3    H281191   0.943   1.781   0.071 -1.2058 -0.1609 -1.8868
19926TIP3   OH281192   3.238   5.959   1.776  0.2924 -0.3027  0.5352
19926TIP3    H181193   3.237   5.914   1.692  0.3590 -0.9006  0.8471
19926TIP3    H281194   3.149   5.993   1.786  0.4822  0.3866 -0.0976
19927TIP3   OH281195   0.929   1.786   2.267 -0.1307  0.5732  0.2820
19927TIP3    H181196   0.921   1.787   2.362 -0.3254 -0.1144  0.2820
19927TIP3    H281197   1.014   1.744   2.251 -0.7755 -0.7245  0.1399
19928TIP3   OH281198   0.926   0.052  14.277 -0.3107 -0.1635 -0.0849
19928TIP3    H181199   1.021   0.045  14.272 -0.3123  0.4468 -2.4869
19928TIP3    H281200   0.894   0.008  14.198 -2.2206 -2.2837  1.7122
19929TIP3   OH281201   0.210   3.665  16.985 -0.4739  0.1590  0.0729
19929TIP3    H181202   0.227   3.571  16.998  4.1637  1.0037  2.3326
19929TIP3    H281203   0.173   3.670  16.897  0.2860 -3.7282 -0.6910
19930TIP3   OH281204   1.466   4.113   2.728 -0.1312 -0.4219 -0.4103
19930TIP3    H181205   1.489   4.052   2.657 -0.5328 -1.3295  0.2198
19930TIP3    H281206   1.465   4.058   2.806  0.1311  0.5373  0.2797
19931TIP3   OH281207   3.498   2.137  14.934  0.2741 -0.1449  0.1450
19931TIP3    H181208   3.486   2.207  14.870 -0.3276  1.4616  1.9268
19931TIP3    H281209   3.593   2.130  14.945  0.5112 -1.7996 -2.2693
19932TIP3   OH281210   3.529   4.147   3.178  0.5597 -0.6320 -0.0431
19932TIP3    H181211   3.456   4.117   3.232 -1.0615  2.0155 -0.5895
19932TIP3    H281212   3.591   4.186   3.241 -0.1157  0.1604  0.1402
19933TIP3   OH281213   1.598   4.695  11.409 -0.1068 -0.3152 -0.1391
19933TIP3    H181214   1.666   4.643  11.366 -0.7636 -1.6277  0.3537
19933TIP3    H281215   1.605   4.671  11.502 -1.8169 -1.2232 -0.1888
19934TIP3   OH281216   6.380   3.766  11.115  0.0234  0.3739  0.0460
19934TIP3    H181217   6.432   3.704  11.065  1.2099 -0.8223  2.5532
19934TIP3    H281218   6.402   3.851  11.079 -0.9243 -0.5025 -2.8739
19935TIP3   OH281219   0.450   3.035   0.100  0.5376  0.8417 -0.1924
19935TIP3    H181220   0.392   2.974   0.146 -0.7649  2.3580  0.2695
19935TIP3    H281221   0.488   3.088   0.169  3.1746 -0.5908 -0.4044
19936TIP3   OH281222   4.260   6.598  15.584  0.5795  0.2129 -0.0424
19936TIP3    H181223   4.271   6.564  15.495  1.0120 -1.0383  0.4558
19936TIP3    H281224   4.192   6.664  15.576 -0.5248 -0.9721 -1.0556
19937TIP3   OH281225   1.194   6.623   1.422 -0.1391  0.1185 -0.5270
19937TIP3    H181226   1.161   6.536   1.398 -0.0108  0.1905 -0.9583
19937TIP3    H281227   1.121   6.664   1.468 -0.3393 -0.0677 -0.6765
19938TIP3   OH281228   1.497   2.279  14.172  0.2286  0.1945 -0.6422
19938TIP3    H181229   1.566   2.215  14.182 -0.3791 -0.5199 -0.9507
19938TIP3    H281230   1.543   2.361  14.152  0.9414 -0.4730 -1.8579
19939TIP3   OH281231   3.415   6.544  16.288  0.2347  0.3549 -0.0329
19939TIP3    H181232   3.350   6.579  16.227  2.5565  0.3597 -2.6943
19939TIP3    H281233   3.365   6.524  16.367 -2.9874  0.3673 -1.8932
19940TIP3   OH281234   6.609   1.613   2.351 -0.4631  0.0691  0.3993
19940TIP3    H181235   6.548   1.541   2.361  0.4929 -0.5606  2.0887
19940TIP3    H281236   6.558   1.691   2.372 -1.7029  0.0405 -2.1584
19941TIP3   OH281237   1.635   2.721  12.060 -0.3519  0.0585 -0.0598
19941TIP3    H181238   1.655   2.783  12.131  2.1916 -1.0879  0.3475
19941TIP3    H281239   1.572   2.767  12.005  0.9059  2.7768  0.5887
19942TIP3   OH281240   5.380   5.297  16.358 -0.0230 -0.3666 -0.0287
19942TIP3    H181241   5.288   5.277  16.370 -0.8983  2.2259 -1.6434
19942TIP3    H281242   5.406   5.245  16.281 -0.5108 -0.1100 -0.3697
19943TIP3   OH281243   1.983   1.700   4.742 -0.6510  0.3288  0.6341
19943TIP3    H181244   1.906   1.668   4.790 -0.3940  0.8404  1.4001
19943TIP3    H281245   1.946   1.757   4.674 -0.9355  0.9579  1.3024
19944TIP3   OH281246   5.574   6.279   0.180  0.1098 -0.5626 -0.0456
19944TIP3    H181247   5.581   6.279   0.085 -0.1418 -1.7708 -0.0807
19944TIP3    H281248   5.501   6.338   0.199 -0.1042 -0.6366 -0.6221
19945TIP3   OH281249   5.810   6.056   1.870 -0.1313 -0.0473  0.0118
19945TIP3    H181250   5.819   6.151   1.863 -0.4247 -0.0704 -0.7634
19945TIP3    H281251   5.727   6.036   1.828  0.3324 -0.7309 -0.6090
19946TIP3   OH281252   2.603   0.434  13.530  0.6079 -0.3449  0.0188
19946TIP3    H181253   2.533   0.408  13.471  0.7469 -0.3157 -0.1595
19946TIP3    H281254   2.675   0.459  13.473  0.2201  1.1930  0.1378
19947TIP3   OH281255   4.498   2.528   0.516 -0.1462 -1.3862  0.8221
19947TIP3    H181256   4.473   2.494   0.602 -1.6053  1.3116  1.5606
19947TIP3    H281257   4.415   2.552   0.474  0.7256  2.8736  1.1652
19948TIP3   OH281258   4.754   0.086  14.661 -0.1662 -0.2677  0.7969
19948TIP3    H181259   4.670   0.104  14.619  0.1084 -0.0572  0.3277
19948TIP3    H281260   4.738   0.101  14.754 -0.8380 -0.9612  0.7963
19949TIP3   OH281261   0.936   2.895  15.131 -0.4793  0.2628 -0.1957
19949TIP3    H181262   0.854   2.920  15.089 -0.2788  0.9806 -0.1672
19949TIP3    H281263   0.986   2.976  15.137  1.7487 -0.6562 -3.4734
19950TIP3   OH281264   5.265   5.907   0.812 -0.0059 -0.6911 -0.6621
19950TIP3    H181265   5.351   5.866   0.814  0.3248 -0.0366 -1.0818
19950TIP3    H281266   5.279   5.995   0.847 -0.4208 -0.4466 -1.0893
19951TIP3   OH281267   6.314   0.639  12.110  0.2305  0.1258  0.2312
19951TIP3    H181268   6.286   0.712  12.166 -1.9355  1.5543 -2.4406
19951TIP3    H281269   6.247   0.573  12.122  0.0991  0.1803 -0.1908
19952TIP3   OH281270   1.759   1.299  13.638 -0.3510  0.3305 -0.0415
19952TIP3    H181271   1.729   1.390  13.637  1.0942  0.8629 -2.3833
19952TIP3    H281272   1.679   1.248  13.647 -1.4451  1.8028 -0.8210
19953TIP3   OH281273   4.522   2.282   5.578  0.0803 -0.3822  0.7835
19953TIP3    H181274   4.489   2.347   5.517 -1.1208 -1.3165  0.3901
19953TIP3    H281275   4.605   2.317   5.609  0.7338  0.1248 -1.3835
19954TIP3   OH281276   5.148   5.709  14.566 -0.2891 -0.0850  0.1595
19954TIP3    H181277   5.171   5.794  14.605 -1.2338 -0.0477  0.6861
19954TIP3    H281278   5.058   5.694  14.595  0.2900 -1.8954  1.1454
19955TIP3   OH281279   3.847   6.320   1.698  0.3146  0.6009  0.0119
19955TIP3    H181280   3.753   6.301   1.691  0.0293  1.2037  1.7675
19955TIP3    H281281   3.851   6.416   1.707  0.8785  0.3960  2.4417
19956TIP3   OH281282   3.941   2.310  15.999  0.1770  0.7288 -0.2068
19956TIP3    H181283   3.884   2.378  16.035  1.4120  1.4315  0.5269
19956TIP3    H281284   3.934   2.319  15.904 -1.6505  0.1404 -0.1626
19957TIP3   OH281285   6.676   3.779   1.044 -0.0187  0.1319  0.5563
19957TIP3    H181286   6.731   3.746   1.116 -0.6502  0.1317  1.0444
19957TIP3    H281287   6.729   3.763   0.966  0.3501 -0.6031  0.9368
19958TIP3   OH281288   4.871   2.214   1.794  0.2761  0.2168 -0.4087
19958TIP3    H181289   4.833   2.128   1.780 -0.9612  0.5013  0.9638
19958TIP3    H281290   4.803   2.264   1.839  1.7729  1.1888  0.9303
19959TIP3   OH281291   0.064   6.017  15.221  0.1649 -0.1528  0.1575
19959TIP3    H181292   0.010   6.045  15.295  0.1048 -0.8494  0.3868
19959TIP3    H281293   0.154   6.026  15.253  0.1175 -1.5827  0.7558
19960TIP3   OH281294   2.571   4.769   2.596 -0.2796  0.1600  0.2580
19960TIP3    H181295   2.626   4.698   2.562 -0.1719 -0.6957  2.1024
19960TIP3    H281296   2.508   4.785   2.526  1.4792  0.2696 -1.3838
19961TIP3   OH281297   4.879   0.680   3.244 -0.2260  0.0052 -0.3522
19961TIP3    H181298   4.925   0.699   3.326 -0.6497 -1.0294  0.1472
19961TIP3    H281299   4.800   0.734   3.249 -0.9689 -1.1126  0.6240
19962TIP3   OH281300   6.280   2.134   0.173  0.3437 -0.5087  0.2529
19962TIP3    H181301   6.202   2.187   0.159 -1.2722 -2.4339  1.3501
19962TIP3    H281302   6.318   2.168   0.254  1.2316  1.0108 -0.7432
19963TIP3   OH281303   2.909   1.353  16.938 -0.4857 -0.1878  0.2970
19963TIP3    H181304   2.919   1.295  17.014 -0.3563  0.4641  0.7850
19963TIP3    H281305   2.842   1.311  16.885 -0.3285 -0.8337  0.5961
19964TIP3   OH281306   0.959   2.138   1.254  0.2184  0.0608  1.0794
19964TIP3    H181307   0.870   2.160   1.228  0.2042 -1.5064 -0.3830
19964TIP3    H281308   0.949   2.068   1.319  0.3569  1.8971  3.2047
19965TIP3   OH281309   1.685   5.986  12.555 -0.3872 -0.0365  0.5704
19965TIP3    H181310   1.631   6.065  12.555  0.5262  0.6288  1.8582
19965TIP3    H281311   1.751   6.002  12.622  0.8775 -1.1946 -0.3365
19966TIP3   OH281312   2.871   4.843  11.725  0.0827 -0.3478  0.0645
19966TIP3    H181313   2.892   4.852  11.632  2.2317  0.4415  0.5563
19966TIP3    H281314   2.808   4.912  11.743 -0.5400 -0.6616 -0.8316
19967TIP3   OH281315   1.723   4.979   2.862 -0.3854 -0.1752 -0.0691
19967TIP3    H181316   1.781   4.949   2.791 -0.6322 -3.8482  1.0861
19967TIP3    H281317   1.782   4.995   2.935 -0.5262 -1.3201  0.3184
19968TIP3   OH281318   3.026   5.067  17.042 -0.4080  0.2359 -0.2186
19968TIP3    H181319   3.067   5.099  17.122 -1.3367 -0.2572  0.4694
19968TIP3    H281320   3.085   5.096  16.972  1.7679 -1.4356  0.7905
19969TIP3   OH281321   4.553   3.502   3.316 -0.5769  0.5927  0.0088
19969TIP3    H181322   4.632   3.518   3.263 -2.2603  2.1827 -2.2185
19969TIP3    H281323   4.504   3.436   3.266  0.1306 -1.9429  2.3976
19970TIP3   OH281324   4.817   1.522   3.415 -0.0756 -0.4025 -0.2843
19970TIP3    H181325   4.743   1.467   3.439 -1.0376  0.2742 -1.5708
19970TIP3    H281326   4.847   1.485   3.331  0.5723 -0.2123 -0.1405
19971TIP3   OH281327   1.673   0.023   4.027  0.6160 -0.1606  0.1210
19971TIP3    H181328   1.707   0.013   4.116  0.8147  1.0033  0.1998
19971TIP3    H281329   1.745  -0.007   3.971  0.1708 -1.7146  0.3503
19972TIP3   OH281330   1.810   5.296  13.717 -0.1809  0.2114  0.0832
19972TIP3    H181331   1.893   5.266  13.754 -0.0767 -0.4609 -0.6673
19972TIP3    H281332   1.803   5.387  13.745  1.3071  0.5938 -0.6773
19973LIG     O181333   5.168   1.975  16.413  0.2478  0.3739 -0.3220
19973LIG     O281334   4.992   1.888  16.837  0.5564  0.2092 -0.0038
19973LIG     N181335   5.064   1.708  16.707  0.3061  0.1633 -0.4403
19973LIG     N281336   5.176   1.683  16.369  0.5747 -0.6653  0.0797
19973LIG     N381337   5.083   1.927  16.625  0.7148 -0.5497 -0.4526
19973LIG     N481338   5.126   1.534  16.535 -0.5162  0.0243  0.1432
19973LIG     C181339   5.137   1.752  16.477 -0.3729 -0.0993  0.4089
19973LIG     C281340   5.113   1.661  16.583  0.5855 -0.5242 -0.1035
19973LIG     C381341   5.134   1.891  16.501 -0.1775 -0.5240  0.5340
19973LIG     C481342   5.043   1.846  16.733 -0.7042 -0.1924  0.5515
19973LIG     C581343   5.165   1.554  16.409 -0.1660  0.2823 -0.4366
19973LIG     C681344   5.022   1.617  16.819  0.1854  0.7827 -0.0090
19973LIG     C781345   5.210   1.737  16.239 -0.4536  0.2435  0.3545
19973LIG     C881346   5.078   2.073  16.643  0.1460  0.3373  0.5545
19973LIG     H181347   5.164   1.475  16.333  0.1321 -0.7779  0.6405
19973LIG     H281348   4.912   1.611  16.819  0.0893  1.8072  1.7610
19973LIG     H381349   5.040   1.653  16.923 -0.9416 -2.1503  1.3221
19973LIG     H481350   5.056   1.513  16.800 -0.9061  0.5342 -0.6983
19973LIG     H581351   5.218   1.655  16.165  1.8257 -1.3102  2.1575
19973LIG     H681352   5.305   1.794  16.251 -0.8939  0.5752  2.8875
19973LIG     H781353   5.130   1.809  16.209 -2.7012 -0.6192  3.6749
19973LIG     H881354   5.014   2.116  16.564 -0.6482 -1.8338 -0.0464
19973LIG     H981355   5.178   2.122  16.639 -1.2233  3.4967 -4.7254
19973LIG    H1081356   5.031   2.116  16.734  0.0330 -1.0603  1.1847
   6.82058   6.82058  17.10901
